 vasp.6.3.0 20Jan22 (build Apr  1 2022 16:44:48) complex                         
 executed on        HPECrayEX_GCC date 2022.11.13  00:57:56
 running  512 mpi-ranks, with    1 threads/rank
 distrk:  each k-point on  512 cores,    1 groups
 distr:  one band on NCORE=   8 cores,   64 groups


--------------------------------------------------------------------------------------------------------


 INCAR:
   SYSTEM = MgO-rocksalt
   ISMEAR = 0
   SIGMA = 0.05
   EDIFF = 1E-6
   ALGO = ALL
   ISTART = 0
   IBRION = -1
   NSW = 0
   ISYM = 0
   DIPOL = 0.5 0.5 0.5
   IDIPOL = 3
   LDIPOL = .TRUE.
   GGA = PE
   IVDW = 1
   VDW_C6 = 1.23 0.70 0.63 0.70
   VDW_R0 = 1.397 1.342 1.243 1.342
   ENCUT = 600
   PREC = Accurate
   LASPH = .TRUE.
   LREAL = .FALSE.
   ISPIN = 2
   MAGMOM = 1.0 0.0 0.0 0.0 0.0 0.0 0.0 0.0 0.0 0.0 0.0 0.0 0.0 0.0 0.0 0.0 0.0 0.0 0.0 0.0 0.0 0.0 0.0 0.0 0.0 0.0 0.0 0.0 0.0 0.0 0.0 0.0 0.0 0.0 0.0 0.0 0.0 0.0 0.0 0.0 0.0 0.0 0.0 0.0 0.0 0.0 0.0 0.0 0.0 0.0 0.0 0.0 0.0 0.0 0.0 0.0 0.0 0.0 0.0 0.0 0.0 0.0 0.0 0.0 0.0 0.0
   NELM = 200
   NELMIN = 8
   NCORE = 8
   KPAR = 1
   LWAVE = .FALSE.
   LCHARG = .FALSE.

 POTCAR:    PAW_PBE N 08Apr2002                   
 POTCAR:    PAW_PBE O 08Apr2002                   
 POTCAR:    PAW_PBE Mg_pv 13Apr2007               
 POTCAR:    PAW_PBE O 08Apr2002                   
 POTCAR:    PAW_PBE N 08Apr2002                   
   SHA256 =  e053789ff3a61a86a1b75d8a110fcc91f86041011e7b0817c7c99e4e8a6349d7 N/POTCAR              
   COPYR  = (c) Copyright 08Apr2002 Georg Kresse                                                    
   COPYR  = This file is part of the software VASP. Any use, copying, and all other rights are regul
   COPYR  = If you do not have a valid VASP license, you may not use, copy or distribute this file. 
   VRHFIN =N: s2p3                                                                                  
   LEXCH  = PE                                                                                      
   EATOM  =   264.5486 eV,   19.4438 Ry                                                             
                                                                                                    
   TITEL  = PAW_PBE N 08Apr2002                                                                     
   LULTRA =        F    use ultrasoft PP ?                                                          
   IUNSCR =        1    unscreen: 0-lin 1-nonlin 2-no                                               
   RPACOR =    1.200    partial core radius                                                         
   POMASS =   14.001; ZVAL   =    5.000    mass and valenz                                          
   RCORE  =    1.500    outmost cutoff radius                                                       
   RWIGS  =    1.400; RWIGS  =    0.741    wigner-seitz radius (au A)                               
   ENMAX  =  400.000; ENMIN  =  300.000 eV                                                          
   ICORE  =        2    local potential                                                             
   LCOR   =        T    correct aug charges                                                         
   LPAW   =        T    paw PP                                                                      
   EAUG   =  627.112                                                                                
   DEXC   =    0.000                                                                                
   RMAX   =    1.529    core radius for proj-oper                                                   
   RAUG   =    1.300    factor for augmentation sphere                                              
   RDEP   =    1.514    radius for radial grids                                                     
   RDEPT  =    1.338    core radius for aug-charge                                                  
                                                                                                    
   Atomic configuration                                                                             
    4 entries                                                                                       
     n  l   j            E        occ.                                                              
     1  0  0.50      -384.7179   2.0000                                                             
     2  0  0.50       -18.5828   2.0000                                                             
     2  1  0.50        -7.0898   3.0000                                                             
     3  2  1.50        -6.8029   0.0000                                                             
   Description                                                                                      
     l       E           TYP  RCUT    TYP  RCUT                                                     
     0    -18.5828119     23  1.200                                                                 
     0    -13.5018863     23  1.200                                                                 
     1     -7.0897853     23  1.500                                                                 
     1      9.5240782     23  1.500                                                                 
     2     -6.8029130      7  1.500                                                                 
  local pseudopotential read in
  partial core-charges read in
  partial kinetic energy density read in
  atomic valenz-charges read in
  non local Contribution for L=           0  read in
    real space projection operators read in
  non local Contribution for L=           0  read in
    real space projection operators read in
  non local Contribution for L=           1  read in
    real space projection operators read in
  non local Contribution for L=           1  read in
    real space projection operators read in
    PAW grid and wavefunctions read in

   number of l-projection  operators is LMAX  =           4
   number of lm-projection operators is LMMAX =           8

 POTCAR:    PAW_PBE O 08Apr2002                   
   SHA256 =  818f92134a0a090dccd8ba1447fa70422a3b330e708bb4f08108d8ae51209ddf O/POTCAR              
   COPYR  = (c) Copyright 08Apr2002 Georg Kresse                                                    
   COPYR  = This file is part of the software VASP. Any use, copying, and all other rights are regul
   COPYR  = If you do not have a valid VASP license, you may not use, copy or distribute this file. 
   VRHFIN =O: s2p4                                                                                  
   LEXCH  = PE                                                                                      
   EATOM  =   432.3788 eV,   31.7789 Ry                                                             
                                                                                                    
   TITEL  = PAW_PBE O 08Apr2002                                                                     
   LULTRA =        F    use ultrasoft PP ?                                                          
   IUNSCR =        1    unscreen: 0-lin 1-nonlin 2-no                                               
   RPACOR =    1.200    partial core radius                                                         
   POMASS =   16.000; ZVAL   =    6.000    mass and valenz                                          
   RCORE  =    1.520    outmost cutoff radius                                                       
   RWIGS  =    1.550; RWIGS  =    0.820    wigner-seitz radius (au A)                               
   ENMAX  =  400.000; ENMIN  =  300.000 eV                                                          
   ICORE  =        2    local potential                                                             
   LCOR   =        T    correct aug charges                                                         
   LPAW   =        T    paw PP                                                                      
   EAUG   =  605.392                                                                                
   DEXC   =    0.000                                                                                
   RMAX   =    1.553    core radius for proj-oper                                                   
   RAUG   =    1.300    factor for augmentation sphere                                              
   RDEP   =    1.550    radius for radial grids                                                     
   RDEPT  =    1.329    core radius for aug-charge                                                  
                                                                                                    
   Atomic configuration                                                                             
    4 entries                                                                                       
     n  l   j            E        occ.                                                              
     1  0  0.50      -514.6923   2.0000                                                             
     2  0  0.50       -23.9615   2.0000                                                             
     2  1  0.50        -9.0305   4.0000                                                             
     3  2  1.50        -9.5241   0.0000                                                             
   Description                                                                                      
     l       E           TYP  RCUT    TYP  RCUT                                                     
     0    -23.9615318     23  1.200                                                                 
     0     -9.5240782     23  1.200                                                                 
     1     -9.0304911     23  1.520                                                                 
     1      8.1634956     23  1.520                                                                 
     2     -9.5240782      7  1.500                                                                 
  local pseudopotential read in
  partial core-charges read in
  partial kinetic energy density read in
  kinetic energy density of atom read in
  atomic valenz-charges read in
  non local Contribution for L=           0  read in
    real space projection operators read in
  non local Contribution for L=           0  read in
    real space projection operators read in
  non local Contribution for L=           1  read in
    real space projection operators read in
  non local Contribution for L=           1  read in
    real space projection operators read in
    PAW grid and wavefunctions read in

   number of l-projection  operators is LMAX  =           4
   number of lm-projection operators is LMMAX =           8

 POTCAR:    PAW_PBE Mg_pv 13Apr2007               
   SHA256 =  f474ac0dd33840b9ae76c01d57fea79fdf77cdfbb07d5ade72c65f83c709b62b Mg_pv/POTCAR          
   COPYR  = (c) Copyright 13Apr2007 Georg Kresse                                                    
   COPYR  = This file is part of the software VASP. Any use, copying, and all other rights are regul
   COPYR  = If you do not have a valid VASP license, you may not use, copy or distribute this file. 
   VRHFIN =Mg: p6s2                                                                                 
   LEXCH  = PE                                                                                      
   EATOM  =  1056.7344 eV,   77.6678 Ry                                                             
                                                                                                    
   TITEL  = PAW_PBE Mg_pv 13Apr2007                                                                 
   LULTRA =        F    use ultrasoft PP ?                                                          
   IUNSCR =        1    unscreen: 0-lin 1-nonlin 2-no                                               
   RPACOR =    1.500    partial core radius                                                         
   POMASS =   24.305; ZVAL   =    8.000    mass and valenz                                          
   RCORE  =    2.000    outmost cutoff radius                                                       
   RWIGS  =    2.000; RWIGS  =    1.058    wigner-seitz radius (au A)                               
   ENMAX  =  403.929; ENMIN  =  302.947 eV                                                          
   RCLOC  =    1.506    cutoff for local pot                                                        
   LCOR   =        T    correct aug charges                                                         
   LPAW   =        T    paw PP                                                                      
   EAUG   =  758.780                                                                                
   DEXC   =    0.000                                                                                
   RMAX   =    2.045    core radius for proj-oper                                                   
   RAUG   =    1.300    factor for augmentation sphere                                              
   RDEP   =    2.025    radius for radial grids                                                     
   RDEPT  =    1.557    core radius for aug-charge                                                  
                                                                                                    
   Atomic configuration                                                                             
    5 entries                                                                                       
     n  l   j            E        occ.                                                              
     1  0  0.50     -1259.6230   2.0000                                                             
     2  0  0.50       -79.8442   2.0000                                                             
     2  1  1.50       -46.6121   6.0000                                                             
     3  0  0.50        -4.7055   2.0000                                                             
     3  2  1.50        -1.3606   0.0000                                                             
   Description                                                                                      
     l       E           TYP  RCUT    TYP  RCUT                                                     
     1    -46.6121073     23  1.600                                                                 
     1      2.7211652     23  1.600                                                                 
     0     -4.7054661     23  2.000                                                                 
     0     61.2262170     23  2.000                                                                 
     2     -1.3605826     23  2.000                                                                 
  local pseudopotential read in
  partial core-charges read in
  partial kinetic energy density read in
  atomic valenz-charges read in
  non local Contribution for L=           1  read in
    real space projection operators read in
  non local Contribution for L=           1  read in
    real space projection operators read in
  non local Contribution for L=           0  read in
    real space projection operators read in
  non local Contribution for L=           0  read in
    real space projection operators read in
  non local Contribution for L=           2  read in
    real space projection operators read in
    PAW grid and wavefunctions read in

   number of l-projection  operators is LMAX  =           5
   number of lm-projection operators is LMMAX =          13

 POTCAR:    PAW_PBE O 08Apr2002                   
   SHA256 =  818f92134a0a090dccd8ba1447fa70422a3b330e708bb4f08108d8ae51209ddf O/POTCAR              
   COPYR  = (c) Copyright 08Apr2002 Georg Kresse                                                    
   COPYR  = This file is part of the software VASP. Any use, copying, and all other rights are regul
   COPYR  = If you do not have a valid VASP license, you may not use, copy or distribute this file. 
   VRHFIN =O: s2p4                                                                                  
   LEXCH  = PE                                                                                      
   EATOM  =   432.3788 eV,   31.7789 Ry                                                             
                                                                                                    
   TITEL  = PAW_PBE O 08Apr2002                                                                     
   LULTRA =        F    use ultrasoft PP ?                                                          
   IUNSCR =        1    unscreen: 0-lin 1-nonlin 2-no                                               
   RPACOR =    1.200    partial core radius                                                         
   POMASS =   16.000; ZVAL   =    6.000    mass and valenz                                          
   RCORE  =    1.520    outmost cutoff radius                                                       
   RWIGS  =    1.550; RWIGS  =    0.820    wigner-seitz radius (au A)                               
   ENMAX  =  400.000; ENMIN  =  300.000 eV                                                          
   ICORE  =        2    local potential                                                             
   LCOR   =        T    correct aug charges                                                         
   LPAW   =        T    paw PP                                                                      
   EAUG   =  605.392                                                                                
   DEXC   =    0.000                                                                                
   RMAX   =    1.553    core radius for proj-oper                                                   
   RAUG   =    1.300    factor for augmentation sphere                                              
   RDEP   =    1.550    radius for radial grids                                                     
   RDEPT  =    1.329    core radius for aug-charge                                                  
                                                                                                    
   Atomic configuration                                                                             
    4 entries                                                                                       
     n  l   j            E        occ.                                                              
     1  0  0.50      -514.6923   2.0000                                                             
     2  0  0.50       -23.9615   2.0000                                                             
     2  1  0.50        -9.0305   4.0000                                                             
     3  2  1.50        -9.5241   0.0000                                                             
   Description                                                                                      
     l       E           TYP  RCUT    TYP  RCUT                                                     
     0    -23.9615318     23  1.200                                                                 
     0     -9.5240782     23  1.200                                                                 
     1     -9.0304911     23  1.520                                                                 
     1      8.1634956     23  1.520                                                                 
     2     -9.5240782      7  1.500                                                                 
  local pseudopotential read in
  partial core-charges read in
  partial kinetic energy density read in
  kinetic energy density of atom read in
  atomic valenz-charges read in
  non local Contribution for L=           0  read in
    real space projection operators read in
  non local Contribution for L=           0  read in
    real space projection operators read in
  non local Contribution for L=           1  read in
    real space projection operators read in
  non local Contribution for L=           1  read in
    real space projection operators read in
    PAW grid and wavefunctions read in

   number of l-projection  operators is LMAX  =           4
   number of lm-projection operators is LMMAX =           8

 -----------------------------------------------------------------------------
|                                                                             |
|               ----> ADVICE to this user running VASP <----                  |
|                                                                             |
|     You have a (more or less) 'large supercell' and for larger cells it     |
|     might be more efficient to use real-space projection operators.         |
|     Therefore, try LREAL= Auto in the INCAR file.                           |
|     Mind: For very accurate calculation, you might also keep the            |
|     reciprocal projection scheme (i.e. LREAL=.FALSE.).                      |
|                                                                             |
 -----------------------------------------------------------------------------

  PAW_PBE N 08Apr2002                   :
 energy of atom  1       EATOM= -264.5486
 kinetic energy error for atom=    0.0103 (will be added to EATOM!!)
  PAW_PBE O 08Apr2002                   :
 energy of atom  2       EATOM= -432.3788
 kinetic energy error for atom=    0.0168 (will be added to EATOM!!)
  PAW_PBE Mg_pv 13Apr2007               :
 energy of atom  3       EATOM=-1056.7344
 kinetic energy error for atom=    0.0221 (will be added to EATOM!!)
  PAW_PBE O 08Apr2002                   :
 energy of atom  4       EATOM= -432.3788
 kinetic energy error for atom=    0.0168 (will be added to EATOM!!)


 POSCAR:  N  O Mg  O
  positions in direct lattice
  No initial velocities read in
 exchange correlation table for  LEXCH =        8
   RHO(1)=    0.500       N(1)  =     2000
   RHO(2)=  100.500       N(2)  =     4000



--------------------------------------------------------------------------------------------------------


 ion  position               nearest neighbor table
   1  0.501  0.501  0.765-   2 1.15
   2  0.425  0.430  0.801-   1 1.15
   3  0.250  0.000  0.353-  37 2.09  38 2.09  45 2.09  54 2.09  35 2.09
   4  0.500  0.250  0.353-  37 2.09  38 2.09  46 2.09  53 2.09  36 2.09
   5  0.250  0.250  0.451-  35 2.09  36 2.09  43 2.09  52 2.09  37 2.09  41 2.10
   6  0.500  0.000  0.451-  35 2.09  36 2.09  44 2.09  51 2.09  38 2.09  42 2.09
   7  0.250  0.000  0.550-  41 2.09  42 2.09  49 2.09  58 2.09  35 2.10  39 2.13
   8  0.500  0.250  0.550-  50 2.08  41 2.09  57 2.09  42 2.09  36 2.10  40 2.12
   9  0.250  0.250  0.647-  41 2.08  56 2.09  39 2.09  47 2.09  40 2.09
  10  0.500  0.000  0.647-  48 2.08  42 2.08  40 2.08  55 2.09  39 2.09
  11  0.250  0.500  0.353-  37 2.09  45 2.09  46 2.09  62 2.09  43 2.09
  12  0.500  0.750  0.353-  38 2.09  45 2.09  46 2.09  61 2.09  44 2.09
  13  0.250  0.750  0.451-  35 2.09  43 2.09  44 2.09  60 2.09  45 2.09  49 2.09
  14  0.500  0.500  0.451-  36 2.09  43 2.09  44 2.09  59 2.09  46 2.09  50 2.10
  15  0.250  0.500  0.550-  50 2.08  41 2.09  49 2.09  66 2.09  43 2.10  47 2.12
  16  0.500  0.750  0.550-  50 2.09  65 2.09  49 2.09  42 2.09  44 2.10  48 2.12
  17  0.250  0.750  0.647-  49 2.08  64 2.09  39 2.09  48 2.09  47 2.09
  18  0.500  0.500  0.649-  48 2.09  63 2.09  40 2.10  47 2.10  50 2.10
  19  0.750  0.000  0.353-  38 2.09  53 2.09  54 2.09  61 2.09  51 2.09
  20  0.000  0.250  0.353-  37 2.09  53 2.09  54 2.09  62 2.09  52 2.09
  21  0.750  0.250  0.451-  36 2.09  51 2.09  52 2.09  59 2.09  53 2.09  57 2.09
  22  0.000  0.000  0.451-  35 2.09  51 2.09  52 2.09  60 2.09  54 2.09  58 2.10
  23  0.750  1.000  0.550-  65 2.09  57 2.09  42 2.09  58 2.09  51 2.10  55 2.13
  24  0.000  0.250  0.550-  66 2.09  41 2.09  57 2.09  58 2.09  52 2.10  56 2.13
  25  0.750  0.250  0.647-  57 2.08  56 2.09  55 2.09  63 2.09  40 2.09
  26  0.000  0.000  0.647-  58 2.08  55 2.09  64 2.09  56 2.09  39 2.09
  27  0.750  0.500  0.353-  46 2.09  53 2.09  61 2.09  62 2.09  59 2.09
  28  0.000  0.750  0.353-  45 2.09  54 2.09  61 2.09  62 2.09  60 2.09
  29  0.750  0.750  0.451-  44 2.09  51 2.09  59 2.09  60 2.09  61 2.09  65 2.10
  30  0.000  0.500  0.451-  43 2.09  52 2.09  59 2.09  60 2.09  62 2.09  66 2.09
  31  0.750  0.500  0.550-  50 2.09  65 2.09  57 2.09  66 2.09  59 2.10  63 2.12
  32  1.000  0.750  0.550-  65 2.09  66 2.09  49 2.09  58 2.09  60 2.10  64 2.13
  33  0.750  0.750  0.647-  65 2.08  64 2.09  55 2.09  63 2.09  48 2.09
  34  0.000  0.500  0.647-  63 2.08  66 2.08  47 2.08  56 2.09  64 2.09
  35  0.250  0.000  0.451-   5 2.09   6 2.09  13 2.09  22 2.09   3 2.09   7 2.10
  36  0.500  0.250  0.451-   5 2.09   6 2.09  14 2.09  21 2.09   4 2.09   8 2.10
  37  0.250  0.250  0.353-   3 2.09   4 2.09  11 2.09  20 2.09   5 2.09
  38  0.500  0.000  0.353-   3 2.09   4 2.09  12 2.09  19 2.09   6 2.09
  39  0.250  0.000  0.650-  17 2.09  26 2.09   9 2.09  10 2.09   7 2.13
  40  0.500  0.249  0.650-  10 2.08  25 2.09   9 2.09  18 2.10   8 2.12
  41  0.250  0.250  0.549-   9 2.08   7 2.09  24 2.09   8 2.09  15 2.09   5 2.10
  42  0.500  0.000  0.549-  10 2.08   7 2.09  23 2.09   8 2.09  16 2.09   6 2.09
  43  0.250  0.500  0.451-   5 2.09  13 2.09  14 2.09  30 2.09  11 2.09  15 2.10
  44  0.500  0.750  0.451-   6 2.09  13 2.09  14 2.09  29 2.09  12 2.09  16 2.10
  45  0.250  0.750  0.353-   3 2.09  11 2.09  12 2.09  28 2.09  13 2.09
  46  0.500  0.500  0.353-   4 2.09  11 2.09  12 2.09  27 2.09  14 2.09
  47  0.249  0.500  0.650-  34 2.08  17 2.09   9 2.09  18 2.10  15 2.12
  48  0.500  0.751  0.650-  10 2.08  17 2.09  33 2.09  18 2.09  16 2.12
  49  0.250  0.750  0.549-  17 2.08   7 2.09  32 2.09  15 2.09  16 2.09  13 2.09
  50  0.500  0.500  0.550-   8 2.08  15 2.08  16 2.09  31 2.09  14 2.10  18 2.10
  51  0.750  0.000  0.451-   6 2.09  21 2.09  22 2.09  29 2.09  19 2.09  23 2.10
  52  0.000  0.250  0.451-   5 2.09  21 2.09  22 2.09  30 2.09  20 2.09  24 2.10
  53  0.750  0.250  0.353-   4 2.09  19 2.09  20 2.09  27 2.09  21 2.09
  54  0.000  0.000  0.353-   3 2.09  19 2.09  20 2.09  28 2.09  22 2.09
  55  0.750  0.000  0.650-  26 2.09  25 2.09  33 2.09  10 2.09  23 2.13
  56  0.000  0.250  0.650-  25 2.09   9 2.09  26 2.09  34 2.09  24 2.13
  57  0.750  0.250  0.549-  25 2.08  23 2.09  24 2.09   8 2.09  31 2.09  21 2.09
  58  0.000  0.000  0.549-  26 2.08  24 2.09  23 2.09   7 2.09  32 2.09  22 2.10
  59  0.750  0.500  0.451-  14 2.09  21 2.09  29 2.09  30 2.09  27 2.09  31 2.10
  60  0.000  0.750  0.451-  13 2.09  22 2.09  29 2.09  30 2.09  28 2.09  32 2.10
  61  0.750  0.750  0.353-  12 2.09  19 2.09  27 2.09  28 2.09  29 2.09
  62  0.000  0.500  0.353-  11 2.09  20 2.09  27 2.09  28 2.09  30 2.09
  63  0.751  0.500  0.649-  34 2.08  25 2.09  33 2.09  18 2.09  31 2.12
  64  0.000  0.750  0.650-  17 2.09  26 2.09  33 2.09  34 2.09  32 2.13
  65  0.750  0.750  0.549-  33 2.08  23 2.09  32 2.09  16 2.09  31 2.09  29 2.10
  66  0.000  0.500  0.549-  34 2.08  24 2.09  32 2.09  15 2.09  31 2.09  30 2.09


IMPORTANT INFORMATION: All symmetrisations will be switched off!
NOSYMM: (Re-)initialisation of all symmetry stuff for point group C_1.


----------------------------------------------------------------------------------------

                                     Primitive cell                                     

  volume of cell :    1482.1129

  direct lattice vectors                    reciprocal lattice vectors
     8.349111827  0.000000000  0.000000000     0.119773219  0.000000000  0.000000000
     0.000000000  8.349111827  0.000000000     0.000000000  0.119773219  0.000000000
     0.000000000  0.000000000 21.261833870     0.000000000  0.000000000  0.047032632

  length of vectors
     8.349111827  8.349111827 21.261833870     0.119773219  0.119773219  0.047032632

  position of ions in fractional coordinates (direct lattice)
     0.501184342  0.501468999  0.765307019
     0.425203741  0.430213184  0.800808511
     0.250000000  0.000000000  0.352744737
     0.500000000  0.250000000  0.352744737
     0.250000000  0.250000000  0.450914912
     0.500000000  0.000000000  0.450914912
     0.250092305  0.000106850  0.549725118
     0.500064471  0.250341874  0.549856312
     0.250004460  0.250035618  0.647342291
     0.500082879  0.000053396  0.647325288
     0.250000000  0.500000000  0.352744737
     0.500000000  0.750000000  0.352744737
     0.250000000  0.750000000  0.450914912
     0.500000000  0.500000000  0.450914912
     0.250334591  0.500063109  0.549850145
     0.500049817  0.749822323  0.549827865
     0.249883932  0.750299525  0.647141480
     0.500405490  0.500363116  0.648651768
     0.750000000  0.000000000  0.352744737
     0.000000000  0.250000000  0.352744737
     0.750000000  0.250000000  0.450914912
     0.000000000  0.000000000  0.450914912
     0.750000984  0.999963944  0.549734980
     0.000097555  0.250096779  0.549720930
     0.750325856  0.249921448  0.647142923
     0.000064891  0.000071666  0.647461121
     0.750000000  0.500000000  0.352744737
     0.000000000  0.750000000  0.352744737
     0.750000000  0.750000000  0.450914912
     0.000000000  0.500000000  0.450914912
     0.749835921  0.500048162  0.549820119
     0.999958529  0.749997435  0.549735695
     0.750101626  0.750054667  0.647430673
     0.000077139  0.500070921  0.647305246
     0.250000000  0.000000000  0.450914912
     0.500000000  0.250000000  0.450914912
     0.250000000  0.250000000  0.352744737
     0.500000000  0.000000000  0.352744737
     0.249959861  0.000127437  0.649691132
     0.500246441  0.249445664  0.649747587
     0.250047349  0.250030821  0.549494390
     0.500029951  0.000104006  0.549430974
     0.250000000  0.500000000  0.450914912
     0.500000000  0.750000000  0.450914912
     0.250000000  0.750000000  0.352744737
     0.500000000  0.500000000  0.352744737
     0.249417013  0.500232326  0.649669783
     0.499883207  0.750854626  0.649560927
     0.249945375  0.750138149  0.549430882
     0.500045343  0.500047695  0.549723438
     0.750000000  0.000000000  0.450914912
     0.000000000  0.250000000  0.450914912
     0.750000000  0.250000000  0.352744737
     0.000000000  0.000000000  0.352744737
     0.750189444  0.000059507  0.649696428
     0.000134156  0.249951588  0.649690601
     0.750121020  0.249918802  0.549424678
     0.000045944  0.000054365  0.549469901
     0.750000000  0.500000000  0.450914912
     0.000000000  0.750000000  0.450914912
     0.750000000  0.750000000  0.352744737
     0.000000000  0.500000000  0.352744737
     0.750907812  0.499871295  0.649453742
     0.000072983  0.750192905  0.649707517
     0.750074533  0.750094640  0.549481627
     0.000123705  0.500041535  0.549400293

  ion indices of the primitive-cell ions
   primitive index   ion index
                 1           1
                 2           2
                 3           3
                 4           4
                 5           5
                 6           6
                 7           7
                 8           8
                 9           9
                10          10
                11          11
                12          12
                13          13
                14          14
                15          15
                16          16
                17          17
                18          18
                19          19
                20          20
                21          21
                22          22
                23          23
                24          24
                25          25
                26          26
                27          27
                28          28
                29          29
                30          30
                31          31
                32          32
                33          33
                34          34
                35          35
                36          36
                37          37
                38          38
                39          39
                40          40
                41          41
                42          42
                43          43
                44          44
                45          45
                46          46
                47          47
                48          48
                49          49
                50          50
                51          51
                52          52
                53          53
                54          54
                55          55
                56          56
                57          57
                58          58
                59          59
                60          60
                61          61
                62          62
                63          63
                64          64
                65          65
                66          66

----------------------------------------------------------------------------------------



 KPOINTS: pymatgen v2020.8.13 with grid density = 

Automatic generation of k-mesh.
 Grid dimensions read from file:
 generate k-points for:    2    2    1

 Generating k-lattice:

  Cartesian coordinates                     Fractional coordinates (reciprocal lattice)
     0.059886610  0.000000000  0.000000000     0.500000000  0.000000000  0.000000000
     0.000000000  0.059886610  0.000000000     0.000000000  0.500000000  0.000000000
     0.000000000  0.000000000  0.047032632     0.000000000  0.000000000  1.000000000

  Length of vectors
     0.059886610  0.059886610  0.047032632

  Shift w.r.t. Gamma in fractional coordinates (k-lattice)
     0.000000000  0.000000000  0.000000000

 
 Subroutine IBZKPT returns following result:
 ===========================================
 
 Found      4 irreducible k-points:
 
 Following reciprocal coordinates:
            Coordinates               Weight
  0.000000  0.000000  0.000000      1.000000
  0.500000  0.000000  0.000000      1.000000
  0.000000  0.500000  0.000000      1.000000
  0.500000  0.500000  0.000000      1.000000
 
 Following cartesian coordinates:
            Coordinates               Weight
  0.000000  0.000000  0.000000      1.000000
  0.059887  0.000000  0.000000      1.000000
  0.000000  0.059887  0.000000      1.000000
  0.059887  0.059887  0.000000      1.000000
 


--------------------------------------------------------------------------------------------------------




 Dimension of arrays:
   k-points           NKPTS =      4   k-points in BZ     NKDIM =      4   number of bands    NBANDS=    320
   number of dos      NEDOS =    301   number of ions     NIONS =     66
   non local maximal  LDIM  =      5   non local SUM 2l+1 LMDIM =     13
   total plane-waves  NPLWV = 882000
   max r-space proj   IRMAX =      1   max aug-charges    IRDMAX=  11926
   dimension x,y,z NGX =    70 NGY =   70 NGZ =  180
   dimension x,y,z NGXF=   140 NGYF=  140 NGZF=  360
   support grid    NGXF=   140 NGYF=  140 NGZF=  360
   ions per type =               1   1  32  32
   NGX,Y,Z   is equivalent  to a cutoff of  13.94, 13.94, 14.07 a.u.
   NGXF,Y,Z  is equivalent  to a cutoff of  27.88, 27.88, 28.15 a.u.

 SYSTEM =  MgO-rocksalt                            
 POSCAR =   N  O Mg  O                             

--------------------------------------------------------------------------------------------------------


  energy-cutoff  :      600.00
  volume of cell :     1482.11
      direct lattice vectors                 reciprocal lattice vectors
     8.349111827  0.000000000  0.000000000     0.119773219  0.000000000  0.000000000
     0.000000000  8.349111827  0.000000000     0.000000000  0.119773219  0.000000000
     0.000000000  0.000000000 21.261833870     0.000000000  0.000000000  0.047032632

  length of vectors
     8.349111827  8.349111827 21.261833870     0.119773219  0.119773219  0.047032632



 k-points in units of 2pi/SCALE and weight: pymatgen v2020.8.13 with grid density = 
   0.00000000  0.00000000  0.00000000       0.250
   0.05988661  0.00000000  0.00000000       0.250
   0.00000000  0.05988661  0.00000000       0.250
   0.05988661  0.05988661  0.00000000       0.250

 k-points in reciprocal lattice and weights: pymatgen v2020.8.13 with grid density = 
   0.00000000  0.00000000  0.00000000       0.250
   0.50000000  0.00000000  0.00000000       0.250
   0.00000000  0.50000000  0.00000000       0.250
   0.50000000  0.50000000  0.00000000       0.250

 position of ions in fractional coordinates (direct lattice) 
   0.50118434  0.50146900  0.76530702
   0.42520374  0.43021318  0.80080851
   0.25000000  0.00000000  0.35274474
   0.50000000  0.25000000  0.35274474
   0.25000000  0.25000000  0.45091491
   0.50000000  0.00000000  0.45091491
   0.25009231  0.00010685  0.54972512
   0.50006447  0.25034187  0.54985631
   0.25000446  0.25003562  0.64734229
   0.50008288  0.00005340  0.64732529
   0.25000000  0.50000000  0.35274474
   0.50000000  0.75000000  0.35274474
   0.25000000  0.75000000  0.45091491
   0.50000000  0.50000000  0.45091491
   0.25033459  0.50006311  0.54985015
   0.50004982  0.74982232  0.54982787
   0.24988393  0.75029953  0.64714148
   0.50040549  0.50036312  0.64865177
   0.75000000  0.00000000  0.35274474
   0.00000000  0.25000000  0.35274474
   0.75000000  0.25000000  0.45091491
   0.00000000  0.00000000  0.45091491
   0.75000098  0.99996394  0.54973498
   0.00009755  0.25009678  0.54972093
   0.75032586  0.24992145  0.64714292
   0.00006489  0.00007167  0.64746112
   0.75000000  0.50000000  0.35274474
   0.00000000  0.75000000  0.35274474
   0.75000000  0.75000000  0.45091491
   0.00000000  0.50000000  0.45091491
   0.74983592  0.50004816  0.54982012
   0.99995853  0.74999744  0.54973569
   0.75010163  0.75005467  0.64743067
   0.00007714  0.50007092  0.64730525
   0.25000000  0.00000000  0.45091491
   0.50000000  0.25000000  0.45091491
   0.25000000  0.25000000  0.35274474
   0.50000000  0.00000000  0.35274474
   0.24995986  0.00012744  0.64969113
   0.50024644  0.24944566  0.64974759
   0.25004735  0.25003082  0.54949439
   0.50002995  0.00010401  0.54943097
   0.25000000  0.50000000  0.45091491
   0.50000000  0.75000000  0.45091491
   0.25000000  0.75000000  0.35274474
   0.50000000  0.50000000  0.35274474
   0.24941701  0.50023233  0.64966978
   0.49988321  0.75085463  0.64956093
   0.24994538  0.75013815  0.54943088
   0.50004534  0.50004770  0.54972344
   0.75000000  0.00000000  0.45091491
   0.00000000  0.25000000  0.45091491
   0.75000000  0.25000000  0.35274474
   0.00000000  0.00000000  0.35274474
   0.75018944  0.00005951  0.64969643
   0.00013416  0.24995159  0.64969060
   0.75012102  0.24991880  0.54942468
   0.00004594  0.00005437  0.54946990
   0.75000000  0.50000000  0.45091491
   0.00000000  0.75000000  0.45091491
   0.75000000  0.75000000  0.35274474
   0.00000000  0.50000000  0.35274474
   0.75090781  0.49987129  0.64945374
   0.00007298  0.75019290  0.64970752
   0.75007453  0.75009464  0.54948163
   0.00012371  0.50004153  0.54940029

 position of ions in cartesian coordinates  (Angst):
   4.18444411  4.18682075 16.27183069
   3.55007358  3.59189798 17.02665752
   2.08727796  0.00000000  7.50000000
   4.17455591  2.08727796  7.50000000
   2.08727796  2.08727796  9.58727796
   4.17455591  0.00000000  9.58727796
   2.08804862  0.00089210 11.68816413
   4.17509419  2.09013230 11.69095356
   2.08731519  2.08757533 13.76368425
   4.17524788  0.00044581 13.76332274
   2.08727796  4.17455591  7.50000000
   4.17455591  6.26183387  7.50000000
   2.08727796  6.26183387  9.58727796
   4.17455591  4.17455591  9.58727796
   2.09007150  4.17508281 11.69082245
   4.17497184  6.26035043 11.69034872
   2.08630889  6.26433464 13.75941464
   4.17794140  4.17758761 13.79152612
   6.26183387  0.00000000  7.50000000
   0.00000000  2.08727796  7.50000000
   6.26183387  2.08727796  9.58727796
   0.00000000  0.00000000  9.58727796
   6.26184208  8.34881079 11.68837381
   0.00081449  2.08808598 11.68807508
   6.26455448  2.08662212 13.75944531
   0.00054179  0.00059834 13.76621079
   6.26183387  4.17455591  7.50000000
   0.00000000  6.26183387  7.50000000
   6.26183387  6.26183387  9.58727796
   0.00000000  4.17455591  9.58727796
   6.26046396  4.17495802 11.69018403
   8.34876558  6.26181245 11.68838902
   6.26268236  6.26229029 13.76556341
   0.00064404  4.17514804 13.76289660
   2.08727796  0.00000000  9.58727796
   4.17455591  2.08727796  9.58727796
   2.08727796  2.08727796  7.50000000
   4.17455591  0.00000000  7.50000000
   2.08694283  0.00106399 13.81362492
   4.17661348  2.08264974 13.81482526
   2.08767328  2.08753529 11.68325843
   4.17480598  0.00086836 11.68191010
   2.08727796  4.17455591  9.58727796
   4.17455591  6.26183387  9.58727796
   2.08727796  6.26183387  7.50000000
   4.17455591  4.17455591  7.50000000
   2.08241054  4.17649563 13.81317099
   4.17358079  6.26896924 13.81085652
   2.08682189  6.26298730 11.68190814
   4.17493449  4.17495413 11.68812842
   6.26183387  0.00000000  9.58727796
   0.00000000  2.08727796  9.58727796
   6.26183387  2.08727796  7.50000000
   0.00000000  0.00000000  7.50000000
   6.26341556  0.00049683 13.81373751
   0.00112008  2.08687376 13.81361362
   6.26284428  2.08660003 11.68177623
   0.00038359  0.00045390 11.68273776
   6.26183387  4.17455591  9.58727796
   0.00000000  6.26183387  9.58727796
   6.26183387  6.26183387  7.50000000
   0.00000000  4.17455591  7.50000000
   6.26941330  4.17348134 13.80857757
   0.00060934  6.26344445 13.81397329
   6.26245615  6.26262403 11.68298707
   0.00103283  4.17490269 11.68125775



--------------------------------------------------------------------------------------------------------

--------------------------------------- Iteration      FINAL  ---------------------------------------


--------------------OUTCAR has been truncated-------------------------


--------------------OUTCAR has been truncated-------------------------


--------------------OUTCAR has been truncated-------------------------


--------------------OUTCAR has been truncated-------------------------


--------------------OUTCAR has been truncated-------------------------


--------------------OUTCAR has been truncated-------------------------


--------------------OUTCAR has been truncated-------------------------


--------------------OUTCAR has been truncated-------------------------


--------------------OUTCAR has been truncated-------------------------


--------------------OUTCAR has been truncated-------------------------


  DFT-D2 method for vdW energy calculation
  -------------------------------------------------------------------

  Parameters of vdW forcefield:
         C6(Jnm^6/mol)     R0(A)
   -----------------------------
   N        1.230          1.397
   O        0.700          1.342
   Mg       0.630          1.243
   O        0.700          1.342

  vdW correction parametrized for the method pbe       

  IVDW =   1
  VDW_RADIUS =    50.000 A
  VDW_S6 =     0.750
  VDW_SR =     1.000
  VDW_D =    20.000
  LVDW_EWALD = F

  Number of pair interactions contributing to vdW energy:  788724
  Edisp (eV):   -3.86394
    FORVDW:  cpu time      0.1151: real time      0.1151

  FORCE on cell =-STRESS in cart. coord.  units (eV):
  Direction    XX          YY          ZZ          XY          YZ          ZX
  --------------------------------------------------------------------------------------
  Alpha Z   933.41042   933.41042   933.41042
  Ewald  162900.87683162887.17812************   105.71470  -126.25615  -134.68953
  Hartree173220.63549173214.59849************    45.30764   -47.48318   -50.67302
  E(xc)   -2511.54626 -2511.59857 -2516.47152     0.41388    -0.41399    -0.44178
  Local  ************************345984.36985  -148.00264   156.97871   167.55551
  n-local -2841.69303 -2841.01269 -2866.81265    -5.43736     1.67865     1.81551
  augment  1054.02299  1053.96270  1045.33037     0.49112     0.68143     0.71898
  Kinetic  7546.55147  7546.32014  7590.77571     2.05808    14.02437    14.86294
  Fock        0.00000     0.00000     0.00000     0.00000     0.00000     0.00000
  vdW        -5.61305    -5.61307    -4.64280     0.00006     0.00073     0.00062
  -------------------------------------------------------------------------------------
  Total      -3.24073    -3.33805    16.36676     0.54548    -0.78942    -0.85076
  in kB      -3.50326    -3.60846    17.69261     0.58967    -0.85337    -0.91968
  external pressure =        3.53 kB  Pullay stress =        0.00 kB


 VOLUME and BASIS-vectors are now :
 -----------------------------------------------------------------------------
  energy-cutoff  :      600.00
  volume of cell :     1482.11
      direct lattice vectors                 reciprocal lattice vectors
     8.349111827  0.000000000  0.000000000     0.119773219  0.000000000  0.000000000
     0.000000000  8.349111827  0.000000000     0.000000000  0.119773219  0.000000000
     0.000000000  0.000000000 21.261833870     0.000000000  0.000000000  0.047032632

  length of vectors
     8.349111827  8.349111827 21.261833870     0.119773219  0.119773219  0.047032632


 FORCES acting on ions:
    Electron-Ion                     Ewald-Force                    Non-Local-Force
 -----------------------------------------------------------------------------------------------
   -.152E+03 -.142E+03 -.118E+04   0.177E+03 0.166E+03 0.116E+04   -.245E+02 -.230E+02 0.274E+02
   0.143E+03 0.134E+03 -.157E+04   -.178E+03 -.167E+03 0.161E+04   0.338E+02 0.317E+02 -.401E+02
   0.175E+00 0.392E-01 0.214E+04   -.175E+00 -.386E-01 -.213E+04   -.687E-04 -.487E-03 -.709E+01
   -.395E-01 0.197E+00 0.214E+04   0.393E-01 -.195E+00 -.213E+04   0.171E-03 -.116E-02 -.710E+01
   0.764E+00 0.820E+00 0.740E+03   -.753E+00 -.809E+00 -.741E+03   -.728E-02 -.748E-02 0.521E+00
   -.170E+00 0.179E+00 0.740E+03   0.174E+00 -.170E+00 -.741E+03   -.205E-02 -.597E-02 0.490E+00
   0.361E+01 0.801E+00 -.652E+03   -.362E+01 -.792E+00 0.653E+03   0.328E-02 -.804E-02 -.220E+00
   -.918E+00 0.598E+01 -.643E+03   0.909E+00 -.591E+01 0.644E+03   0.707E-02 -.712E-01 -.270E+00
   0.251E+02 0.255E+02 -.202E+04   -.251E+02 -.256E+02 0.201E+04   0.889E-01 0.694E-01 0.605E+01
   -.284E+01 0.494E+01 -.204E+04   0.284E+01 -.493E+01 0.203E+04   -.398E-02 0.329E-02 0.600E+01
   0.183E+00 -.387E-01 0.214E+04   -.182E+00 0.385E-01 -.213E+04   -.104E-02 0.172E-03 -.710E+01
   -.473E-01 -.196E+00 0.214E+04   0.472E-01 0.195E+00 -.213E+04   0.228E-06 0.843E-03 -.710E+01
   0.755E+00 -.803E+00 0.740E+03   -.755E+00 0.799E+00 -.741E+03   0.319E-03 0.262E-02 0.502E+00
   -.184E+00 -.175E+00 0.741E+03   0.182E+00 0.173E+00 -.742E+03   0.192E-02 0.165E-02 0.560E+00
   0.580E+01 -.872E+00 -.643E+03   -.574E+01 0.862E+00 0.643E+03   -.633E-01 0.819E-02 -.304E+00
   -.988E+00 -.591E+01 -.645E+03   0.994E+00 0.584E+01 0.645E+03   -.645E-02 0.716E-01 -.273E+00
   0.210E+02 -.238E+02 -.203E+04   -.211E+02 0.238E+02 0.202E+04   0.807E-01 -.510E-01 0.605E+01
   -.829E+01 -.770E+01 -.194E+04   0.825E+01 0.764E+01 0.194E+04   0.333E-01 0.404E-01 0.453E+01
   -.174E+00 0.461E-01 0.214E+04   0.174E+00 -.460E-01 -.213E+04   -.873E-04 0.188E-05 -.710E+01
   0.398E-01 0.188E+00 0.214E+04   -.392E-01 -.188E+00 -.213E+04   -.478E-03 -.220E-03 -.709E+01
   -.744E+00 0.796E+00 0.740E+03   0.740E+00 -.796E+00 -.741E+03   0.251E-02 0.631E-03 0.499E+00
   0.168E+00 0.176E+00 0.739E+03   -.168E+00 -.175E+00 -.739E+03   0.151E-05 -.139E-03 0.500E+00
   -.353E+01 0.892E+00 -.654E+03   0.354E+01 -.897E+00 0.654E+03   -.758E-02 0.603E-02 -.223E+00
   0.836E+00 0.371E+01 -.652E+03   -.828E+00 -.372E+01 0.653E+03   -.614E-02 0.296E-02 -.218E+00
   -.233E+02 0.211E+02 -.203E+04   0.234E+02 -.212E+02 0.202E+04   -.639E-01 0.549E-01 0.605E+01
   0.254E+01 0.241E+01 -.205E+04   -.254E+01 -.241E+01 0.205E+04   0.367E-02 0.761E-03 0.602E+01
   -.182E+00 -.465E-01 0.214E+04   0.181E+00 0.464E-01 -.213E+04   0.694E-03 0.499E-05 -.710E+01
   0.467E-01 -.188E+00 0.214E+04   -.467E-01 0.187E+00 -.213E+04   0.896E-06 0.353E-04 -.710E+01
   -.740E+00 -.786E+00 0.740E+03   0.740E+00 0.786E+00 -.740E+03   -.308E-03 -.514E-03 0.518E+00
   0.192E+00 -.168E+00 0.740E+03   -.183E+00 0.172E+00 -.741E+03   -.677E-02 -.225E-02 0.475E+00
   -.577E+01 -.932E+00 -.644E+03   0.570E+01 0.937E+00 0.645E+03   0.657E-01 -.628E-02 -.324E+00
   0.925E+00 -.370E+01 -.654E+03   -.931E+00 0.370E+01 0.654E+03   0.798E-02 -.189E-02 -.219E+00
   -.204E+02 -.205E+02 -.204E+04   0.205E+02 0.206E+02 0.203E+04   -.100E+00 -.789E-01 0.605E+01
   0.540E+01 -.270E+01 -.204E+04   -.540E+01 0.270E+01 0.203E+04   0.759E-02 -.408E-03 0.600E+01
   0.570E+00 0.111E+00 0.554E+03   -.571E+00 -.118E+00 -.554E+03   0.152E-02 0.945E-02 -.878E-01
   -.996E-01 0.698E+00 0.555E+03   0.979E-01 -.717E+00 -.555E+03   0.206E-02 0.245E-01 -.111E+00
   0.133E+00 0.144E+00 0.161E+04   -.132E+00 -.143E+00 -.161E+04   -.963E-03 -.130E-02 0.346E+01
   -.322E-01 0.318E-01 0.161E+04   0.323E-01 -.314E-01 -.161E+04   -.702E-04 -.682E-03 0.346E+01
   0.916E+01 0.333E+01 -.156E+04   -.913E+01 -.331E+01 0.156E+04   -.254E-01 -.216E-01 -.514E+01
   -.497E+01 0.311E+02 -.152E+04   0.496E+01 -.309E+02 0.152E+04   0.974E-02 -.256E+00 -.517E+01
   0.352E+01 0.363E+01 -.479E+03   -.351E+01 -.362E+01 0.478E+03   0.441E-03 -.786E-02 0.324E+00
   -.595E+00 0.691E+00 -.481E+03   0.597E+00 -.683E+00 0.480E+03   -.161E-02 -.127E-01 0.314E+00
   0.647E+00 -.982E-01 0.555E+03   -.667E+00 0.962E-01 -.555E+03   0.280E-01 0.252E-02 -.113E+00
   -.152E+00 -.678E+00 0.555E+03   0.149E+00 0.688E+00 -.555E+03   0.489E-02 -.131E-01 -.995E-01
   0.133E+00 -.144E+00 0.161E+04   -.133E+00 0.143E+00 -.161E+04   -.150E-03 0.170E-02 0.346E+01
   -.337E-01 -.325E-01 0.161E+04   0.329E-01 0.317E-01 -.161E+04   0.116E-02 0.108E-02 0.346E+01
   0.309E+02 -.476E+01 -.152E+04   -.307E+02 0.475E+01 0.152E+04   -.267E+00 0.916E-02 -.517E+01
   -.307E+01 -.292E+02 -.153E+04   0.306E+01 0.290E+02 0.153E+04   0.110E-01 0.195E+00 -.518E+01
   0.332E+01 -.358E+01 -.479E+03   -.332E+01 0.357E+01 0.479E+03   0.112E-01 0.369E-02 0.375E+00
   -.812E+00 -.764E+00 -.475E+03   0.811E+00 0.763E+00 0.475E+03   0.297E-02 0.433E-02 -.254E-01
   -.555E+00 0.148E+00 0.554E+03   0.552E+00 -.143E+00 -.554E+03   0.407E-02 -.582E-02 -.927E-01
   0.109E+00 0.616E+00 0.554E+03   -.116E+00 -.616E+00 -.554E+03   0.959E-02 -.108E-02 -.880E-01
   -.133E+00 0.142E+00 0.161E+04   0.132E+00 -.142E+00 -.161E+04   0.135E-02 -.417E-03 0.346E+01
   0.317E-01 0.318E-01 0.161E+04   -.319E-01 -.320E-01 -.161E+04   0.268E-03 0.254E-03 0.346E+01
   -.892E+01 0.241E+01 -.156E+04   0.889E+01 -.242E+01 0.157E+04   0.263E-01 0.487E-02 -.514E+01
   0.356E+01 0.930E+01 -.156E+04   -.355E+01 -.927E+01 0.156E+04   -.188E-01 -.316E-01 -.515E+01
   -.346E+01 0.339E+01 -.479E+03   0.346E+01 -.338E+01 0.479E+03   -.234E-02 0.287E-02 0.371E+00
   0.534E+00 0.537E+00 -.486E+03   -.534E+00 -.536E+00 0.486E+03   -.367E-03 -.219E-02 0.262E+00
   -.628E+00 -.150E+00 0.555E+03   0.640E+00 0.147E+00 -.555E+03   -.155E-01 0.518E-02 -.101E+00
   0.146E+00 -.607E+00 0.554E+03   -.142E+00 0.602E+00 -.554E+03   -.540E-02 0.745E-02 -.929E-01
   -.133E+00 -.142E+00 0.161E+04   0.133E+00 0.142E+00 -.161E+04   0.112E-03 0.362E-03 0.346E+01
   0.330E-01 -.321E-01 0.161E+04   -.325E-01 0.321E-01 -.161E+04   -.710E-03 -.172E-04 0.346E+01
   -.289E+02 -.283E+01 -.153E+04   0.287E+02 0.282E+01 0.153E+04   0.198E+00 0.120E-01 -.519E+01
   0.264E+01 -.907E+01 -.156E+04   -.265E+01 0.903E+01 0.157E+04   0.715E-02 0.314E-01 -.515E+01
   -.325E+01 -.334E+01 -.482E+03   0.324E+01 0.333E+01 0.481E+03   0.102E-02 0.800E-02 0.294E+00
   0.766E+00 -.557E+00 -.480E+03   -.761E+00 0.558E+00 0.480E+03   -.101E-01 -.172E-02 0.306E+00
 -----------------------------------------------------------------------------------------------
   -.929E+01 -.870E+01 0.329E+02   0.192E-12 -.461E-13 -.273E-11   0.929E+01 0.870E+01 -.329E+02


 POSITION                                       TOTAL-FORCE (eV/Angst)
 -----------------------------------------------------------------------------------
      4.18444      4.18682     16.27183         1.074927      1.010232     -1.306470
      3.55007      3.59190     17.02666        -1.071954     -1.005331      1.297474
      2.08728      0.00000      7.50000         0.000000      0.000125      0.190294
      4.17456      2.08728      7.50000        -0.000104      0.000332      0.190970
      2.08728      2.08728      9.58728         0.003486      0.003634      0.044353
      4.17456      0.00000      9.58728         0.000913      0.002604      0.045596
      2.08805      0.00089     11.68816        -0.007153      0.001274      0.032308
      4.17509      2.09013     11.69095        -0.000984     -0.000507      0.028074
      2.08732      2.08758     13.76368        -0.000728      0.000075      0.194943
      4.17525      0.00045     13.76332         0.000226      0.009496      0.197185
      2.08728      4.17456      7.50000         0.000275     -0.000107      0.191139
      4.17456      6.26183      7.50000        -0.000048     -0.000289      0.190287
      2.08728      6.26183      9.58728         0.000134     -0.001195      0.042292
      4.17456      4.17456      9.58728        -0.000341     -0.000306      0.056223
      2.09007      4.17508     11.69082        -0.000880     -0.001228      0.029199
      4.17497      6.26035     11.69035        -0.001003     -0.001357      0.014889
      2.08631      6.26433     13.75941        -0.006479     -0.003824      0.200756
      4.17794      4.17759     13.79153        -0.012681     -0.012710      0.255485
      6.26183      0.00000      7.50000        -0.000010      0.000009      0.190616
      0.00000      2.08728      7.50000         0.000120      0.000065      0.190399
      6.26183      2.08728      9.58728        -0.001139      0.000137      0.042077
      0.00000      0.00000      9.58728         0.000107      0.000136      0.044583
      6.26184      8.34881     11.68837         0.006187      0.001691      0.032017
      0.00081      2.08809     11.68808         0.001787     -0.006338      0.032657
      6.26455      2.08662     13.75945        -0.001843     -0.004912      0.201152
      0.00054      0.00060     13.76621         0.000014     -0.000137      0.181317
      6.26183      4.17456      7.50000        -0.000229     -0.000054      0.190409
      0.00000      6.26183      7.50000         0.000004     -0.000068      0.190663
      6.26183      6.26183      9.58728        -0.000567     -0.000560      0.042023
      0.00000      4.17456      9.58728         0.002872      0.000999      0.045279
      6.26046      4.17496     11.69018        -0.000052     -0.001297      0.017229
      8.34877      6.26181     11.68839         0.002125      0.005952      0.031602
      6.26268      6.26229     13.76556         0.010223      0.007770      0.200595
      0.00064      4.17515     13.76290         0.006210      0.000178      0.195666
      2.08728      0.00000      9.58728         0.000182      0.002523      0.073754
      4.17456      2.08728      9.58728         0.000348      0.006078      0.082081
      2.08728      2.08728      7.50000        -0.000283     -0.000374     -0.671238
      4.17456      0.00000      7.50000        -0.000032     -0.000215     -0.670964
      2.08694      0.00106     13.81362         0.003980     -0.002242      0.139153
      4.17661      2.08265     13.81483        -0.000519     -0.011461      0.123599
      2.08767      2.08754     11.68326         0.004565      0.003213     -0.009405
      4.17481      0.00087     11.68191         0.000901     -0.005000     -0.004485
      2.08728      4.17456      9.58728         0.007240      0.000509      0.080851
      4.17456      6.26183      9.58728         0.001247     -0.003371      0.082448
      2.08728      6.26183      7.50000        -0.000066      0.000478     -0.671047
      4.17456      4.17456      7.50000         0.000320      0.000294     -0.671477
      2.08241      4.17650     13.81317        -0.009400      0.000663      0.126427
      4.17358      6.26897     13.81086         0.002619      0.004550      0.135200
      2.08682      6.26299     11.68191         0.007873     -0.003341     -0.008602
      4.17493      4.17495     11.68813         0.002685      0.002903     -0.004352
      6.26183      0.00000      9.58728         0.001041     -0.001626      0.073403
      0.00000      2.08728      9.58728         0.002637     -0.000659      0.073186
      6.26183      2.08728      7.50000         0.000372     -0.000139     -0.671053
      0.00000      0.00000      7.50000         0.000055      0.000054     -0.671010
      6.26342      0.00050     13.81374        -0.003834     -0.003601      0.139081
      0.00112      2.08687     13.81361        -0.002328      0.002339      0.138124
      6.26284      2.08660     11.68178        -0.004636      0.007028     -0.008357
      0.00038      0.00045     11.68274         0.000226     -0.001097     -0.009349
      6.26183      4.17456      9.58728        -0.004198      0.001353      0.081302
      0.00000      6.26183      9.58728        -0.001453      0.002154      0.073439
      6.26183      6.26183      7.50000         0.000010      0.000082     -0.671020
      0.00000      4.17456      7.50000        -0.000217     -0.000015     -0.671163
      6.26941      4.17348     13.80858         0.004296      0.003646      0.137225
      0.00061      6.26344     13.81397        -0.003707     -0.002648      0.137391
      6.26246      6.26262     11.68299        -0.007982     -0.006678     -0.002597
      0.00103      4.17490     11.68126        -0.005359      0.000113     -0.003825
 -----------------------------------------------------------------------------------
    total drift:                                0.001309      0.001232      0.011400


--------------------------------------------------------------------------------------------------------



  FREE ENERGIE OF THE ION-ELECTRON SYSTEM (eV)
  ---------------------------------------------------
  free  energy   TOTEN  =      -388.37470702 eV

  energy  without entropy=     -388.37470702  energy(sigma->0) =     -388.37470702



--------------------------------------------------------------------------------------------------------


    POTLOK:  cpu time      0.5269: real time      0.5271


--------------------------------------------------------------------------------------------------------


     LOOP+:  cpu time    131.3560: real time    131.5464
    4ORBIT:  cpu time      0.0000: real time      0.0000

 total amount of memory used by VASP MPI-rank0    78069. kBytes
=======================================================================

   base      :      30000. kBytes
   nonl-proj :      16885. kBytes
   fftplans  :       4921. kBytes
   grid      :      13952. kBytes
   one-center:        146. kBytes
   wavefun   :      12165. kBytes

  
  
 General timing and accounting informations for this job:
 ========================================================
  
                  Total CPU time used (sec):      167.544
                            User time (sec):      166.104
                          System time (sec):        1.440
                         Elapsed time (sec):      177.725
  
                   Maximum memory used (kb):      186252.
                   Average memory used (kb):          N/A
  
                          Minor page faults:        40075
                          Major page faults:            0
                 Voluntary context switches:        12431
