 vasp.6.3.0 20Jan22 (build Apr  1 2022 16:44:48) gamma-only                      
 executed on        HPECrayEX_GCC date 2023.02.22  12:15:49
 running   64 mpi-ranks, with    1 threads/rank
 distrk:  each k-point on   64 cores,    1 groups
 distr:  one band on NCORE=   8 cores,    8 groups


--------------------------------------------------------------------------------------------------------


 INCAR:
   SYSTEM = MgO-rocksalt
   ISMEAR = 0
   SIGMA = 0.05
   EDIFF = 1E-6
   ALGO = ALL
   ISTART = 0
   IBRION = -1
   NSW = 0
   ISYM = 0
   DIPOL = 0.5 0.5 0.5
   IDIPOL = 3
   LDIPOL = .TRUE.
   GGA = RE
   IVDW = 13
   VDW_S8 = 1.7468
   VDW_A1 = 0.5363
   VDW_A2 = 3.0726
   ENCUT = 520
   PREC = Accurate
   LASPH = .TRUE.
   LREAL = Auto
   ISPIN = 1
   NELM = 200
   NELMIN = 8
   NCORE = 8
   KPAR = 1
   LWAVE = .FALSE.
   LCHARG = .FALSE.

 POTCAR:    PAW_PBE H 15Jun2001                   
 POTCAR:    PAW_PBE O 08Apr2002                   
 POTCAR:    PAW_PBE H 15Jun2001                   
   SHA256 =  030f79b5d3ab3cf0e668861823c8fb652ff669f3e15e46930bd03bfd63a607b6 H/POTCAR              
   COPYR  = (c) Copyright 15Jun2001 Georg Kresse                                                    
   COPYR  = This file is part of the software VASP. Any use, copying, and all other rights are regul
   COPYR  = If you do not have a valid VASP license, you may not use, copy or distribute this file. 
   VRHFIN =H: ultrasoft test                                                                        
   LEXCH  = PE                                                                                      
   EATOM  =    12.4884 eV,    0.9179 Ry                                                             
                                                                                                    
   TITEL  = PAW_PBE H 15Jun2001                                                                     
   LULTRA =        F    use ultrasoft PP ?                                                          
   IUNSCR =        0    unscreen: 0-lin 1-nonlin 2-no                                               
   RPACOR =    0.000    partial core radius                                                         
   POMASS =    1.000; ZVAL   =    1.000    mass and valenz                                          
   RCORE  =    1.100    outmost cutoff radius                                                       
   RWIGS  =    0.700; RWIGS  =    0.370    wigner-seitz radius (au A)                               
   ENMAX  =  250.000; ENMIN  =  200.000 eV                                                          
   RCLOC  =    0.701    cutoff for local pot                                                        
   LCOR   =        T    correct aug charges                                                         
   LPAW   =        T    paw PP                                                                      
   EAUG   =  400.000                                                                                
   RMAX   =    1.123    core radius for proj-oper                                                   
   RAUG   =    1.200    factor for augmentation sphere                                              
   RDEP   =    1.112    radius for radial grids                                                     
   RDEPT  =    0.926    core radius for aug-charge                                                  
                                                                                                    
   Atomic configuration                                                                             
    2 entries                                                                                       
     n  l   j            E        occ.                                                              
     1  0  0.50        -6.4927   1.0000                                                             
     2  1  0.50        -3.4015   0.0000                                                             
   Description                                                                                      
     l       E           TYP  RCUT    TYP  RCUT                                                     
     0     -6.4927494     23  1.100                                                                 
     0      6.8029130     23  1.100                                                                 
     1     -4.0817478     23  1.100                                                                 
  local pseudopotential read in
  atomic valenz-charges read in
  non local Contribution for L=           0  read in
    real space projection operators read in
  non local Contribution for L=           0  read in
    real space projection operators read in
  non local Contribution for L=           1  read in
    real space projection operators read in
    PAW grid and wavefunctions read in

   number of l-projection  operators is LMAX  =           3
   number of lm-projection operators is LMMAX =           5

 POTCAR:    PAW_PBE O 08Apr2002                   
   SHA256 =  818f92134a0a090dccd8ba1447fa70422a3b330e708bb4f08108d8ae51209ddf O/POTCAR              
   COPYR  = (c) Copyright 08Apr2002 Georg Kresse                                                    
   COPYR  = This file is part of the software VASP. Any use, copying, and all other rights are regul
   COPYR  = If you do not have a valid VASP license, you may not use, copy or distribute this file. 
   VRHFIN =O: s2p4                                                                                  
   LEXCH  = PE                                                                                      
   EATOM  =   432.3788 eV,   31.7789 Ry                                                             
                                                                                                    
   TITEL  = PAW_PBE O 08Apr2002                                                                     
   LULTRA =        F    use ultrasoft PP ?                                                          
   IUNSCR =        1    unscreen: 0-lin 1-nonlin 2-no                                               
   RPACOR =    1.200    partial core radius                                                         
   POMASS =   16.000; ZVAL   =    6.000    mass and valenz                                          
   RCORE  =    1.520    outmost cutoff radius                                                       
   RWIGS  =    1.550; RWIGS  =    0.820    wigner-seitz radius (au A)                               
   ENMAX  =  400.000; ENMIN  =  300.000 eV                                                          
   ICORE  =        2    local potential                                                             
   LCOR   =        T    correct aug charges                                                         
   LPAW   =        T    paw PP                                                                      
   EAUG   =  605.392                                                                                
   DEXC   =    0.000                                                                                
   RMAX   =    1.553    core radius for proj-oper                                                   
   RAUG   =    1.300    factor for augmentation sphere                                              
   RDEP   =    1.550    radius for radial grids                                                     
   RDEPT  =    1.329    core radius for aug-charge                                                  
                                                                                                    
   Atomic configuration                                                                             
    4 entries                                                                                       
     n  l   j            E        occ.                                                              
     1  0  0.50      -514.6923   2.0000                                                             
     2  0  0.50       -23.9615   2.0000                                                             
     2  1  0.50        -9.0305   4.0000                                                             
     3  2  1.50        -9.5241   0.0000                                                             
   Description                                                                                      
     l       E           TYP  RCUT    TYP  RCUT                                                     
     0    -23.9615318     23  1.200                                                                 
     0     -9.5240782     23  1.200                                                                 
     1     -9.0304911     23  1.520                                                                 
     1      8.1634956     23  1.520                                                                 
     2     -9.5240782      7  1.500                                                                 
  local pseudopotential read in
  partial core-charges read in
  partial kinetic energy density read in
  kinetic energy density of atom read in
  atomic valenz-charges read in
  non local Contribution for L=           0  read in
    real space projection operators read in
  non local Contribution for L=           0  read in
    real space projection operators read in
  non local Contribution for L=           1  read in
    real space projection operators read in
  non local Contribution for L=           1  read in
    real space projection operators read in
    PAW grid and wavefunctions read in

   number of l-projection  operators is LMAX  =           4
   number of lm-projection operators is LMMAX =           8

 Optimization of the real space projectors (new method)

 maximal supplied QI-value         = 34.20
 optimisation between [QCUT,QGAM] = [ 11.63, 23.26] = [ 37.87,151.49] Ry 
 Optimized for a Real-space Cutoff    1.21 Angstroem

   l    n(q)    QCUT    max X(q) W(low)/X(q) W(high)/X(q)  e(spline) 
   0      8    11.629    19.460    0.17E-03    0.34E-03    0.21E-06
   0      8    11.629    12.209    0.16E-03    0.33E-03    0.21E-06
   1      8    11.629     4.655    0.18E-03    0.16E-03    0.26E-06
 Optimization of the real space projectors (new method)

 maximal supplied QI-value         = 24.76
 optimisation between [QCUT,QGAM] = [ 11.64, 23.27] = [ 37.91,151.63] Ry 
 Optimized for a Real-space Cutoff    1.14 Angstroem

   l    n(q)    QCUT    max X(q) W(low)/X(q) W(high)/X(q)  e(spline) 
   0      8    11.635    20.381    0.10E-03    0.33E-03    0.24E-06
   0      8    11.635    15.268    0.11E-03    0.35E-03    0.26E-06
   1      7    11.635     5.964    0.24E-03    0.31E-03    0.30E-06
   1      7    11.635     5.382    0.22E-03    0.25E-03    0.26E-06
 -----------------------------------------------------------------------------
|                                                                             |
|               ----> ADVICE to this user running VASP <----                  |
|                                                                             |
|     You enforced a specific xc type in the INCAR file but a different       |
|     type was found in the POTCAR file.                                      |
|     I HOPE YOU KNOW WHAT YOU ARE DOING!                                     |
|                                                                             |
 -----------------------------------------------------------------------------

  PAW_PBE H 15Jun2001                   :
 energy of atom  1       EATOM=  -12.4884
 kinetic energy error for atom=    0.0014 (will be added to EATOM!!)
  PAW_PBE O 08Apr2002                   :
 energy of atom  2       EATOM= -432.3788
 kinetic energy error for atom=    0.0208 (will be added to EATOM!!)


 POSCAR:  H  O
  positions in direct lattice
  No initial velocities read in
 -----------------------------------------------------------------------------
|                                                                             |
|           W    W    AA    RRRRR   N    N  II  N    N   GGGG   !!!           |
|           W    W   A  A   R    R  NN   N  II  NN   N  G    G  !!!           |
|           W    W  A    A  R    R  N N  N  II  N N  N  G       !!!           |
|           W WW W  AAAAAA  RRRRR   N  N N  II  N  N N  G  GGG   !            |
|           WW  WW  A    A  R   R   N   NN  II  N   NN  G    G                |
|           W    W  A    A  R    R  N    N  II  N    N   GGGG   !!!           |
|                                                                             |
|     Specifying the vdW parameters                                           |
|     VDW_S8 = 1.747                                                          |
|     VDW_A1 = 0.536                                                          |
|     VDW_A2 = 3.073                                                          |
|     in the INCAR file will overwrite the defaults for revpbe. Please        |
|     make sure that is what you intended.                                    |
|                                                                             |
 -----------------------------------------------------------------------------

 exchange correlation table for  LEXCH =       40
   RHO(1)=    0.500       N(1)  =     2000
   RHO(2)=  100.500       N(2)  =     4000



--------------------------------------------------------------------------------------------------------


 ion  position               nearest neighbor table
   1  0.409  0.429  0.767-   9 0.98
   2  0.326  0.391  0.772-   9 0.97
   3  0.591  0.324  0.768-  10 0.98
   4  0.675  0.361  0.771-  10 0.97
   5  0.448  0.287  0.768-  11 0.98
   6  0.485  0.203  0.774-  11 0.97
   7  0.553  0.470  0.768-  12 0.98
   8  0.514  0.553  0.768-  12 0.97
   9  0.380  0.380  0.760-   2 0.97   1 0.98
  10  0.621  0.372  0.760-   4 0.97   3 0.98
  11  0.496  0.256  0.760-   6 0.97   5 0.98
  12  0.504  0.498  0.760-   8 0.97   7 0.98


IMPORTANT INFORMATION: All symmetrisations will be switched off!
NOSYMM: (Re-)initialisation of all symmetry stuff for point group C_1.


----------------------------------------------------------------------------------------

                                     Primitive cell                                     

  volume of cell :    6254.6868

  direct lattice vectors                    reciprocal lattice vectors
    17.092227251  0.000000000  0.000000000     0.058506126  0.000000000  0.000000000
     0.000000000 17.092227251  0.000000000     0.000000000  0.058506126  0.000000000
     0.000000000  0.000000000 21.409585219     0.000000000  0.000000000  0.046708051

  length of vectors
    17.092227251 17.092227251 21.409585219     0.058506126  0.058506126  0.046708051

  position of ions in fractional coordinates (direct lattice)
     0.409076971  0.428917526  0.767209222
     0.325586001  0.390575205  0.771685312
     0.591133831  0.324266158  0.768161446
     0.675373926  0.361205236  0.771107606
     0.448488456  0.286692773  0.767903234
     0.485206472  0.202629170  0.773757645
     0.552968238  0.469718933  0.767511702
     0.514060380  0.553217635  0.768086862
     0.379767789  0.380173824  0.760268664
     0.621204608  0.372242414  0.760035662
     0.496282341  0.255995863  0.760499759
     0.503940548  0.498088864  0.759691134

  ion indices of the primitive-cell ions
   primitive index   ion index
                 1           1
                 2           2
                 3           3
                 4           4
                 5           5
                 6           6
                 7           7
                 8           8
                 9           9
                10          10
                11          11
                12          12

----------------------------------------------------------------------------------------



 KPOINTS: pymatgen v2020.8.13 with grid density = 

Automatic generation of k-mesh.
 Grid dimensions read from file:
 generate k-points for:    1    1    1

 Generating k-lattice:

  Cartesian coordinates                     Fractional coordinates (reciprocal lattice)
     0.058506126  0.000000000  0.000000000     1.000000000  0.000000000  0.000000000
     0.000000000  0.058506126  0.000000000     0.000000000  1.000000000  0.000000000
     0.000000000  0.000000000  0.046708051     0.000000000  0.000000000  1.000000000

  Length of vectors
     0.058506126  0.058506126  0.046708051

  Shift w.r.t. Gamma in fractional coordinates (k-lattice)
     0.000000000  0.000000000  0.000000000

 
 Subroutine IBZKPT returns following result:
 ===========================================
 
 Found      1 irreducible k-points:
 
 Following reciprocal coordinates:
            Coordinates               Weight
  0.000000  0.000000  0.000000      1.000000
 
 Following cartesian coordinates:
            Coordinates               Weight
  0.000000  0.000000  0.000000      1.000000
 


--------------------------------------------------------------------------------------------------------




 Dimension of arrays:
   k-points           NKPTS =      1   k-points in BZ     NKDIM =      1   number of bands    NBANDS=     24
   number of dos      NEDOS =    301   number of ions     NIONS =     12
   non local maximal  LDIM  =      4   non local SUM 2l+1 LMDIM =      8
   total plane-waves  NPLWV = ******
   max r-space proj   IRMAX =   3166   max aug-charges    IRDMAX=   5636
   dimension x,y,z NGX =   128 NGY =  128 NGZ =  160
   dimension x,y,z NGXF=   256 NGYF=  256 NGZF=  320
   support grid    NGXF=   256 NGYF=  256 NGZF=  320
   ions per type =               8   4
   NGX,Y,Z   is equivalent  to a cutoff of  12.45, 12.45, 12.42 a.u.
   NGXF,Y,Z  is equivalent  to a cutoff of  24.90, 24.90, 24.85 a.u.

 SYSTEM =  MgO-rocksalt                            
 POSCAR =   H  O                                   

--------------------------------------------------------------------------------------------------------


  energy-cutoff  :      520.00
  volume of cell :     6254.69
      direct lattice vectors                 reciprocal lattice vectors
    17.092227251  0.000000000  0.000000000     0.058506126  0.000000000  0.000000000
     0.000000000 17.092227251  0.000000000     0.000000000  0.058506126  0.000000000
     0.000000000  0.000000000 21.409585219     0.000000000  0.000000000  0.046708051

  length of vectors
    17.092227251 17.092227251 21.409585219     0.058506126  0.058506126  0.046708051



 k-points in units of 2pi/SCALE and weight: pymatgen v2020.8.13 with grid density = 
   0.00000000  0.00000000  0.00000000       1.000

 k-points in reciprocal lattice and weights: pymatgen v2020.8.13 with grid density = 
   0.00000000  0.00000000  0.00000000       1.000

 position of ions in fractional coordinates (direct lattice) 
   0.40907697  0.42891753  0.76720922
   0.32558600  0.39057521  0.77168531
   0.59113383  0.32426616  0.76816145
   0.67537393  0.36120524  0.77110761
   0.44848846  0.28669277  0.76790323
   0.48520647  0.20262917  0.77375764
   0.55296824  0.46971893  0.76751170
   0.51406038  0.55321764  0.76808686
   0.37976779  0.38017382  0.76026866
   0.62120461  0.37224241  0.76003566
   0.49628234  0.25599586  0.76049976
   0.50394055  0.49808886  0.75969113

 position of ions in cartesian coordinates  (Angst):
   6.99203655  7.33115583 16.42563123
   5.56498992  6.67580017 16.52146244
  10.10379378  5.54243086 16.44601795
  11.54364462  6.17380197 16.50909400
   7.66566661  4.90021803 16.44048974
   8.29325929  3.46338383 16.56583024
   9.45145879  8.02854275 16.43210719
   8.78643684  9.45572154 16.44442113
   6.49107735  6.49801739 16.27703676
  10.61777033  6.36245193 16.27204828
   8.48257056  4.37553947 16.28198439
   8.61346637  8.51344806 16.26467208



--------------------------------------------------------------------------------------------------------


--------------------------------------- Iteration      FINAL  ---------------------------------------


--------------------OUTCAR has been truncated-------------------------


--------------------OUTCAR has been truncated-------------------------


--------------------OUTCAR has been truncated-------------------------


--------------------OUTCAR has been truncated-------------------------


--------------------OUTCAR has been truncated-------------------------


--------------------OUTCAR has been truncated-------------------------


--------------------OUTCAR has been truncated-------------------------


--------------------OUTCAR has been truncated-------------------------


--------------------OUTCAR has been truncated-------------------------


--------------------OUTCAR has been truncated-------------------------



  FORCE on cell =-STRESS in cart. coord.  units (eV):
  Direction    XX          YY          ZZ          XY          YZ          ZX
  --------------------------------------------------------------------------------------
  Alpha Z     0.57365     0.57365     0.57365
  Ewald     931.56670   934.14008  -524.36565     0.32620   -15.61219    -3.69501
  Hartree  1337.07407  1339.56476   250.48534     0.14606    -5.89212    -1.33235
  E(xc)    -144.90923  -144.90798  -147.10853     0.00295    -0.05768    -0.01595
  Local   -2599.41903 -2604.60197  -153.11913    -0.48400    18.29687     4.15116
  n-local  -121.36932  -121.38004  -122.54344     0.00099    -0.05450     0.01950
  augment    25.55982    25.56749    31.98855    -0.00096     0.21483     0.05882
  Kinetic   569.80736   569.88670   663.77449     0.00708     3.10647     0.80775
  Fock        0.00000     0.00000     0.00000     0.00000     0.00000     0.00000
  vdW        -0.32068    -0.32147    -0.00003    -0.00001     0.00189     0.00046
  -------------------------------------------------------------------------------------
  Total      -1.43666    -1.47879    -0.31474    -0.00170     0.00356    -0.00562
  in kB      -0.36801    -0.37880    -0.08062    -0.00044     0.00091    -0.00144
  external pressure =       -0.28 kB  Pullay stress =        0.00 kB


 VOLUME and BASIS-vectors are now :
 -----------------------------------------------------------------------------
  energy-cutoff  :      520.00
  volume of cell :     6254.69
      direct lattice vectors                 reciprocal lattice vectors
    17.092227251  0.000000000  0.000000000     0.058506126  0.000000000  0.000000000
     0.000000000 17.092227251  0.000000000     0.000000000  0.058506126  0.000000000
     0.000000000  0.000000000 21.409585219     0.000000000  0.000000000  0.046708051

  length of vectors
    17.092227251 17.092227251 21.409585219     0.058506126  0.058506126  0.046708051


 FORCES acting on ions:
    Electron-Ion                     Ewald-Force                    Non-Local-Force
 -----------------------------------------------------------------------------------------------
   -.146E+02 -.688E+02 -.144E+02   0.190E+02 0.755E+02 0.154E+02   -.440E+01 -.675E+01 -.109E+01
   0.101E+03 -.146E+02 -.224E+02   -.109E+03 0.159E+02 0.243E+02   0.790E+01 -.129E+01 -.198E+01
   0.154E+02 0.675E+02 -.168E+02   -.200E+02 -.741E+02 0.180E+02   0.450E+01 0.664E+01 -.130E+01
   -.101E+03 0.156E+02 -.215E+02   0.109E+03 -.170E+02 0.234E+02   -.790E+01 0.138E+01 -.191E+01
   0.670E+02 -.161E+02 -.153E+02   -.736E+02 0.207E+02 0.163E+02   0.660E+01 -.457E+01 -.116E+01
   0.157E+02 0.100E+03 -.261E+02   -.171E+02 -.108E+03 0.284E+02   0.139E+01 0.780E+01 -.231E+01
   -.699E+02 0.136E+02 -.162E+02   0.767E+02 -.180E+02 0.173E+02   -.682E+01 0.429E+01 -.127E+01
   -.141E+02 -.102E+03 -.161E+02   0.154E+02 0.110E+03 0.175E+02   -.124E+01 -.801E+01 -.143E+01
   0.124E+03 0.353E+02 0.226E+02   -.106E+03 -.717E+02 -.396E+02   -.178E+02 0.364E+02 0.171E+02
   -.123E+03 -.364E+02 0.237E+02   0.106E+03 0.729E+02 -.413E+02   0.175E+02 -.364E+02 0.178E+02
   -.355E+02 0.126E+03 0.248E+02   0.717E+02 -.109E+03 -.438E+02   -.361E+02 -.165E+02 0.191E+02
   0.356E+02 -.122E+03 0.210E+02   -.722E+02 0.103E+03 -.360E+02   0.365E+02 0.191E+02 0.152E+02
 -----------------------------------------------------------------------------------------------
   -.144E+00 -.219E+01 -.568E+02   0.142E-13 -.284E-13 -.711E-14   0.146E+00 0.219E+01 0.568E+02


 POSITION                                       TOTAL-FORCE (eV/Angst)
 -----------------------------------------------------------------------------------
      6.99204      7.33116     16.42563         0.047178     -0.071337     -0.116315
      5.56499      6.67580     16.52146         0.247378      0.030075     -0.020188
     10.10379      5.54243     16.44602        -0.051683      0.042666     -0.128810
     11.54364      6.17380     16.50909        -0.250647     -0.036585     -0.017435
      7.66567      4.90022     16.44049         0.044878      0.039757     -0.118516
      8.29326      3.46338     16.56583        -0.031059      0.232487     -0.022450
      9.45146      8.02854     16.43211        -0.060030     -0.066608     -0.125838
      8.78644      9.45572     16.44442         0.036994     -0.281001     -0.011468
      6.49108      6.49802     16.27704        -0.111107     -0.024529      0.140445
     10.61777      6.36245     16.27205         0.128217      0.079809      0.143277
      8.48257      4.37554     16.28198         0.057650     -0.102614      0.143322
      8.61347      8.51345     16.26467        -0.057769      0.157879      0.133975
 -----------------------------------------------------------------------------------
    total drift:                                0.001469     -0.000178      0.001916


--------------------------------------------------------------------------------------------------------



  FREE ENERGIE OF THE ION-ELECTRON SYSTEM (eV)
  ---------------------------------------------------
  free  energy   TOTEN  =       -57.75098523 eV

  energy  without entropy=      -57.75098523  energy(sigma->0) =      -57.75098523



--------------------------------------------------------------------------------------------------------


    POTLOK:  cpu time      0.3754: real time      0.3755


--------------------------------------------------------------------------------------------------------


     LOOP+:  cpu time     17.2166: real time     17.5475
    4ORBIT:  cpu time      0.0000: real time      0.0000

 total amount of memory used by VASP MPI-rank0    81233. kBytes
=======================================================================

   base      :      30000. kBytes
   nonlr-proj:        227. kBytes
   fftplans  :      17917. kBytes
   grid      :      31571. kBytes
   one-center:          3. kBytes
   wavefun   :       1515. kBytes

  
  
 General timing and accounting informations for this job:
 ========================================================
  
                  Total CPU time used (sec):       24.826
                            User time (sec):       23.253
                          System time (sec):        1.572
                         Elapsed time (sec):       27.201
  
                   Maximum memory used (kb):      173772.
                   Average memory used (kb):          N/A
  
                          Minor page faults:        26407
                          Major page faults:           47
                 Voluntary context switches:         2357
