 vasp.6.3.0 20Jan22 (build Aug 21 2024 11:13:42) complex                         
 executed on        HPECrayEX_GCC date 2024.11.26  19:13:17
 running  512 mpi-ranks, with    1 threads/rank
 distrk:  each k-point on  512 cores,    1 groups
 distr:  one band on NCORE=  16 cores,   32 groups


--------------------------------------------------------------------------------------------------------


 INCAR:
   SYSTEM = TiO2
   ISMEAR = 0
   SIGMA = 0.05
   EDIFF = 1E-4
   ALGO = ALL
   ISTART = 0
   IBRION = -1
   NSW = 0
   ISYM = 0
   ISIF = 2
   EDIFFG = -0.01
   DIPOL = 0.5 0.5 0.5
   IDIPOL = 3
   LDIPOL = .TRUE.
   GGA = RE
   IVDW = 13
   VDW_S8 = 1.7468
   VDW_A1 = 0.5363
   VDW_A2 = 3.0726
   ENCUT = 600
   PREC = Accurate
   LASPH = .TRUE.
   LREAL = .FALSE.
   ISPIN = 1
   NELM = 200
   NELMIN = 8
   NCORE = 16
   KPAR = 1
   LWAVE = .FALSE.
   LCHARG = .FALSE.

 POTCAR:    PAW_PBE C 08Apr2002                   
 POTCAR:    PAW_PBE O 08Apr2002                   
 POTCAR:    PAW_PBE Ti_pv 07Sep2000               
 POTCAR:    PAW_PBE O 08Apr2002                   
 POTCAR:    PAW_PBE C 08Apr2002                   
   SHA256 =  253f7b50bb8d59471dbedb8285d89021f4a42ed1a2c5d38a03a736e69125dd95 C/POTCAR              
   COPYR  = (c) Copyright 08Apr2002 Georg Kresse                                                    
   COPYR  = This file is part of the software VASP. Any use, copying, and all other rights are regul
   COPYR  = If you do not have a valid VASP license, you may not use, copy or distribute this file. 
   VRHFIN =C: s2p2                                                                                  
   LEXCH  = PE                                                                                      
   EATOM  =   147.1560 eV,   10.8157 Ry                                                             
                                                                                                    
   TITEL  = PAW_PBE C 08Apr2002                                                                     
   LULTRA =        F    use ultrasoft PP ?                                                          
   IUNSCR =        1    unscreen: 0-lin 1-nonlin 2-no                                               
   RPACOR =    1.200    partial core radius                                                         
   POMASS =   12.011; ZVAL   =    4.000    mass and valenz                                          
   RCORE  =    1.500    outmost cutoff radius                                                       
   RWIGS  =    1.630; RWIGS  =    0.863    wigner-seitz radius (au A)                               
   ENMAX  =  400.000; ENMIN  =  300.000 eV                                                          
   ICORE  =        2    local potential                                                             
   LCOR   =        T    correct aug charges                                                         
   LPAW   =        T    paw PP                                                                      
   EAUG   =  644.873                                                                                
   DEXC   =    0.000                                                                                
   RMAX   =    1.529    core radius for proj-oper                                                   
   RAUG   =    1.300    factor for augmentation sphere                                              
   RDEP   =    1.501    radius for radial grids                                                     
   RDEPT  =    1.300    core radius for aug-charge                                                  
                                                                                                    
   Atomic configuration                                                                             
    4 entries                                                                                       
     n  l   j            E        occ.                                                              
     1  0  0.50      -273.3789   2.0000                                                             
     2  0  0.50       -13.7508   2.0000                                                             
     2  1  0.50        -5.2854   2.0000                                                             
     3  2  1.50        -5.4423   0.0000                                                             
   Description                                                                                      
     l       E           TYP  RCUT    TYP  RCUT                                                     
     0    -13.7508458     23  1.200                                                                 
     0     -8.2022199     23  1.200                                                                 
     1     -5.2854383     23  1.500                                                                 
     1     34.0145650     23  1.500                                                                 
     2     -5.4423304      7  1.500                                                                 
  local pseudopotential read in
  partial core-charges read in
  partial kinetic energy density read in
  atomic valenz-charges read in
  non local Contribution for L=           0  read in
    real space projection operators read in
  non local Contribution for L=           0  read in
    real space projection operators read in
  non local Contribution for L=           1  read in
    real space projection operators read in
  non local Contribution for L=           1  read in
    real space projection operators read in
    PAW grid and wavefunctions read in

   number of l-projection  operators is LMAX  =           4
   number of lm-projection operators is LMMAX =           8

 POTCAR:    PAW_PBE O 08Apr2002                   
   SHA256 =  818f92134a0a090dccd8ba1447fa70422a3b330e708bb4f08108d8ae51209ddf O/POTCAR              
   COPYR  = (c) Copyright 08Apr2002 Georg Kresse                                                    
   COPYR  = This file is part of the software VASP. Any use, copying, and all other rights are regul
   COPYR  = If you do not have a valid VASP license, you may not use, copy or distribute this file. 
   VRHFIN =O: s2p4                                                                                  
   LEXCH  = PE                                                                                      
   EATOM  =   432.3788 eV,   31.7789 Ry                                                             
                                                                                                    
   TITEL  = PAW_PBE O 08Apr2002                                                                     
   LULTRA =        F    use ultrasoft PP ?                                                          
   IUNSCR =        1    unscreen: 0-lin 1-nonlin 2-no                                               
   RPACOR =    1.200    partial core radius                                                         
   POMASS =   16.000; ZVAL   =    6.000    mass and valenz                                          
   RCORE  =    1.520    outmost cutoff radius                                                       
   RWIGS  =    1.550; RWIGS  =    0.820    wigner-seitz radius (au A)                               
   ENMAX  =  400.000; ENMIN  =  300.000 eV                                                          
   ICORE  =        2    local potential                                                             
   LCOR   =        T    correct aug charges                                                         
   LPAW   =        T    paw PP                                                                      
   EAUG   =  605.392                                                                                
   DEXC   =    0.000                                                                                
   RMAX   =    1.553    core radius for proj-oper                                                   
   RAUG   =    1.300    factor for augmentation sphere                                              
   RDEP   =    1.550    radius for radial grids                                                     
   RDEPT  =    1.329    core radius for aug-charge                                                  
                                                                                                    
   Atomic configuration                                                                             
    4 entries                                                                                       
     n  l   j            E        occ.                                                              
     1  0  0.50      -514.6923   2.0000                                                             
     2  0  0.50       -23.9615   2.0000                                                             
     2  1  0.50        -9.0305   4.0000                                                             
     3  2  1.50        -9.5241   0.0000                                                             
   Description                                                                                      
     l       E           TYP  RCUT    TYP  RCUT                                                     
     0    -23.9615318     23  1.200                                                                 
     0     -9.5240782     23  1.200                                                                 
     1     -9.0304911     23  1.520                                                                 
     1      8.1634956     23  1.520                                                                 
     2     -9.5240782      7  1.500                                                                 
  local pseudopotential read in
  partial core-charges read in
  partial kinetic energy density read in
  kinetic energy density of atom read in
  atomic valenz-charges read in
  non local Contribution for L=           0  read in
    real space projection operators read in
  non local Contribution for L=           0  read in
    real space projection operators read in
  non local Contribution for L=           1  read in
    real space projection operators read in
  non local Contribution for L=           1  read in
    real space projection operators read in
    PAW grid and wavefunctions read in

   number of l-projection  operators is LMAX  =           4
   number of lm-projection operators is LMMAX =           8

 POTCAR:    PAW_PBE Ti_pv 07Sep2000               
   SHA256 =  f757a1b2c6d082f4c628fa3d987464a8763bf92e53844ac0500b0e2ddc9ce5c0 Ti_pv/POTCAR          
   COPYR  = (c) Copyright 07Sep2000 Georg Kresse                                                    
   COPYR  = This file is part of the software VASP. Any use, copying, and all other rights are regul
   COPYR  = If you do not have a valid VASP license, you may not use, copy or distribute this file. 
   VRHFIN =Ti: d3 s1                                                                                
   LEXCH  = PE                                                                                      
   EATOM  =  1042.5995 eV,   76.6289 Ry                                                             
                                                                                                    
   TITEL  = PAW_PBE Ti_pv 07Sep2000                                                                 
   LULTRA =        F    use ultrasoft PP ?                                                          
   IUNSCR =        1    unscreen: 0-lin 1-nonlin 2-no                                               
   RPACOR =    2.200    partial core radius                                                         
   POMASS =   47.880; ZVAL   =   10.000    mass and valenz                                          
   RCORE  =    2.500    outmost cutoff radius                                                       
   RWIGS  =    2.500; RWIGS  =    1.323    wigner-seitz radius (au A)                               
   ENMAX  =  222.335; ENMIN  =  166.751 eV                                                          
   RCLOC  =    1.701    cutoff for local pot                                                        
   LCOR   =        T    correct aug charges                                                         
   LPAW   =        T    paw PP                                                                      
   EAUG   =  482.848                                                                                
   DEXC   =    0.000                                                                                
   RMAX   =    2.564    core radius for proj-oper                                                   
   RAUG   =    1.300    factor for augmentation sphere                                              
   RDEP   =    2.538    radius for radial grids                                                     
   RDEPT  =    1.952    core radius for aug-charge                                                  
                                                                                                    
   Atomic configuration                                                                             
    8 entries                                                                                       
     n  l   j            E        occ.                                                              
     1  0  0.50     -4865.3608   2.0000                                                             
     2  0  0.50      -533.1368   2.0000                                                             
     2  1  1.50      -440.5031   6.0000                                                             
     3  0  0.50       -59.3186   2.0000                                                             
     3  1  1.50       -35.7012   6.0000                                                             
     3  2  2.50        -1.9157   3.0000                                                             
     4  0  0.50        -3.7291   1.0000                                                             
     4  3  2.50        -1.3606   0.0000                                                             
   Description                                                                                      
     l       E           TYP  RCUT    TYP  RCUT                                                     
     1    -35.7012140     23  2.300                                                                 
     1     -1.3605826     23  2.300                                                                 
     2     -1.9156996     23  2.500                                                                 
     2     -0.4063033     23  2.500                                                                 
     0     -3.7290856     23  2.500                                                                 
     0     20.4087390     23  2.500                                                                 
  local pseudopotential read in
  partial core-charges read in
  partial kinetic energy density read in
  atomic valenz-charges read in
  non local Contribution for L=           1  read in
    real space projection operators read in
  non local Contribution for L=           1  read in
    real space projection operators read in
  non local Contribution for L=           2  read in
    real space projection operators read in
  non local Contribution for L=           2  read in
    real space projection operators read in
  non local Contribution for L=           0  read in
    real space projection operators read in
  non local Contribution for L=           0  read in
    real space projection operators read in
    PAW grid and wavefunctions read in

   number of l-projection  operators is LMAX  =           6
   number of lm-projection operators is LMMAX =          18

 POTCAR:    PAW_PBE O 08Apr2002                   
   SHA256 =  818f92134a0a090dccd8ba1447fa70422a3b330e708bb4f08108d8ae51209ddf O/POTCAR              
   COPYR  = (c) Copyright 08Apr2002 Georg Kresse                                                    
   COPYR  = This file is part of the software VASP. Any use, copying, and all other rights are regul
   COPYR  = If you do not have a valid VASP license, you may not use, copy or distribute this file. 
   VRHFIN =O: s2p4                                                                                  
   LEXCH  = PE                                                                                      
   EATOM  =   432.3788 eV,   31.7789 Ry                                                             
                                                                                                    
   TITEL  = PAW_PBE O 08Apr2002                                                                     
   LULTRA =        F    use ultrasoft PP ?                                                          
   IUNSCR =        1    unscreen: 0-lin 1-nonlin 2-no                                               
   RPACOR =    1.200    partial core radius                                                         
   POMASS =   16.000; ZVAL   =    6.000    mass and valenz                                          
   RCORE  =    1.520    outmost cutoff radius                                                       
   RWIGS  =    1.550; RWIGS  =    0.820    wigner-seitz radius (au A)                               
   ENMAX  =  400.000; ENMIN  =  300.000 eV                                                          
   ICORE  =        2    local potential                                                             
   LCOR   =        T    correct aug charges                                                         
   LPAW   =        T    paw PP                                                                      
   EAUG   =  605.392                                                                                
   DEXC   =    0.000                                                                                
   RMAX   =    1.553    core radius for proj-oper                                                   
   RAUG   =    1.300    factor for augmentation sphere                                              
   RDEP   =    1.550    radius for radial grids                                                     
   RDEPT  =    1.329    core radius for aug-charge                                                  
                                                                                                    
   Atomic configuration                                                                             
    4 entries                                                                                       
     n  l   j            E        occ.                                                              
     1  0  0.50      -514.6923   2.0000                                                             
     2  0  0.50       -23.9615   2.0000                                                             
     2  1  0.50        -9.0305   4.0000                                                             
     3  2  1.50        -9.5241   0.0000                                                             
   Description                                                                                      
     l       E           TYP  RCUT    TYP  RCUT                                                     
     0    -23.9615318     23  1.200                                                                 
     0     -9.5240782     23  1.200                                                                 
     1     -9.0304911     23  1.520                                                                 
     1      8.1634956     23  1.520                                                                 
     2     -9.5240782      7  1.500                                                                 
  local pseudopotential read in
  partial core-charges read in
  partial kinetic energy density read in
  kinetic energy density of atom read in
  atomic valenz-charges read in
  non local Contribution for L=           0  read in
    real space projection operators read in
  non local Contribution for L=           0  read in
    real space projection operators read in
  non local Contribution for L=           1  read in
    real space projection operators read in
  non local Contribution for L=           1  read in
    real space projection operators read in
    PAW grid and wavefunctions read in

   number of l-projection  operators is LMAX  =           4
   number of lm-projection operators is LMMAX =           8

 -----------------------------------------------------------------------------
|                                                                             |
|               ----> ADVICE to this user running VASP <----                  |
|                                                                             |
|     You have a (more or less) 'large supercell' and for larger cells it     |
|     might be more efficient to use real-space projection operators.         |
|     Therefore, try LREAL= Auto in the INCAR file.                           |
|     Mind: For very accurate calculation, you might also keep the            |
|     reciprocal projection scheme (i.e. LREAL=.FALSE.).                      |
|                                                                             |
 -----------------------------------------------------------------------------

 -----------------------------------------------------------------------------
|                                                                             |
|               ----> ADVICE to this user running VASP <----                  |
|                                                                             |
|     You enforced a specific xc type in the INCAR file but a different       |
|     type was found in the POTCAR file.                                      |
|     I HOPE YOU KNOW WHAT YOU ARE DOING!                                     |
|                                                                             |
 -----------------------------------------------------------------------------

  PAW_PBE C 08Apr2002                   :
 energy of atom  1       EATOM= -147.1560
 kinetic energy error for atom=    0.0057 (will be added to EATOM!!)
  PAW_PBE O 08Apr2002                   :
 energy of atom  2       EATOM= -432.3788
 kinetic energy error for atom=    0.0168 (will be added to EATOM!!)
  PAW_PBE Ti_pv 07Sep2000               :
 energy of atom  3       EATOM=-1042.5995
 kinetic energy error for atom=    0.0007 (will be added to EATOM!!)
  PAW_PBE O 08Apr2002                   :
 energy of atom  4       EATOM= -432.3788
 kinetic energy error for atom=    0.0168 (will be added to EATOM!!)


 POSCAR:  C  O Ti  O
  positions in direct lattice
  No initial velocities read in
 -----------------------------------------------------------------------------
|                                                                             |
|           W    W    AA    RRRRR   N    N  II  N    N   GGGG   !!!           |
|           W    W   A  A   R    R  NN   N  II  NN   N  G    G  !!!           |
|           W    W  A    A  R    R  N N  N  II  N N  N  G       !!!           |
|           W WW W  AAAAAA  RRRRR   N  N N  II  N  N N  G  GGG   !            |
|           WW  WW  A    A  R   R   N   NN  II  N   NN  G    G                |
|           W    W  A    A  R    R  N    N  II  N    N   GGGG   !!!           |
|                                                                             |
|     Specifying the vdW parameters                                           |
|     VDW_S8 = 1.747                                                          |
|     VDW_A1 = 0.536                                                          |
|     VDW_A2 = 3.073                                                          |
|     in the INCAR file will overwrite the defaults for revpbe. Please        |
|     make sure that is what you intended.                                    |
|                                                                             |
 -----------------------------------------------------------------------------

 exchange correlation table for  LEXCH =       40
   RHO(1)=    0.500       N(1)  =     2000
   RHO(2)=  100.500       N(2)  =     4000



--------------------------------------------------------------------------------------------------------


 ion  position               nearest neighbor table
   1  0.421  0.500  0.815-   2 1.16   3 1.18
   2  0.364  0.500  0.844-   1 1.16
   3  0.484  0.500  0.787-   1 1.18  83 2.35
   4  0.750  0.625  0.287-  85 1.95 145 1.95 144 1.95  84 1.95  87 1.97 166 1.97  14 2.96  34 2.96

   5  0.000  0.750  0.287-  86 1.95  87 1.95 106 1.95 107 1.95  88 1.97  35 2.96  15 2.96
   6  0.000  0.625  0.394-  88 1.95  89 1.95 148 1.95 149 1.95  90 1.97  91 1.97  16 2.96  36 2.96

   7  0.750  0.750  0.394-  90 1.95 110 1.95 171 1.95 191 1.95  92 1.97  85 1.97  17 2.96  37 2.96

   8  0.750  0.625  0.500-  92 1.95  93 1.95 152 1.95 153 1.95  95 1.97 174 1.97  18 2.96  38 2.96

   9  0.000  0.750  0.500-  94 1.95  95 1.95 114 1.95 115 1.95  89 1.97  96 1.99  19 2.96  39 2.96

  10  1.000  0.625  0.604- 156 1.90  96 1.90  98 1.95  99 1.95  97 2.01 157 2.01  20 2.96  40 2.96

  11  0.750  0.750  0.610- 100 1.87 179 1.97 199 1.97  98 1.97 118 1.97  93 2.09  41 2.96  21 2.96

  12  0.749  0.625  0.720- 101 1.83 161 1.83 182 2.02 103 2.03 160 2.09 100 2.09  22 2.96  42 2.96

  13  1.000  0.750  0.708-  97 1.81 123 1.94 122 1.94 103 1.94 102 1.95  23 2.96  43 2.96
  14  0.750  0.875  0.287-  85 1.95 105 1.95 104 1.95  84 1.95 107 1.97 186 1.97   4 2.96  24 2.96

  15  0.000  0.000  0.287- 106 1.95 107 1.95 126 1.95 127 1.95 108 1.97  25 2.96   5 2.96
  16  0.000  0.875  0.394-  88 1.95  89 1.95 108 1.95 109 1.95 110 1.97 111 1.97   6 2.96  26 2.96

  17  0.750  0.000  0.394- 110 1.95 130 1.95 191 1.95 211 1.95 112 1.97 105 1.97   7 2.96  27 2.96

  18  0.750  0.875  0.500-  92 1.95  93 1.95 112 1.95 113 1.95 115 1.97 194 1.97   8 2.96  28 2.96

  19  0.000  0.000  0.500- 114 1.95 115 1.95 134 1.95 135 1.95 109 1.97 116 1.99   9 2.96  29 2.96

  20  1.000  0.875  0.604-  96 1.90 116 1.90 118 1.95 119 1.95 117 2.01  97 2.01  30 2.96  10 2.96

  21  0.750  1.000  0.610- 120 1.87 219 1.97 199 1.97 138 1.97 118 1.97 113 2.09  11 2.96  31 2.96

  22  0.750  0.875  0.720- 121 1.83 101 1.83 202 2.02 123 2.03 120 2.09 100 2.09  32 2.96  12 2.96

  23  0.000  1.000  0.708- 117 1.81 142 1.94 122 1.94 143 1.94 123 1.94  33 2.96  13 2.96
  24  0.750  0.125  0.287- 105 1.95 125 1.95 124 1.95 104 1.95 127 1.97 206 1.97  14 2.96  34 2.96

  25  0.000  0.250  0.287- 126 1.95 127 1.95 146 1.95 147 1.95 128 1.97  35 2.96  15 2.96
  26  0.000  0.125  0.394- 108 1.95 109 1.95 128 1.95 129 1.95 130 1.97 131 1.97  16 2.96  36 2.96

  27  0.750  0.250  0.394- 130 1.95 150 1.95 211 1.95 231 1.95 132 1.97 125 1.97  17 2.96  37 2.96

  28  0.750  0.125  0.500- 112 1.95 113 1.95 132 1.95 133 1.95 135 1.97 214 1.97  18 2.96  38 2.96

  29  0.000  0.250  0.500- 134 1.95 135 1.95 154 1.95 155 1.95 129 1.97 136 1.99  19 2.96  39 2.96

  30  1.000  0.125  0.604- 136 1.90 116 1.90 138 1.95 139 1.95 117 2.01 137 2.01  20 2.96  40 2.96

  31  0.750  0.250  0.610- 140 1.87 239 1.97 219 1.97 158 1.97 138 1.97 133 2.09  41 2.96  21 2.96

  32  0.750  0.125  0.720- 121 1.83 141 1.83 222 2.02 143 2.03 120 2.09 140 2.09  22 2.96  42 2.96

  33  1.000  0.250  0.708- 137 1.81 143 1.94 142 1.94 163 1.94 162 1.95  23 2.96  43 2.96
  34  0.750  0.375  0.287- 125 1.95 145 1.95 144 1.95 124 1.95 147 1.97 226 1.97   4 2.96  24 2.96

  35  0.000  0.500  0.287-  86 1.95  87 1.95 146 1.95 147 1.95 148 1.97  25 2.96   5 2.96
  36  0.000  0.375  0.394- 128 1.95 129 1.95 148 1.95 149 1.95 150 1.97 151 1.97   6 2.96  26 2.96

  37  0.750  0.500  0.394-  90 1.95 150 1.95 171 1.95 231 1.95 152 1.97 145 1.97   7 2.96  27 2.96

  38  0.750  0.375  0.500- 132 1.95 133 1.95 152 1.95 153 1.95 155 1.97 234 1.97   8 2.96  28 2.96

  39  0.000  0.500  0.500-  94 1.95  95 1.95 154 1.95 155 1.95 149 1.97 156 1.99   9 2.96  29 2.96

  40  1.000  0.375  0.604- 156 1.90 136 1.90 158 1.95 159 1.95 137 2.01 157 2.01  30 2.96  10 2.96

  41  0.750  0.500  0.610- 160 1.87 239 1.97 179 1.97 158 1.97  98 1.97 153 2.09  11 2.96  31 2.96

  42  0.749  0.375  0.720- 141 1.83 161 1.83 242 2.02 163 2.03 160 2.09 140 2.09  32 2.96  12 2.96

  43  0.999  0.500  0.708- 157 1.81 103 1.94 163 1.94 102 1.95 162 1.95  33 2.96  13 2.96
  44  0.250  0.625  0.287- 165 1.95 225 1.95 224 1.95 164 1.95  86 1.97 167 1.97  54 2.96  74 2.96

  45  0.500  0.750  0.287- 166 1.95 167 1.95 186 1.95 187 1.95 168 1.97  75 2.96  55 2.96
  46  0.500  0.625  0.394- 168 1.95 169 1.95 228 1.95 229 1.95 170 1.97 171 1.97  56 2.96  76 2.96

  47  0.250  0.750  0.394-  91 1.95 111 1.95 170 1.95 190 1.95 172 1.97 165 1.97  57 2.96  77 2.96

  48  0.250  0.625  0.500- 172 1.95 173 1.95 232 1.95 233 1.95  94 1.97 175 1.97  58 2.96  78 2.96

  49  0.500  0.750  0.500- 174 1.95 175 1.95 194 1.95 195 1.95 169 1.97 176 1.99  59 2.96  79 2.96

  50  0.500  0.624  0.605- 236 1.90 176 1.91 179 1.95 178 1.95 177 2.00 237 2.00  80 2.93  60 2.96

  51  0.250  0.750  0.610- 180 1.87 198 1.97 178 1.97  99 1.97 119 1.97 173 2.09  61 2.96  81 2.96

  52  0.249  0.625  0.719- 181 1.83 241 1.84 102 2.02 183 2.02 180 2.08 240 2.09  62 2.95  82 2.97

  53  0.500  0.750  0.707- 177 1.81 183 1.93 182 1.93 202 1.94 203 1.95  63 2.95  83 2.96
  54  0.250  0.875  0.287- 165 1.95 185 1.95 184 1.95 164 1.95 106 1.97 187 1.97  44 2.96  64 2.96

  55  0.500  0.000  0.287- 186 1.95 187 1.95 206 1.95 207 1.95 188 1.97  65 2.96  45 2.96
  56  0.500  0.875  0.394- 168 1.95 169 1.95 188 1.95 189 1.95 190 1.97 191 1.97  46 2.96  66 2.96

  57  0.250  0.000  0.394- 111 1.95 131 1.95 190 1.95 210 1.95 192 1.97 185 1.97  47 2.96  67 2.96

  58  0.250  0.875  0.500- 172 1.95 173 1.95 192 1.95 193 1.95 114 1.97 195 1.97  48 2.96  68 2.96

  59  0.500  0.000  0.500- 194 1.95 195 1.95 214 1.95 215 1.95 189 1.97 196 1.98  49 2.96  69 2.96

  60  0.500  0.875  0.604- 176 1.89 196 1.90 199 1.95 198 1.95 177 2.00 197 2.01  50 2.96  70 2.97

  61  0.250  1.000  0.610- 200 1.87 218 1.97 198 1.97 139 1.97 119 1.97 193 2.09  51 2.96  71 2.96

  62  0.250  0.875  0.720- 201 1.83 181 1.83 203 2.02 122 2.03 200 2.09 180 2.09  52 2.95  72 2.96

  63  0.500  1.000  0.708- 197 1.81 222 1.94 202 1.94 223 1.94 203 1.94  73 2.95  53 2.95
  64  0.250  0.125  0.287- 185 1.95 205 1.95 204 1.95 184 1.95 126 1.97 207 1.97  54 2.96  74 2.96

  65  0.500  0.250  0.287- 206 1.95 207 1.95 226 1.95 227 1.95 208 1.97  75 2.96  55 2.96
  66  0.500  0.125  0.394- 188 1.95 189 1.95 208 1.95 209 1.95 210 1.97 211 1.97  56 2.96  76 2.96

  67  0.250  0.250  0.394- 131 1.95 151 1.95 210 1.95 230 1.95 212 1.97 205 1.97  57 2.96  77 2.96

  68  0.250  0.125  0.500- 192 1.95 193 1.95 212 1.95 213 1.95 134 1.97 215 1.97  58 2.96  78 2.96

  69  0.500  0.250  0.500- 214 1.95 215 1.95 234 1.95 235 1.95 209 1.97 216 1.99  59 2.96  79 2.96

  70  0.500  0.125  0.604- 216 1.89 196 1.90 219 1.95 218 1.95 217 2.00 197 2.01  80 2.96  60 2.97

  71  0.250  0.250  0.610- 220 1.87 218 1.97 238 1.97 159 1.97 139 1.97 213 2.09  61 2.96  81 2.96

  72  0.250  0.125  0.720- 201 1.83 221 1.83 223 2.02 142 2.03 200 2.09 220 2.09  82 2.95  62 2.96

  73  0.500  0.250  0.707- 217 1.81 243 1.93 242 1.93 222 1.94 223 1.95  63 2.95  83 2.96
  74  0.250  0.375  0.287- 205 1.95 225 1.95 224 1.95 204 1.95 146 1.97 227 1.97  44 2.96  64 2.96

  75  0.500  0.500  0.287- 166 1.95 167 1.95 226 1.95 227 1.95 228 1.97  65 2.96  45 2.96
  76  0.500  0.375  0.394- 208 1.95 209 1.95 228 1.95 229 1.95 230 1.97 231 1.97  46 2.96  66 2.96

  77  0.250  0.500  0.394-  91 1.95 151 1.95 170 1.95 230 1.95 232 1.97 225 1.97  47 2.96  67 2.96

  78  0.250  0.375  0.500- 212 1.95 213 1.95 232 1.95 233 1.95 154 1.97 235 1.97  48 2.96  68 2.96

  79  0.500  0.500  0.500- 174 1.95 175 1.95 234 1.95 235 1.95 229 1.97 236 2.00  49 2.96  69 2.96

  80  0.500  0.376  0.605- 236 1.90 216 1.91 239 1.95 238 1.95 217 2.00 237 2.00  50 2.93  70 2.96

  81  0.250  0.500  0.610- 240 1.87 178 1.97 238 1.97  99 1.97 159 1.97 233 2.09  51 2.96  71 2.96

  82  0.249  0.375  0.719- 221 1.83 241 1.84 162 2.02 243 2.02 220 2.08 240 2.09  72 2.95  52 2.97

  83  0.499  0.500  0.710- 237 1.85 183 1.95 243 1.95 182 1.95 242 1.95   3 2.35  53 2.96  73 2.96

  84  0.750  0.750  0.246-   4 1.95  14 1.95
  85  0.750  0.750  0.329-   4 1.95  14 1.95   7 1.97
  86  0.098  0.625  0.287-   5 1.95  35 1.95  44 1.97
  87  0.902  0.625  0.287-   5 1.95  35 1.95   4 1.97
  88  0.000  0.750  0.352-   6 1.95  16 1.95   5 1.97
  89  0.000  0.750  0.435-   6 1.95  16 1.95   9 1.97
  90  0.848  0.625  0.394-   7 1.95  37 1.95   6 1.97
  91  0.152  0.625  0.394-  47 1.95  77 1.95   6 1.97
  92  0.750  0.750  0.458-   8 1.95  18 1.95   7 1.97
  93  0.750  0.750  0.542-   8 1.95  18 1.95  11 2.09
  94  0.098  0.625  0.500-   9 1.95  39 1.95  48 1.97
  95  0.902  0.625  0.500-   9 1.95  39 1.95   8 1.97
  96  1.000  0.750  0.565-  20 1.90  10 1.90   9 1.99
  97  0.000  0.750  0.649-  13 1.81  10 2.01  20 2.01
  98  0.850  0.625  0.607-  10 1.95  11 1.97  41 1.97
  99  0.150  0.625  0.607-  10 1.95  51 1.97  81 1.97
 100  0.750  0.750  0.671-  11 1.87  22 2.09  12 2.09
 101  0.750  0.750  0.755-  12 1.83  22 1.83
 102  0.094  0.625  0.719-  43 1.95  13 1.95  52 2.02
 103  0.906  0.625  0.718-  43 1.94  13 1.94  12 2.03
 104  0.750  0.000  0.246-  14 1.95  24 1.95
 105  0.750  0.000  0.329-  14 1.95  24 1.95  17 1.97
 106  0.098  0.875  0.287-   5 1.95  15 1.95  54 1.97
 107  0.902  0.875  0.287-   5 1.95  15 1.95  14 1.97
 108  0.000  0.000  0.352-  16 1.95  26 1.95  15 1.97
 109  0.000  0.000  0.435-  16 1.95  26 1.95  19 1.97
 110  0.848  0.875  0.394-   7 1.95  17 1.95  16 1.97
 111  0.152  0.875  0.394-  47 1.95  57 1.95  16 1.97
 112  0.750  0.000  0.458-  18 1.95  28 1.95  17 1.97
 113  0.750  0.000  0.542-  18 1.95  28 1.95  21 2.09
 114  0.098  0.875  0.500-   9 1.95  19 1.95  58 1.97
 115  0.902  0.875  0.500-   9 1.95  19 1.95  18 1.97
 116  1.000  1.000  0.565-  30 1.90  20 1.90  19 1.99
 117  0.000  1.000  0.649-  23 1.81  20 2.01  30 2.01
 118  0.850  0.875  0.607-  20 1.95  21 1.97  11 1.97
 119  0.150  0.875  0.607-  20 1.95  61 1.97  51 1.97
 120  0.750  1.000  0.671-  21 1.87  32 2.09  22 2.09
 121  0.750  1.000  0.755-  22 1.83  32 1.83
 122  0.094  0.875  0.719-  23 1.94  13 1.94  62 2.03
 123  0.906  0.875  0.718-  13 1.94  23 1.94  22 2.03
 124  0.750  0.250  0.246-  24 1.95  34 1.95
 125  0.750  0.250  0.329-  24 1.95  34 1.95  27 1.97
 126  0.098  0.125  0.287-  15 1.95  25 1.95  64 1.97
 127  0.902  0.125  0.287-  15 1.95  25 1.95  24 1.97
 128  0.000  0.250  0.352-  26 1.95  36 1.95  25 1.97
 129  0.000  0.250  0.435-  26 1.95  36 1.95  29 1.97
 130  0.848  0.125  0.394-  17 1.95  27 1.95  26 1.97
 131  0.152  0.125  0.394-  57 1.95  67 1.95  26 1.97
 132  0.750  0.250  0.458-  28 1.95  38 1.95  27 1.97
 133  0.750  0.250  0.542-  28 1.95  38 1.95  31 2.09
 134  0.098  0.125  0.500-  19 1.95  29 1.95  68 1.97
 135  0.902  0.125  0.500-  19 1.95  29 1.95  28 1.97
 136  1.000  0.250  0.565-  30 1.90  40 1.90  29 1.99
 137  0.000  0.250  0.649-  33 1.81  40 2.01  30 2.01
 138  0.850  0.125  0.607-  30 1.95  21 1.97  31 1.97
 139  0.150  0.125  0.607-  30 1.95  61 1.97  71 1.97
 140  0.750  0.250  0.671-  31 1.87  32 2.09  42 2.09
 141  0.750  0.250  0.755-  42 1.83  32 1.83
 142  0.094  0.125  0.719-  23 1.94  33 1.94  72 2.03
 143  0.906  0.125  0.718-  33 1.94  23 1.94  32 2.03
 144  0.750  0.500  0.246-   4 1.95  34 1.95
 145  0.750  0.500  0.329-   4 1.95  34 1.95  37 1.97
 146  0.098  0.375  0.287-  25 1.95  35 1.95  74 1.97
 147  0.902  0.375  0.287-  25 1.95  35 1.95  34 1.97
 148  0.000  0.500  0.352-   6 1.95  36 1.95  35 1.97
 149  0.000  0.500  0.435-   6 1.95  36 1.95  39 1.97
 150  0.848  0.375  0.394-  27 1.95  37 1.95  36 1.97
 151  0.152  0.375  0.394-  67 1.95  77 1.95  36 1.97
 152  0.750  0.500  0.458-   8 1.95  38 1.95  37 1.97
 153  0.750  0.500  0.542-   8 1.95  38 1.95  41 2.09
 154  0.098  0.375  0.500-  29 1.95  39 1.95  78 1.97
 155  0.902  0.375  0.500-  29 1.95  39 1.95  38 1.97
 156  1.000  0.500  0.565-  40 1.90  10 1.90  39 1.99
 157  0.000  0.500  0.649-  43 1.81  40 2.01  10 2.01
 158  0.850  0.375  0.607-  40 1.95  31 1.97  41 1.97
 159  0.150  0.375  0.607-  40 1.95  71 1.97  81 1.97
 160  0.750  0.500  0.671-  41 1.87  12 2.09  42 2.09
 161  0.749  0.500  0.755-  12 1.83  42 1.83
 162  0.094  0.375  0.719-  43 1.95  33 1.95  82 2.02
 163  0.906  0.375  0.718-  43 1.94  33 1.94  42 2.03
 164  0.250  0.750  0.246-  44 1.95  54 1.95
 165  0.250  0.750  0.329-  44 1.95  54 1.95  47 1.97
 166  0.598  0.625  0.287-  45 1.95  75 1.95   4 1.97
 167  0.402  0.625  0.287-  45 1.95  75 1.95  44 1.97
 168  0.500  0.750  0.352-  46 1.95  56 1.95  45 1.97
 169  0.500  0.750  0.435-  46 1.95  56 1.95  49 1.97
 170  0.348  0.625  0.394-  47 1.95  77 1.95  46 1.97
 171  0.652  0.625  0.394-   7 1.95  37 1.95  46 1.97
 172  0.250  0.750  0.458-  48 1.95  58 1.95  47 1.97
 173  0.250  0.750  0.542-  48 1.95  58 1.95  51 2.09
 174  0.598  0.625  0.500-  49 1.95  79 1.95   8 1.97
 175  0.402  0.625  0.500-  49 1.95  79 1.95  48 1.97
 176  0.500  0.749  0.565-  60 1.89  50 1.91  49 1.99
 177  0.501  0.751  0.648-  53 1.81  60 2.00  50 2.00
 178  0.350  0.625  0.607-  50 1.95  51 1.97  81 1.97
 179  0.650  0.625  0.607-  50 1.95  41 1.97  11 1.97
 180  0.249  0.750  0.671-  51 1.87  52 2.08  62 2.09
 181  0.251  0.750  0.755-  52 1.83  62 1.83
 182  0.594  0.626  0.718-  53 1.93  83 1.95  12 2.02
 183  0.405  0.627  0.716-  53 1.93  83 1.95  52 2.02
 184  0.250  0.000  0.246-  54 1.95  64 1.95
 185  0.250  0.000  0.329-  54 1.95  64 1.95  57 1.97
 186  0.598  0.875  0.287-  45 1.95  55 1.95  14 1.97
 187  0.402  0.875  0.287-  45 1.95  55 1.95  54 1.97
 188  0.500  0.000  0.352-  56 1.95  66 1.95  55 1.97
 189  0.500  0.000  0.435-  56 1.95  66 1.95  59 1.97
 190  0.348  0.875  0.394-  47 1.95  57 1.95  56 1.97
 191  0.652  0.875  0.394-   7 1.95  17 1.95  56 1.97
 192  0.250  0.000  0.458-  58 1.95  68 1.95  57 1.97
 193  0.250  0.000  0.542-  58 1.95  68 1.95  61 2.09
 194  0.598  0.875  0.500-  49 1.95  59 1.95  18 1.97
 195  0.402  0.875  0.500-  49 1.95  59 1.95  58 1.97
 196  0.500  1.000  0.565-  60 1.90  70 1.90  59 1.98
 197  0.500  1.000  0.648-  63 1.81  60 2.01  70 2.01
 198  0.350  0.875  0.607-  60 1.95  51 1.97  61 1.97
 199  0.650  0.875  0.607-  60 1.95  21 1.97  11 1.97
 200  0.250  1.000  0.671-  61 1.87  72 2.09  62 2.09
 201  0.250  1.000  0.755-  62 1.83  72 1.83
 202  0.594  0.876  0.718-  63 1.94  53 1.94  22 2.02
 203  0.406  0.875  0.718-  63 1.94  53 1.95  62 2.02
 204  0.250  0.250  0.246-  64 1.95  74 1.95
 205  0.250  0.250  0.329-  64 1.95  74 1.95  67 1.97
 206  0.598  0.125  0.287-  55 1.95  65 1.95  24 1.97
 207  0.402  0.125  0.287-  55 1.95  65 1.95  64 1.97
 208  0.500  0.250  0.352-  66 1.95  76 1.95  65 1.97
 209  0.500  0.250  0.435-  66 1.95  76 1.95  69 1.97
 210  0.348  0.125  0.394-  57 1.95  67 1.95  66 1.97
 211  0.652  0.125  0.394-  17 1.95  27 1.95  66 1.97
 212  0.250  0.250  0.458-  68 1.95  78 1.95  67 1.97
 213  0.250  0.250  0.542-  68 1.95  78 1.95  71 2.09
 214  0.598  0.125  0.500-  59 1.95  69 1.95  28 1.97
 215  0.402  0.125  0.500-  59 1.95  69 1.95  68 1.97
 216  0.500  0.251  0.565-  70 1.89  80 1.91  69 1.99
 217  0.501  0.249  0.648-  73 1.81  70 2.00  80 2.00
 218  0.350  0.125  0.607-  70 1.95  71 1.97  61 1.97
 219  0.650  0.125  0.607-  70 1.95  21 1.97  31 1.97
 220  0.249  0.250  0.671-  71 1.87  82 2.08  72 2.09
 221  0.251  0.250  0.755-  82 1.83  72 1.83
 222  0.594  0.124  0.718-  63 1.94  73 1.94  32 2.02
 223  0.406  0.125  0.718-  63 1.94  73 1.95  72 2.02
 224  0.250  0.500  0.246-  44 1.95  74 1.95
 225  0.250  0.500  0.329-  44 1.95  74 1.95  77 1.97
 226  0.598  0.375  0.287-  65 1.95  75 1.95  34 1.97
 227  0.402  0.375  0.287-  65 1.95  75 1.95  74 1.97
 228  0.500  0.500  0.352-  46 1.95  76 1.95  75 1.97
 229  0.500  0.500  0.435-  46 1.95  76 1.95  79 1.97
 230  0.348  0.375  0.394-  67 1.95  77 1.95  76 1.97
 231  0.652  0.375  0.394-  27 1.95  37 1.95  76 1.97
 232  0.250  0.500  0.458-  48 1.95  78 1.95  77 1.97
 233  0.250  0.500  0.542-  48 1.95  78 1.95  81 2.09
 234  0.598  0.375  0.500-  69 1.95  79 1.95  38 1.97
 235  0.402  0.375  0.500-  69 1.95  79 1.95  78 1.97
 236  0.500  0.500  0.565-  50 1.90  80 1.90  79 2.00
 237  0.500  0.500  0.649-  83 1.85  80 2.00  50 2.00
 238  0.350  0.375  0.607-  80 1.95  71 1.97  81 1.97
 239  0.650  0.375  0.607-  80 1.95  41 1.97  31 1.97
 240  0.248  0.500  0.671-  81 1.87  52 2.09  82 2.09
 241  0.255  0.500  0.755-  52 1.84  82 1.84
 242  0.594  0.374  0.718-  73 1.93  83 1.95  42 2.02
 243  0.405  0.373  0.716-  73 1.93  83 1.95  82 2.02


IMPORTANT INFORMATION: All symmetrisations will be switched off!
NOSYMM: (Re-)initialisation of all symmetry stuff for point group C_1.


----------------------------------------------------------------------------------------

                                     Primitive cell                                     

  volume of cell :    4687.7932

  direct lattice vectors                    reciprocal lattice vectors
    12.981765453  0.000000000  0.000000000     0.077031125  0.000000000  0.000000000
     0.000000000 11.829918508  0.000000000     0.000000000  0.084531436  0.000000000
     0.000000000  0.000000000 30.524807391     0.000000000  0.000000000  0.032760239

  length of vectors
    12.981765453 11.829918508 30.524807391     0.077031125  0.084531436  0.032760239

  position of ions in fractional coordinates (direct lattice)
     0.421188138  0.499999978  0.814719097
     0.363623366  0.499999990  0.843670469
     0.484123142  0.499999964  0.786937905
     0.750000000  0.625000000  0.287357127
     0.000000000  0.750000000  0.287357127
     0.000000000  0.625000000  0.393678564
     0.750000000  0.750000000  0.393678564
     0.750000000  0.625000000  0.500000000
     0.000000000  0.750000000  0.500000000
     0.999959591  0.625019121  0.604152052
     0.749987960  0.749994337  0.610125367
     0.749440360  0.625065540  0.719631083
     0.999956422  0.750150917  0.708102075
     0.750000000  0.875000000  0.287357127
     0.000000000  0.000000000  0.287357127
     0.000000000  0.875000000  0.393678564
     0.750000000  0.000000000  0.393678564
     0.750000000  0.875000000  0.500000000
     0.000000000  0.000000000  0.500000000
     0.999975246  0.875020903  0.604185739
     0.750024353  0.999999996  0.610128144
     0.749880299  0.875078017  0.719660293
     0.000291717  0.999999992  0.708096959
     0.750000000  0.125000000  0.287357127
     0.000000000  0.250000000  0.287357127
     0.000000000  0.125000000  0.393678564
     0.750000000  0.250000000  0.393678564
     0.750000000  0.125000000  0.500000000
     0.000000000  0.250000000  0.500000000
     0.999975251  0.124979089  0.604185737
     0.749987968  0.250005656  0.610125381
     0.749880281  0.124921941  0.719660293
     0.999956415  0.249849062  0.708102075
     0.750000000  0.375000000  0.287357127
     0.000000000  0.500000000  0.287357127
     0.000000000  0.375000000  0.393678564
     0.750000000  0.500000000  0.393678564
     0.750000000  0.375000000  0.500000000
     0.000000000  0.500000000  0.500000000
     0.999959596  0.374980887  0.604152048
     0.750017848  0.500000001  0.610185179
     0.749440359  0.374934432  0.719631093
     0.999081734  0.499999986  0.708069278
     0.250000000  0.625000000  0.287357127
     0.500000000  0.750000000  0.287357127
     0.500000000  0.625000000  0.393678564
     0.250000000  0.750000000  0.393678564
     0.250000000  0.625000000  0.500000000
     0.500000000  0.750000000  0.500000000
     0.500020796  0.624037478  0.604844933
     0.249912272  0.750083725  0.609967745
     0.249055970  0.625442073  0.719093726
     0.500313386  0.750246958  0.707494848
     0.250000000  0.875000000  0.287357127
     0.500000000  0.000000000  0.287357127
     0.500000000  0.875000000  0.393678564
     0.250000000  0.000000000  0.393678564
     0.250000000  0.875000000  0.500000000
     0.500000000  0.000000000  0.500000000
     0.500129446  0.874594968  0.603665048
     0.250104982  0.999999999  0.610134744
     0.250407499  0.875093130  0.719684539
     0.500056844  0.999999986  0.707560914
     0.250000000  0.125000000  0.287357127
     0.500000000  0.250000000  0.287357127
     0.500000000  0.125000000  0.393678564
     0.250000000  0.250000000  0.393678564
     0.250000000  0.125000000  0.500000000
     0.500000000  0.250000000  0.500000000
     0.500129456  0.125405032  0.603665047
     0.249912285  0.249916275  0.609967744
     0.250407504  0.124906826  0.719684532
     0.500313380  0.249753006  0.707494848
     0.250000000  0.375000000  0.287357127
     0.500000000  0.500000000  0.287357127
     0.500000000  0.375000000  0.393678564
     0.250000000  0.500000000  0.393678564
     0.250000000  0.375000000  0.500000000
     0.500000000  0.500000000  0.500000000
     0.500020807  0.375962520  0.604844948
     0.249758262  0.500000000  0.609962026
     0.249055959  0.374557875  0.719093723
     0.498607260  0.500000000  0.710096718
     0.750000000  0.750000000  0.245701796
     0.750000000  0.750000000  0.329012459
     0.097946691  0.625000000  0.287357127
     0.902053309  0.625000000  0.287357127
     0.000000000  0.750000000  0.352023232
     0.000000000  0.750000000  0.435333895
     0.847946691  0.625000000  0.393678564
     0.152053309  0.625000000  0.393678564
     0.750000000  0.750000000  0.458344669
     0.750000000  0.750000000  0.541655331
     0.097946691  0.625000000  0.500000000
     0.902053309  0.625000000  0.500000000
     0.999948895  0.750069605  0.565170215
     0.000267329  0.749929512  0.648722784
     0.850132991  0.625060470  0.606842999
     0.149830235  0.625131746  0.606598559
     0.750127243  0.750152690  0.671270794
     0.749715156  0.750003702  0.754919116
     0.093579312  0.624617245  0.718841339
     0.905922364  0.625123097  0.718424797
     0.750000000  0.000000000  0.245701796
     0.750000000  0.000000000  0.329012459
     0.097946691  0.875000000  0.287357127
     0.902053309  0.875000000  0.287357127
     0.000000000  0.000000000  0.352023232
     0.000000000  0.000000000  0.435333895
     0.847946691  0.875000000  0.393678564
     0.152053309  0.875000000  0.393678564
     0.750000000  0.000000000  0.458344669
     0.750000000  0.000000000  0.541655331
     0.097946691  0.875000000  0.500000000
     0.902053309  0.875000000  0.500000000
     0.999941587  0.999999997  0.565176997
     0.000214363  0.999999996  0.648715208
     0.850182700  0.874988493  0.606865036
     0.149940840  0.875185517  0.606758552
     0.750231501  0.999999993  0.671271589
     0.750282127  0.999999975  0.754944370
     0.093919071  0.874933480  0.718564235
     0.906281994  0.874936428  0.718380871
     0.750000000  0.250000000  0.245701796
     0.750000000  0.250000000  0.329012459
     0.097946691  0.125000000  0.287357127
     0.902053309  0.125000000  0.287357127
     0.000000000  0.250000000  0.352023232
     0.000000000  0.250000000  0.435333895
     0.847946691  0.125000000  0.393678564
     0.152053309  0.125000000  0.393678564
     0.750000000  0.250000000  0.458344669
     0.750000000  0.250000000  0.541655331
     0.097946691  0.125000000  0.500000000
     0.902053309  0.125000000  0.500000000
     0.999948897  0.249930395  0.565170214
     0.000267334  0.250070482  0.648722781
     0.850182701  0.125011496  0.606865035
     0.149940842  0.124814476  0.606758550
     0.750127240  0.249847296  0.671270802
     0.749715144  0.249996240  0.754919136
     0.093919067  0.125066497  0.718564236
     0.906281990  0.125063547  0.718380872
     0.750000000  0.500000000  0.245701796
     0.750000000  0.500000000  0.329012459
     0.097946691  0.375000000  0.287357127
     0.902053309  0.375000000  0.287357127
     0.000000000  0.500000000  0.352023232
     0.000000000  0.500000000  0.435333895
     0.847946691  0.375000000  0.393678564
     0.152053309  0.375000000  0.393678564
     0.750000000  0.500000000  0.458344669
     0.750000000  0.500000000  0.541655331
     0.097946691  0.375000000  0.500000000
     0.902053309  0.375000000  0.500000000
     0.999905014  0.500000002  0.565159912
     0.000095815  0.499999996  0.648692204
     0.850132993  0.374939536  0.606843000
     0.149830237  0.374868253  0.606598557
     0.750475848  0.500000003  0.671320880
     0.749001735  0.499999999  0.754891253
     0.093579311  0.375382727  0.718841343
     0.905922354  0.374876881  0.718424797
     0.250000000  0.750000000  0.245701796
     0.250000000  0.750000000  0.329012459
     0.597946691  0.625000000  0.287357127
     0.402053309  0.625000000  0.287357127
     0.500000000  0.750000000  0.352023232
     0.500000000  0.750000000  0.435333895
     0.347946691  0.625000000  0.393678564
     0.652053309  0.625000000  0.393678564
     0.250000000  0.750000000  0.458344669
     0.250000000  0.750000000  0.541655331
     0.597946691  0.625000000  0.500000000
     0.402053309  0.625000000  0.500000000
     0.499915000  0.749138982  0.565132702
     0.500616628  0.750885416  0.648231665
     0.349824650  0.624998775  0.607127960
     0.650145812  0.624938068  0.606959082
     0.248621597  0.750375992  0.671216853
     0.250671855  0.749503513  0.754852274
     0.593604197  0.625890413  0.717867902
     0.404838802  0.627328361  0.716342679
     0.250000000  0.000000000  0.245701796
     0.250000000  0.000000000  0.329012459
     0.597946691  0.875000000  0.287357127
     0.402053309  0.875000000  0.287357127
     0.500000000  0.000000000  0.352023232
     0.500000000  0.000000000  0.435333895
     0.347946691  0.875000000  0.393678564
     0.652053309  0.875000000  0.393678564
     0.250000000  0.000000000  0.458344669
     0.250000000  0.000000000  0.541655331
     0.597946691  0.875000000  0.500000000
     0.402053309  0.875000000  0.500000000
     0.499969087  0.999999995  0.564891696
     0.499991115  0.999999995  0.648266452
     0.349922501  0.874920456  0.606768992
     0.650136573  0.875087473  0.606663776
     0.249984033  0.999999997  0.671370419
     0.250059454  0.999999982  0.754991531
     0.594002126  0.875535430  0.718163749
     0.406129843  0.875141244  0.718172497
     0.250000000  0.250000000  0.245701796
     0.250000000  0.250000000  0.329012459
     0.597946691  0.125000000  0.287357127
     0.402053309  0.125000000  0.287357127
     0.500000000  0.250000000  0.352023232
     0.500000000  0.250000000  0.435333895
     0.347946691  0.125000000  0.393678564
     0.652053309  0.125000000  0.393678564
     0.250000000  0.250000000  0.458344669
     0.250000000  0.250000000  0.541655331
     0.597946691  0.125000000  0.500000000
     0.402053309  0.125000000  0.500000000
     0.499914998  0.250861026  0.565132707
     0.500616626  0.249114566  0.648231664
     0.349922498  0.125079541  0.606768992
     0.650136577  0.124912520  0.606663773
     0.248621591  0.249623992  0.671216857
     0.250671868  0.250496432  0.754852282
     0.594002112  0.124464547  0.718163751
     0.406129846  0.124858728  0.718172500
     0.250000000  0.500000000  0.245701796
     0.250000000  0.500000000  0.329012459
     0.597946691  0.375000000  0.287357127
     0.402053309  0.375000000  0.287357127
     0.500000000  0.500000000  0.352023232
     0.500000000  0.500000000  0.435333895
     0.347946691  0.375000000  0.393678564
     0.652053309  0.375000000  0.393678564
     0.250000000  0.500000000  0.458344669
     0.250000000  0.500000000  0.541655331
     0.597946691  0.375000000  0.500000000
     0.402053309  0.375000000  0.500000000
     0.499904627  0.499999993  0.565389627
     0.500192321  0.500000007  0.649467731
     0.349824647  0.375001220  0.607127966
     0.650145814  0.375061932  0.606959086
     0.247714482  0.499999996  0.671107699
     0.254535799  0.499999974  0.754701996
     0.593604194  0.374109557  0.717867901
     0.404838797  0.372671614  0.716342667

  ion indices of the primitive-cell ions
   primitive index   ion index
                 1           1
                 2           2
                 3           3
                 4           4
                 5           5
                 6           6
                 7           7
                 8           8
                 9           9
                10          10
                11          11
                12          12
                13          13
                14          14
                15          15
                16          16
                17          17
                18          18
                19          19
                20          20
                21          21
                22          22
                23          23
                24          24
                25          25
                26          26
                27          27
                28          28
                29          29
                30          30
                31          31
                32          32
                33          33
                34          34
                35          35
                36          36
                37          37
                38          38
                39          39
                40          40
                41          41
                42          42
                43          43
                44          44
                45          45
                46          46
                47          47
                48          48
                49          49
                50          50
                51          51
                52          52
                53          53
                54          54
                55          55
                56          56
                57          57
                58          58
                59          59
                60          60
                61          61
                62          62
                63          63
                64          64
                65          65
                66          66
                67          67
                68          68
                69          69
                70          70
                71          71
                72          72
                73          73
                74          74
                75          75
                76          76
                77          77
                78          78
                79          79
                80          80
                81          81
                82          82
                83          83
                84          84
                85          85
                86          86
                87          87
                88          88
                89          89
                90          90
                91          91
                92          92
                93          93
                94          94
                95          95
                96          96
                97          97
                98          98
                99          99
               100         100
               101         101
               102         102
               103         103
               104         104
               105         105
               106         106
               107         107
               108         108
               109         109
               110         110
               111         111
               112         112
               113         113
               114         114
               115         115
               116         116
               117         117
               118         118
               119         119
               120         120
               121         121
               122         122
               123         123
               124         124
               125         125
               126         126
               127         127
               128         128
               129         129
               130         130
               131         131
               132         132
               133         133
               134         134
               135         135
               136         136
               137         137
               138         138
               139         139
               140         140
               141         141
               142         142
               143         143
               144         144
               145         145
               146         146
               147         147
               148         148
               149         149
               150         150
               151         151
               152         152
               153         153
               154         154
               155         155
               156         156
               157         157
               158         158
               159         159
               160         160
               161         161
               162         162
               163         163
               164         164
               165         165
               166         166
               167         167
               168         168
               169         169
               170         170
               171         171
               172         172
               173         173
               174         174
               175         175
               176         176
               177         177
               178         178
               179         179
               180         180
               181         181
               182         182
               183         183
               184         184
               185         185
               186         186
               187         187
               188         188
               189         189
               190         190
               191         191
               192         192
               193         193
               194         194
               195         195
               196         196
               197         197
               198         198
               199         199
               200         200
               201         201
               202         202
               203         203
               204         204
               205         205
               206         206
               207         207
               208         208
               209         209
               210         210
               211         211
               212         212
               213         213
               214         214
               215         215
               216         216
               217         217
               218         218
               219         219
               220         220
               221         221
               222         222
               223         223
               224         224
               225         225
               226         226
               227         227
               228         228
               229         229
               230         230
               231         231
               232         232
               233         233
               234         234
               235         235
               236         236
               237         237
               238         238
               239         239
               240         240
               241         241
               242         242
               243         243

----------------------------------------------------------------------------------------



 KPOINTS: pymatgen v2020.8.13 with grid density = 

Automatic generation of k-mesh.
 Grid dimensions read from file:
 generate k-points for:    2    2    1

 Generating k-lattice:

  Cartesian coordinates                     Fractional coordinates (reciprocal lattice)
     0.038515563  0.000000000  0.000000000     0.500000000  0.000000000  0.000000000
     0.000000000  0.042265718  0.000000000     0.000000000  0.500000000  0.000000000
     0.000000000  0.000000000  0.032760239     0.000000000  0.000000000  1.000000000

  Length of vectors
     0.038515563  0.042265718  0.032760239

  Shift w.r.t. Gamma in fractional coordinates (k-lattice)
     0.000000000  0.000000000  0.000000000

 
 Subroutine IBZKPT returns following result:
 ===========================================
 
 Found      4 irreducible k-points:
 
 Following reciprocal coordinates:
            Coordinates               Weight
  0.000000  0.000000  0.000000      1.000000
  0.500000  0.000000  0.000000      1.000000
  0.000000  0.500000  0.000000      1.000000
  0.500000  0.500000  0.000000      1.000000
 
 Following cartesian coordinates:
            Coordinates               Weight
  0.000000  0.000000  0.000000      1.000000
  0.038516  0.000000  0.000000      1.000000
  0.000000  0.042266  0.000000      1.000000
  0.038516  0.042266  0.000000      1.000000
 


--------------------------------------------------------------------------------------------------------




 Dimension of arrays:
   k-points           NKPTS =      4   k-points in BZ     NKDIM =      4   number of bands    NBANDS=   1088
   number of dos      NEDOS =    301   number of ions     NIONS =    243
   non local maximal  LDIM  =      6   non local SUM 2l+1 LMDIM =     18
   total plane-waves  NPLWV = ******
   max r-space proj   IRMAX =      1   max aug-charges    IRDMAX=  21664
   dimension x,y,z NGX =   108 NGY =   96 NGZ =  250
   dimension x,y,z NGXF=   216 NGYF=  192 NGZF=  500
   support grid    NGXF=   216 NGYF=  192 NGZF=  500
   ions per type =               1   2  80 160
   NGX,Y,Z   is equivalent  to a cutoff of  13.83, 13.49, 13.62 a.u.
   NGXF,Y,Z  is equivalent  to a cutoff of  27.66, 26.98, 27.23 a.u.

 SYSTEM =  TiO2                                    
 POSCAR =   C  O Ti  O                             

--------------------------------------------------------------------------------------------------------


  energy-cutoff  :      600.00
  volume of cell :     4687.79
      direct lattice vectors                 reciprocal lattice vectors
    12.981765453  0.000000000  0.000000000     0.077031125  0.000000000  0.000000000
     0.000000000 11.829918508  0.000000000     0.000000000  0.084531436  0.000000000
     0.000000000  0.000000000 30.524807391     0.000000000  0.000000000  0.032760239

  length of vectors
    12.981765453 11.829918508 30.524807391     0.077031125  0.084531436  0.032760239



 k-points in units of 2pi/SCALE and weight: pymatgen v2020.8.13 with grid density = 
   0.00000000  0.00000000  0.00000000       0.250
   0.03851556  0.00000000  0.00000000       0.250
   0.00000000  0.04226572  0.00000000       0.250
   0.03851556  0.04226572  0.00000000       0.250

 k-points in reciprocal lattice and weights: pymatgen v2020.8.13 with grid density = 
   0.00000000  0.00000000  0.00000000       0.250
   0.50000000  0.00000000  0.00000000       0.250
   0.00000000  0.50000000  0.00000000       0.250
   0.50000000  0.50000000  0.00000000       0.250

 position of ions in fractional coordinates (direct lattice) 
   0.42118814  0.49999998  0.81471910
   0.36362337  0.49999999  0.84367047
   0.48412314  0.49999996  0.78693790
   0.75000000  0.62500000  0.28735713
   0.00000000  0.75000000  0.28735713
   0.00000000  0.62500000  0.39367856
   0.75000000  0.75000000  0.39367856
   0.75000000  0.62500000  0.50000000
   0.00000000  0.75000000  0.50000000
   0.99995959  0.62501912  0.60415205
   0.74998796  0.74999434  0.61012537
   0.74944036  0.62506554  0.71963108
   0.99995642  0.75015092  0.70810207
   0.75000000  0.87500000  0.28735713
   0.00000000  0.00000000  0.28735713
   0.00000000  0.87500000  0.39367856
   0.75000000  0.00000000  0.39367856
   0.75000000  0.87500000  0.50000000
   0.00000000  0.00000000  0.50000000
   0.99997525  0.87502090  0.60418574
   0.75002435  1.00000000  0.61012814
   0.74988030  0.87507802  0.71966029
   0.00029172  0.99999999  0.70809696
   0.75000000  0.12500000  0.28735713
   0.00000000  0.25000000  0.28735713
   0.00000000  0.12500000  0.39367856
   0.75000000  0.25000000  0.39367856
   0.75000000  0.12500000  0.50000000
   0.00000000  0.25000000  0.50000000
   0.99997525  0.12497909  0.60418574
   0.74998797  0.25000566  0.61012538
   0.74988028  0.12492194  0.71966029
   0.99995641  0.24984906  0.70810207
   0.75000000  0.37500000  0.28735713
   0.00000000  0.50000000  0.28735713
   0.00000000  0.37500000  0.39367856
   0.75000000  0.50000000  0.39367856
   0.75000000  0.37500000  0.50000000
   0.00000000  0.50000000  0.50000000
   0.99995960  0.37498089  0.60415205
   0.75001785  0.50000000  0.61018518
   0.74944036  0.37493443  0.71963109
   0.99908173  0.49999999  0.70806928
   0.25000000  0.62500000  0.28735713
   0.50000000  0.75000000  0.28735713
   0.50000000  0.62500000  0.39367856
   0.25000000  0.75000000  0.39367856
   0.25000000  0.62500000  0.50000000
   0.50000000  0.75000000  0.50000000
   0.50002080  0.62403748  0.60484493
   0.24991227  0.75008372  0.60996774
   0.24905597  0.62544207  0.71909373
   0.50031339  0.75024696  0.70749485
   0.25000000  0.87500000  0.28735713
   0.50000000  0.00000000  0.28735713
   0.50000000  0.87500000  0.39367856
   0.25000000  0.00000000  0.39367856
   0.25000000  0.87500000  0.50000000
   0.50000000  0.00000000  0.50000000
   0.50012945  0.87459497  0.60366505
   0.25010498  1.00000000  0.61013474
   0.25040750  0.87509313  0.71968454
   0.50005684  0.99999999  0.70756091
   0.25000000  0.12500000  0.28735713
   0.50000000  0.25000000  0.28735713
   0.50000000  0.12500000  0.39367856
   0.25000000  0.25000000  0.39367856
   0.25000000  0.12500000  0.50000000
   0.50000000  0.25000000  0.50000000
   0.50012946  0.12540503  0.60366505
   0.24991228  0.24991627  0.60996774
   0.25040750  0.12490683  0.71968453
   0.50031338  0.24975301  0.70749485
   0.25000000  0.37500000  0.28735713
   0.50000000  0.50000000  0.28735713
   0.50000000  0.37500000  0.39367856
   0.25000000  0.50000000  0.39367856
   0.25000000  0.37500000  0.50000000
   0.50000000  0.50000000  0.50000000
   0.50002081  0.37596252  0.60484495
   0.24975826  0.50000000  0.60996203
   0.24905596  0.37455788  0.71909372
   0.49860726  0.50000000  0.71009672
   0.75000000  0.75000000  0.24570180
   0.75000000  0.75000000  0.32901246
   0.09794669  0.62500000  0.28735713
   0.90205331  0.62500000  0.28735713
   0.00000000  0.75000000  0.35202323
   0.00000000  0.75000000  0.43533390
   0.84794669  0.62500000  0.39367856
   0.15205331  0.62500000  0.39367856
   0.75000000  0.75000000  0.45834467
   0.75000000  0.75000000  0.54165533
   0.09794669  0.62500000  0.50000000
   0.90205331  0.62500000  0.50000000
   0.99994890  0.75006960  0.56517021
   0.00026733  0.74992951  0.64872278
   0.85013299  0.62506047  0.60684300
   0.14983023  0.62513175  0.60659856
   0.75012724  0.75015269  0.67127079
   0.74971516  0.75000370  0.75491912
   0.09357931  0.62461724  0.71884134
   0.90592236  0.62512310  0.71842480
   0.75000000  0.00000000  0.24570180
   0.75000000  0.00000000  0.32901246
   0.09794669  0.87500000  0.28735713
   0.90205331  0.87500000  0.28735713
   0.00000000  0.00000000  0.35202323
   0.00000000  0.00000000  0.43533390
   0.84794669  0.87500000  0.39367856
   0.15205331  0.87500000  0.39367856
   0.75000000  0.00000000  0.45834467
   0.75000000  0.00000000  0.54165533
   0.09794669  0.87500000  0.50000000
   0.90205331  0.87500000  0.50000000
   0.99994159  1.00000000  0.56517700
   0.00021436  1.00000000  0.64871521
   0.85018270  0.87498849  0.60686504
   0.14994084  0.87518552  0.60675855
   0.75023150  0.99999999  0.67127159
   0.75028213  0.99999997  0.75494437
   0.09391907  0.87493348  0.71856424
   0.90628199  0.87493643  0.71838087
   0.75000000  0.25000000  0.24570180
   0.75000000  0.25000000  0.32901246
   0.09794669  0.12500000  0.28735713
   0.90205331  0.12500000  0.28735713
   0.00000000  0.25000000  0.35202323
   0.00000000  0.25000000  0.43533390
   0.84794669  0.12500000  0.39367856
   0.15205331  0.12500000  0.39367856
   0.75000000  0.25000000  0.45834467
   0.75000000  0.25000000  0.54165533
   0.09794669  0.12500000  0.50000000
   0.90205331  0.12500000  0.50000000
   0.99994890  0.24993039  0.56517021
   0.00026733  0.25007048  0.64872278
   0.85018270  0.12501150  0.60686504
   0.14994084  0.12481448  0.60675855
   0.75012724  0.24984730  0.67127080
   0.74971514  0.24999624  0.75491914
   0.09391907  0.12506650  0.71856424
   0.90628199  0.12506355  0.71838087
   0.75000000  0.50000000  0.24570180
   0.75000000  0.50000000  0.32901246
   0.09794669  0.37500000  0.28735713
   0.90205331  0.37500000  0.28735713
   0.00000000  0.50000000  0.35202323
   0.00000000  0.50000000  0.43533390
   0.84794669  0.37500000  0.39367856
   0.15205331  0.37500000  0.39367856
   0.75000000  0.50000000  0.45834467
   0.75000000  0.50000000  0.54165533
   0.09794669  0.37500000  0.50000000
   0.90205331  0.37500000  0.50000000
   0.99990501  0.50000000  0.56515991
   0.00009581  0.50000000  0.64869220
   0.85013299  0.37493954  0.60684300
   0.14983024  0.37486825  0.60659856
   0.75047585  0.50000000  0.67132088
   0.74900173  0.50000000  0.75489125
   0.09357931  0.37538273  0.71884134
   0.90592235  0.37487688  0.71842480
   0.25000000  0.75000000  0.24570180
   0.25000000  0.75000000  0.32901246
   0.59794669  0.62500000  0.28735713
   0.40205331  0.62500000  0.28735713
   0.50000000  0.75000000  0.35202323
   0.50000000  0.75000000  0.43533390
   0.34794669  0.62500000  0.39367856
   0.65205331  0.62500000  0.39367856
   0.25000000  0.75000000  0.45834467
   0.25000000  0.75000000  0.54165533
   0.59794669  0.62500000  0.50000000
   0.40205331  0.62500000  0.50000000
   0.49991500  0.74913898  0.56513270
   0.50061663  0.75088542  0.64823166
   0.34982465  0.62499878  0.60712796
   0.65014581  0.62493807  0.60695908
   0.24862160  0.75037599  0.67121685
   0.25067186  0.74950351  0.75485227
   0.59360420  0.62589041  0.71786790
   0.40483880  0.62732836  0.71634268
   0.25000000  0.00000000  0.24570180
   0.25000000  0.00000000  0.32901246
   0.59794669  0.87500000  0.28735713
   0.40205331  0.87500000  0.28735713
   0.50000000  0.00000000  0.35202323
   0.50000000  0.00000000  0.43533390
   0.34794669  0.87500000  0.39367856
   0.65205331  0.87500000  0.39367856
   0.25000000  0.00000000  0.45834467
   0.25000000  0.00000000  0.54165533
   0.59794669  0.87500000  0.50000000
   0.40205331  0.87500000  0.50000000
   0.49996909  0.99999999  0.56489170
   0.49999111  0.99999999  0.64826645
   0.34992250  0.87492046  0.60676899
   0.65013657  0.87508747  0.60666378
   0.24998403  1.00000000  0.67137042
   0.25005945  0.99999998  0.75499153
   0.59400213  0.87553543  0.71816375
   0.40612984  0.87514124  0.71817250
   0.25000000  0.25000000  0.24570180
   0.25000000  0.25000000  0.32901246
   0.59794669  0.12500000  0.28735713
   0.40205331  0.12500000  0.28735713
   0.50000000  0.25000000  0.35202323
   0.50000000  0.25000000  0.43533390
   0.34794669  0.12500000  0.39367856
   0.65205331  0.12500000  0.39367856
   0.25000000  0.25000000  0.45834467
   0.25000000  0.25000000  0.54165533
   0.59794669  0.12500000  0.50000000
   0.40205331  0.12500000  0.50000000
   0.49991500  0.25086103  0.56513271
   0.50061663  0.24911457  0.64823166
   0.34992250  0.12507954  0.60676899
   0.65013658  0.12491252  0.60666377
   0.24862159  0.24962399  0.67121686
   0.25067187  0.25049643  0.75485228
   0.59400211  0.12446455  0.71816375
   0.40612985  0.12485873  0.71817250
   0.25000000  0.50000000  0.24570180
   0.25000000  0.50000000  0.32901246
   0.59794669  0.37500000  0.28735713
   0.40205331  0.37500000  0.28735713
   0.50000000  0.50000000  0.35202323
   0.50000000  0.50000000  0.43533390
   0.34794669  0.37500000  0.39367856
   0.65205331  0.37500000  0.39367856
   0.25000000  0.50000000  0.45834467
   0.25000000  0.50000000  0.54165533
   0.59794669  0.37500000  0.50000000
   0.40205331  0.37500000  0.50000000
   0.49990463  0.49999999  0.56538963
   0.50019232  0.50000001  0.64946773
   0.34982465  0.37500122  0.60712797
   0.65014581  0.37506193  0.60695909
   0.24771448  0.50000000  0.67110770
   0.25453580  0.49999997  0.75470200
   0.59360419  0.37410956  0.71786790
   0.40483880  0.37267161  0.71634267

 position of ions in cartesian coordinates  (Angst):
   5.46776562  5.91495899 24.86914352
   4.72047325  5.91495913 25.75287858
   6.28477308  5.91495882 24.02112796
   9.73632409  7.39369907  8.77152097
   0.00000000  8.87243888  8.77152097
   0.00000000  7.39369907 12.01696233
   9.73632409  8.87243888 12.01696233
   9.73632409  7.39369907 15.26240370
   0.00000000  8.87243888 15.26240370
  12.98124087  7.39392527 18.44162504
   9.73616779  8.87237189 18.62395933
   9.72905897  7.39447440 21.96660021
  12.98119974  8.87422422 21.61467944
   9.73632409 10.35117869  8.77152097
   0.00000000  0.00000000  8.77152097
   0.00000000 10.35117869 12.01696233
   9.73632409  0.00000000 12.01696233
   9.73632409 10.35117869 15.26240370
   0.00000000  0.00000000 15.26240370
  12.98144410 10.35142598 18.44265331
   9.73664024 11.82991847 18.62404409
   9.73477015 10.35210163 21.96749182
   0.00378700 11.82991842 21.61452328
   9.73632409  1.47873981  8.77152097
   0.00000000  2.95747963  8.77152097
   0.00000000  1.47873981 12.01696233
   9.73632409  2.95747963 12.01696233
   9.73632409  1.47873981 15.26240370
   0.00000000  2.95747963 15.26240370
  12.98144416  1.47849244 18.44265325
   9.73616789  2.95754654 18.62395975
   9.73476993  1.47781638 21.96749185
  12.98119964  2.95569404 21.61467944
   9.73632409  4.43621944  8.77152097
   0.00000000  5.91495925  8.77152097
   0.00000000  4.43621944 12.01696233
   9.73632409  5.91495925 12.01696233
   9.73632409  4.43621944 15.26240370
   0.00000000  5.91495925 15.26240370
  12.98124094  4.43599334 18.44162490
   9.73655579  5.91495927 18.62578505
   9.72905896  4.43544378 21.96660052
  12.96984473  5.91495909 21.61367834
   3.24544136  7.39369907  8.77152097
   6.49088273  8.87243888  8.77152097
   6.49088273  7.39369907 12.01696233
   3.24544136  8.87243888 12.01696233
   3.24544136  7.39369907 15.26240370
   6.49088273  8.87243888 15.26240370
   6.49115269  7.38231251 18.46277508
   3.24430250  8.87342934 18.61914793
   3.23318619  7.39892875 21.95019748
   6.49495103  8.87536037 21.59614396
   3.24544136 10.35117869  8.77152097
   6.49088273  0.00000000  8.77152097
   6.49088273 10.35117869 12.01696233
   3.24544136  0.00000000 12.01696233
   3.24544136 10.35117869 15.26240370
   6.49088273  0.00000000 15.26240370
   6.49256317 10.34638719 18.42675933
   3.24680421 11.82991850 18.62424554
   3.25073142 10.35228042 21.96823194
   6.49162066 11.82991834 21.59816061
   3.24544136  1.47873981  8.77152097
   6.49088273  2.95747963  8.77152097
   6.49088273  1.47873981 12.01696233
   3.24544136  2.95747963 12.01696233
   3.24544136  1.47873981 15.26240370
   6.49088273  2.95747963 15.26240370
   6.49256329  1.48353131 18.42675929
   3.24430266  2.95648916 18.61914789
   3.25073148  1.47763757 21.96823172
   6.49495095  2.95455771 21.59614397
   3.24544136  4.43621944  8.77152097
   6.49088273  5.91495925  8.77152097
   6.49088273  4.43621944 12.01696233
   3.24544136  5.91495925 12.01696233
   3.24544136  4.43621944 15.26240370
   6.49088273  5.91495925 15.26240370
   6.49115283  4.44760598 18.46277554
   3.24230318  5.91495926 18.61897337
   3.23318605  4.43098914 21.95019740
   6.47280251  5.91495926 21.67556554
   9.73632409  8.87243888  7.50000000
   9.73632409  8.87243888 10.04304194
   1.27152097  7.39369907  8.77152097
  11.71024448  7.39369907  8.77152097
   0.00000000  8.87243888 10.74544136
   0.00000000  8.87243888 13.28848330
  11.00784506  7.39369907 12.01696233
   1.97392039  7.39369907 12.01696233
   9.73632409  8.87243888 13.99088273
   9.73632409  8.87243888 16.53392466
   1.27152097  7.39369907 15.26240370
  11.71024448  7.39369907 15.26240370
  12.98110202  8.87326230 17.25171195
   0.00347040  8.87160501 19.80213803
  11.03622710  7.39441442 18.52376567
   1.94506097  7.39525761 18.51630419
   9.73797593  8.87424519 20.49041169
   9.73262631  8.87248268 23.04376062
   1.21482468  7.38917110 21.94249341
  11.76047165  7.39515529 21.92977856
   9.73632409  0.00000000  7.50000000
   9.73632409  0.00000000 10.04304194
   1.27152097 10.35117869  8.77152097
  11.71024448 10.35117869  8.77152097
   0.00000000  0.00000000 10.74544136
   0.00000000  0.00000000 13.28848330
  11.00784506 10.35117869 12.01696233
   1.97392039 10.35117869 12.01696233
   9.73632409  0.00000000 13.99088273
   9.73632409  0.00000000 16.53392466
   1.27152097 10.35117869 15.26240370
  11.71024448 10.35117869 15.26240370
  12.98100715 11.82991847 17.25191897
   0.00278282 11.82991846 19.80190678
  11.03687240 10.35104257 18.52443833
   1.94649681 10.35337335 18.52118794
   9.73932938 11.82991843 20.49043596
   9.73998660 11.82991821 23.04453149
   1.21923535 10.35039177 21.93403489
  11.76514029 10.35042665 21.92843772
   9.73632409  2.95747963  7.50000000
   9.73632409  2.95747963 10.04304194
   1.27152097  1.47873981  8.77152097
  11.71024448  1.47873981  8.77152097
   0.00000000  2.95747963 10.74544136
   0.00000000  2.95747963 13.28848330
  11.00784506  1.47873981 12.01696233
   1.97392039  1.47873981 12.01696233
   9.73632409  2.95747963 13.99088273
   9.73632409  2.95747963 16.53392466
   1.27152097  1.47873981 15.26240370
  11.71024448  1.47873981 15.26240370
  12.98110205  2.95665620 17.25171192
   0.00347047  2.95831342 19.80213793
  11.03687242  1.47887581 18.52443831
   1.94649684  1.47654508 18.52118786
   9.73797589  2.95567315 20.49041194
   9.73262616  2.95743515 23.04376124
   1.21923530  1.47952647 21.93403492
  11.76514023  1.47949157 21.92843775
   9.73632409  5.91495925  7.50000000
   9.73632409  5.91495925 10.04304194
   1.27152097  4.43621944  8.77152097
  11.71024448  4.43621944  8.77152097
   0.00000000  5.91495925 10.74544136
   0.00000000  5.91495925 13.28848330
  11.00784506  4.43621944 12.01696233
   1.97392039  4.43621944 12.01696233
   9.73632409  5.91495925 13.99088273
   9.73632409  5.91495925 16.53392466
   1.27152097  4.43621944 15.26240370
  11.71024448  4.43621944 15.26240370
  12.98053237  5.91495927 17.25139747
   0.00124384  5.91495921 19.80120457
  11.03622712  4.43550415 18.52376568
   1.94506100  4.43466088 18.51630413
   9.74250143  5.91495929 20.49194056
   9.72336484  5.91495925 23.04291009
   1.21482467  4.44074707 21.94249354
  11.76047152  4.43476295 21.92977856
   3.24544136  8.87243888  7.50000000
   3.24544136  8.87243888 10.04304194
   7.76240370  7.39369907  8.77152097
   5.21936176  7.39369907  8.77152097
   6.49088273  8.87243888 10.74544136
   6.49088273  8.87243888 13.28848330
   4.51696233  7.39369907 12.01696233
   8.46480312  7.39369907 12.01696233
   3.24544136  8.87243888 13.99088273
   3.24544136  8.87243888 16.53392466
   7.76240370  7.39369907 15.26240370
   5.21936176  7.39369907 15.26240370
   6.48977928  8.86225311 17.25056689
   6.49888765  8.88291328 19.78714671
   4.54134156  7.39368458 18.53246404
[...]
      9.73477      1.47782     21.96749        -0.001365      0.001314     -0.068254
     12.98120      2.95569     21.61468         0.001592     -0.000706     -0.130447
      9.73632      4.43622      8.77152        -0.000752      0.000115     -3.390413
      0.00000      5.91496      8.77152        -0.000541     -0.000011      2.789566
      0.00000      4.43622     12.01696        -0.002913     -0.000000      0.554727
      9.73632      5.91496     12.01696        -0.001911     -0.000023     -0.720226
      9.73632      4.43622     15.26240        -0.012667      0.005158      0.641181
      0.00000      5.91496     15.26240        -0.008689      0.000013     -0.714255
     12.98124      4.43599     18.44162         0.002644      0.000015     -0.117201
      9.73656      5.91496     18.62579         0.000900      0.000035      0.081915
      9.72906      4.43544     21.96660         0.001794      0.009233     -0.064128
     12.96984      5.91496     21.61368        -0.000103     -0.000059     -0.128944
      3.24544      7.39370      8.77152         0.000792      0.000199     -3.391427
      6.49088      8.87244      8.77152         0.000537      0.000338      2.791760
      6.49088      7.39370     12.01696         0.002767      0.006654      0.560404
      3.24544      8.87244     12.01696         0.002389      0.001042     -0.729771
      3.24544      7.39370     15.26240         0.013256      0.003392      0.606191
      6.49088      8.87244     15.26240         0.006119     -0.018483     -0.656931
      6.49115      7.38231     18.46278        -0.004206     -0.013409     -0.100556
      3.24430      8.87343     18.61915         0.001290     -0.001379      0.082317
      3.23319      7.39893     21.95020         0.000138     -0.035112     -0.046357
      6.49495      8.87536     21.59614        -0.003352     -0.017598     -0.126788
      3.24544     10.35118      8.77152         0.000790      0.000374     -3.391296
      6.49088      0.00000      8.77152         0.000458      0.000056      2.792329
      6.49088     10.35118     12.01696         0.002540      0.002372      0.564474
      3.24544      0.00000     12.01696         0.002926      0.000063     -0.728395
      3.24544     10.35118     15.26240         0.008951      0.019978      0.621635
      6.49088      0.00000     15.26240         0.004224     -0.000012     -0.760534
      6.49256     10.34639     18.42676        -0.000440     -0.012146     -0.115681
      3.24680     11.82992     18.62425         0.001256     -0.000038      0.080104
      3.25073     10.35228     21.96823        -0.001299     -0.009457     -0.066201
      6.49162     11.82992     21.59816        -0.001343     -0.000002     -0.130779
      3.24544      1.47874      8.77152         0.000838     -0.000213     -3.391663
      6.49088      2.95748      8.77152         0.000483     -0.000321      2.791858
      6.49088      1.47874     12.01696         0.002497     -0.002372      0.564450
      3.24544      2.95748     12.01696         0.002422     -0.001028     -0.729824
      3.24544      1.47874     15.26240         0.008943     -0.020003      0.621639
      6.49088      2.95748     15.26240         0.006133      0.018429     -0.656952
      6.49256      1.48353     18.42676        -0.000432      0.012105     -0.115643
      3.24430      2.95649     18.61915         0.001266      0.001374      0.082350
      3.25073      1.47764     21.96823        -0.001352      0.009364     -0.066232
      6.49495      2.95456     21.59614        -0.003337      0.017607     -0.126154
      3.24544      4.43622      8.77152         0.000594     -0.000319     -3.391810
      6.49088      5.91496      8.77152         0.000568     -0.000009      2.791422
      6.49088      4.43622     12.01696         0.002792     -0.006659      0.560397
      3.24544      5.91496     12.01696         0.001978     -0.000019     -0.730991
      3.24544      4.43622     15.26240         0.013235     -0.003362      0.606158
      6.49088      5.91496     15.26240         0.008358     -0.000000     -0.661347
      6.49115      4.44761     18.46278        -0.004162      0.013454     -0.100515
      3.24230      5.91496     18.61897        -0.000469      0.000038      0.089504
      3.23319      4.43099     21.95020         0.000086      0.035132     -0.046305
      6.47280      5.91496     21.67557         0.005200      0.000037     -0.322530
      9.73632      8.87244      7.50000         0.000157     -0.000096      1.765308
      9.73632      8.87244     10.04304         0.000347     -0.000065      1.777695
      1.27152      7.39370      8.77152        -1.808174     -0.000043     -0.760305
     11.71024      7.39370      8.77152         1.808918     -0.000017     -0.760465
      0.00000      8.87244     10.74544         0.000370     -0.000024     -1.389477
      0.00000      8.87244     13.28848         0.000710     -0.000001     -0.105892
     11.00785      7.39370     12.01696         0.465643      0.000006      0.049950
      1.97392      7.39370     12.01696        -0.462535     -0.000306      0.051147
      9.73632      8.87244     13.99088         0.001642      0.000914     -0.118510
      9.73632      8.87244     16.53392         0.005132     -0.002140      0.044835
      1.27152      7.39370     15.26240        -0.423187     -0.000136      0.088197
     11.71024      7.39370     15.26240         0.437086      0.001072      0.084857
     12.98110      8.87326     17.25171        -0.000906      0.000271      0.036762
      0.00347      8.87161     19.80214        -0.000451     -0.000296      0.148322
     11.03623      7.39441     18.52377         0.037932      0.001113     -0.004461
      1.94506      7.39526     18.51630        -0.042808      0.001184     -0.005829
      9.73798      8.87425     20.49041         0.000073     -0.000065     -0.118827
      9.73263      8.87248     23.04376        -0.002351     -0.001564      0.226626
      1.21482      7.38917     21.94249         0.072218      0.000525      0.037191
     11.76047      7.39516     21.92978        -0.069350     -0.000237      0.032740
      9.73632      0.00000      7.50000         0.000134     -0.000035      1.765312
      9.73632      0.00000     10.04304         0.000385      0.000013      1.777719
      1.27152     10.35118      8.77152        -1.808211     -0.000007     -0.760302
     11.71024     10.35118      8.77152         1.809004     -0.000033     -0.760400
      0.00000      0.00000     10.74544         0.000383      0.000012     -1.389475
      0.00000      0.00000     13.28848         0.000641      0.000011     -0.105651
     11.00785     10.35118     12.01696         0.465596     -0.000024      0.050065
      1.97392     10.35118     12.01696        -0.462771     -0.000339      0.051061
      9.73632      0.00000     13.99088         0.001066     -0.000014     -0.117622
      9.73632      0.00000     16.53392         0.012334     -0.000006      0.034654
      1.27152     10.35118     15.26240        -0.426104     -0.000846      0.086580
     11.71024     10.35118     15.26240         0.435064      0.000186      0.084346
     12.98101     11.82992     17.25192        -0.000469     -0.000045      0.035718
      0.00278     11.82992     19.80191        -0.000363     -0.000003      0.147959
     11.03687     10.35104     18.52444         0.038889     -0.000161     -0.003999
      1.94650     10.35337     18.52119        -0.041477      0.001020     -0.004953
      9.73933     11.82992     20.49044        -0.000543      0.000006     -0.116713
      9.73999     11.82992     23.04453        -0.000396      0.000042      0.226692
      1.21924     10.35039     21.93403         0.064432      0.000590      0.035112
     11.76514     10.35043     21.92844        -0.073013     -0.000911      0.033964
      9.73632      2.95748      7.50000         0.000155      0.000092      1.765220
      9.73632      2.95748     10.04304         0.000340      0.000020      1.777699
      1.27152      1.47874      8.77152        -1.808197      0.000007     -0.760371
     11.71024      1.47874      8.77152         1.808928      0.000012     -0.760459
      0.00000      2.95748     10.74544         0.000351      0.000030     -1.389385
      0.00000      2.95748     13.28848         0.000727     -0.000014     -0.105938
     11.00785      1.47874     12.01696         0.465611      0.000018      0.050053
      1.97392      1.47874     12.01696        -0.462765      0.000323      0.051039
      9.73632      2.95748     13.99088         0.001656     -0.000927     -0.118529
      9.73632      2.95748     16.53392         0.005147      0.002132      0.044871
      1.27152      1.47874     15.26240        -0.426121      0.000823      0.086578
     11.71024      1.47874     15.26240         0.435066     -0.000211      0.084335
     12.98110      2.95666     17.25171        -0.000902     -0.000239      0.036746
      0.00347      2.95831     19.80214        -0.000445      0.000281      0.148402
     11.03687      1.47888     18.52444         0.038832      0.000186     -0.003988
      1.94650      1.47655     18.52119        -0.041472     -0.001003     -0.004925
      9.73798      2.95567     20.49041         0.000083      0.000092     -0.118804
      9.73263      2.95744     23.04376        -0.002354      0.001557      0.226626
      1.21924      1.47953     21.93403         0.064431     -0.000607      0.035079
     11.76514      1.47949     21.92844        -0.072987      0.000940      0.033915
      9.73632      5.91496      7.50000         0.000123     -0.000067      1.765201
      9.73632      5.91496     10.04304         0.000292     -0.000016      1.777601
      1.27152      4.43622      8.77152        -1.808065     -0.000007     -0.760336
     11.71024      4.43622      8.77152         1.808906      0.000025     -0.760460
      0.00000      5.91496     10.74544         0.000352     -0.000050     -1.389434
      0.00000      5.91496     13.28848         0.000768     -0.000014     -0.106236
     11.00785      4.43622     12.01696         0.465678     -0.000014      0.049950
      1.97392      4.43622     12.01696        -0.462575      0.000304      0.051127
      9.73632      5.91496     13.99088         0.002481      0.000010     -0.119828
      9.73632      5.91496     16.53392         0.003747      0.000006      0.049534
      1.27152      4.43622     15.26240        -0.423171      0.000169      0.088194
     11.71024      4.43622     15.26240         0.437073     -0.001052      0.084857
     12.98053      5.91496     17.25140        -0.000882     -0.000004      0.037507
      0.00124      5.91496     19.80120        -0.000069     -0.000013      0.148937
     11.03623      4.43550     18.52377         0.037938     -0.001148     -0.004456
      1.94506      4.43466     18.51630        -0.042846     -0.001203     -0.005809
      9.74250      5.91496     20.49194        -0.000559     -0.000021     -0.120471
      9.72336      5.91496     23.04291        -0.002449      0.000003      0.217258
      1.21482      4.44075     21.94249         0.072206     -0.000464      0.037180
     11.76047      4.43476     21.92978        -0.069354      0.000231      0.032698
      3.24544      8.87244      7.50000        -0.000222     -0.000142      1.765884
      3.24544      8.87244     10.04304        -0.000351     -0.000240      1.780157
      7.76240      7.39370      8.77152        -1.808247     -0.000243     -0.760745
      5.21936      7.39370      8.77152         1.807390     -0.000187     -0.760612
      6.49088      8.87244     10.74544        -0.000350     -0.001346     -1.393860
      6.49088      8.87244     13.28848        -0.000931     -0.003083     -0.123983
      4.51696      7.39370     12.01696         0.459256     -0.000645      0.050746
      8.46480      7.39370     12.01696        -0.462470     -0.000277      0.049611
      3.24544      8.87244     13.99088        -0.001553     -0.004563     -0.105156
      3.24544      8.87244     16.53392        -0.000556     -0.004630      0.051099
      7.76240      7.39370     15.26240        -0.426066     -0.017494      0.077417
      5.21936      7.39370     15.26240         0.409822     -0.017900      0.077429
      6.48978      8.86225     17.25057        -0.000285      0.010350      0.035405
      6.49889      8.88291     19.78715         0.000300      0.003265      0.148563
      4.54134      7.39368     18.53246         0.042671      0.000435     -0.004382
      8.44004      7.39297     18.52731        -0.039015     -0.000193     -0.004971
      3.22755      8.87689     20.48877        -0.001298      0.000675     -0.117821
      3.25416      8.86657     23.04172         0.004627     -0.002720      0.225993
      7.70603      7.40423     21.91278         0.064515     -0.005069      0.021264
      5.25552      7.42124     21.86622        -0.051286     -0.009406      0.017867
      3.24544      0.00000      7.50000        -0.000158     -0.000003      1.765906
      3.24544      0.00000     10.04304        -0.000445     -0.000020      1.779673
      7.76240     10.35118      8.77152        -1.808176     -0.000179     -0.760722
      5.21936     10.35118      8.77152         1.807360     -0.000150     -0.760640
      6.49088      0.00000     10.74544        -0.000425      0.000021     -1.394857
      6.49088      0.00000     13.28848        -0.000700      0.000016     -0.130844
      4.51696     10.35118     12.01696         0.458161     -0.000391      0.050475
      8.46480     10.35118     12.01696        -0.461108     -0.000120      0.049516
      3.24544      0.00000     13.99088        -0.001532     -0.000002     -0.107939
      3.24544      0.00000     16.53392         0.002460     -0.000012      0.038120
      7.76240     10.35118     15.26240        -0.422131     -0.005680      0.084765
      5.21936     10.35118     15.26240         0.412099     -0.006046      0.083918
      6.49048     11.82992     17.24321        -0.000326      0.000000      0.041053
      6.49077     11.82992     19.78821         0.000227      0.000011      0.143069
      4.54261     10.35024     18.52151         0.041963      0.001325     -0.004450
      8.43992     10.35221     18.51829        -0.039700      0.001736     -0.004900
      3.24523     11.82992     20.49345        -0.002360     -0.000001     -0.116242
      3.24621     11.82992     23.04597        -0.003097     -0.000004      0.227455
      7.71120     10.35751     21.92181         0.067331     -0.000004      0.035361
      5.27228     10.35285     21.92208        -0.070234     -0.001983      0.035087
      3.24544      2.95748      7.50000        -0.000181      0.000116      1.765910
      3.24544      2.95748     10.04304        -0.000354      0.000235      1.780152
      7.76240      1.47874      8.77152        -1.808169      0.000178     -0.760749
      5.21936      1.47874      8.77152         1.807373      0.000173     -0.760669
      6.49088      2.95748     10.74544        -0.000354      0.001296     -1.393886
      6.49088      2.95748     13.28848        -0.000937      0.003059     -0.124000
      4.51696      1.47874     12.01696         0.458190      0.000373      0.050469
      8.46480      1.47874     12.01696        -0.461145      0.000091      0.049518
      3.24544      2.95748     13.99088        -0.001556      0.004561     -0.105185
      3.24544      2.95748     16.53392        -0.000591      0.004621      0.051076
      7.76240      1.47874     15.26240        -0.422142      0.005659      0.084759
      5.21936      1.47874     15.26240         0.412115      0.006022      0.083917
      6.48978      2.96767     17.25057        -0.000275     -0.010349      0.035390
      6.49889      2.94701     19.78715         0.000321     -0.003290      0.148387
      4.54261      1.47968     18.52151         0.041991     -0.001345     -0.004420
      8.43992      1.47770     18.51829        -0.039675     -0.001718     -0.004886
      3.22755      2.95303     20.48877        -0.001296     -0.000656     -0.117848
      3.25416      2.96335     23.04172         0.004653      0.002742      0.225972
      7.71120      1.47241     21.92181         0.067358      0.000024      0.035413
      5.27228      1.47707     21.92208        -0.070238      0.001998      0.035127
      3.24544      5.91496      7.50000        -0.000158     -0.000064      1.765949
      3.24544      5.91496     10.04304        -0.000348      0.000008      1.780453
      7.76240      4.43622      8.77152        -1.808208      0.000190     -0.760773
      5.21936      4.43622      8.77152         1.807376      0.000164     -0.760647
      6.49088      5.91496     10.74544        -0.000360     -0.000021     -1.392364
      6.49088      5.91496     13.28848        -0.001046      0.000005     -0.098788
      4.51696      4.43622     12.01696         0.459252      0.000638      0.050729
      8.46480      4.43622     12.01696        -0.462484      0.000303      0.049613
      3.24544      5.91496     13.99088        -0.002558      0.000007     -0.103376
      3.24544      5.91496     16.53392         0.003453     -0.000002      0.050469
      7.76240      4.43622     15.26240        -0.426088      0.017506      0.077416
      5.21936      4.43622     15.26240         0.409816      0.017916      0.077398
      6.48964      5.91496     17.25841         0.000053      0.000022      0.036973
      6.49338      5.91496     19.82488         0.001540      0.000008      0.122249
      4.54134      4.43623     18.53246         0.042637     -0.000436     -0.004379
      8.44004      4.43695     18.52731        -0.039012      0.000154     -0.004923
      3.21577      5.91496     20.48543        -0.002306      0.000018     -0.125231
      3.30432      5.91496     23.03713        -0.011333      0.000016      0.160454
      7.70603      4.42569     21.91278         0.064550      0.005123      0.021306
      5.25552      4.40867     21.86622        -0.051251      0.009459      0.017920
 -----------------------------------------------------------------------------------
    total drift:                                0.003544      0.000233      0.065209


--------------------------------------------------------------------------------------------------------



  FREE ENERGIE OF THE ION-ELECTRON SYSTEM (eV)
  ---------------------------------------------------
  free  energy   TOTEN  =     -2148.69646196 eV

  energy  without entropy=    -2148.69646196  energy(sigma->0) =    -2148.69646196



--------------------------------------------------------------------------------------------------------


    POTLOK:  cpu time      0.9313: real time      0.9317


--------------------------------------------------------------------------------------------------------


     LOOP+:  cpu time    814.7067: real time    815.1871
    4ORBIT:  cpu time      0.0000: real time      0.0000

 total amount of memory used by VASP MPI-rank0   177666. kBytes
=======================================================================

   base      :      30000. kBytes
   nonl-proj :      60632. kBytes
   fftplans  :       7947. kBytes
   grid      :      13664. kBytes
   one-center:        248. kBytes
   wavefun   :      65175. kBytes

  
  
 General timing and accounting informations for this job:
 ========================================================
  
                  Total CPU time used (sec):      899.524
                            User time (sec):      888.989
                          System time (sec):       10.535
                         Elapsed time (sec):      913.503
  
                   Maximum memory used (kb):      536688.
                   Average memory used (kb):          N/A
  
                          Minor page faults:      1019195
                          Major page faults:          739
                 Voluntary context switches:        10912
