 vasp.6.3.0 20Jan22 (build Apr  1 2022 16:44:48) complex                         
 executed on        HPECrayEX_GCC date 2022.11.01  21:15:54
 running  512 mpi-ranks, with    1 threads/rank
 distrk:  each k-point on  512 cores,    1 groups
 distr:  one band on NCORE=   8 cores,   64 groups


--------------------------------------------------------------------------------------------------------


 INCAR:
   SYSTEM = MgO-rocksalt
   ISMEAR = 0
   SIGMA = 0.05
   EDIFF = 1E-9
   ALGO = ALL
   ISTART = 0
   IBRION = 2
   NSW = 1000
   ISYM = 0
   ISIF = 2
   EDIFFG = -0.01
   DIPOL = 0.5 0.5 0.5
   IDIPOL = 3
   LDIPOL = .TRUE.
   GGA = PE
   IVDW = 1
   VDW_C6 = 1.23 0.70 0.63 0.70
   VDW_R0 = 1.397 1.342 1.243 1.342
   ENCUT = 600
   PREC = Accurate
   LASPH = .TRUE.
   LREAL = .FALSE.
   ISPIN = 2
   MAGMOM = 1.0 0.0 0.0 0.0 0.0 0.0 0.0 0.0 0.0 0.0 0.0 0.0 0.0 0.0 0.0 0.0 0.0 0.0 0.0 0.0 0.0 0.0 0.0 0.0 0.0 0.0 0.0 0.0 0.0 0.0 0.0 0.0 0.0 0.0 0.0 0.0 0.0 0.0 0.0 0.0 0.0 0.0 0.0 0.0 0.0 0.0 0.0 0.0 0.0 0.0 0.0 0.0 0.0 0.0 0.0 0.0 0.0 0.0 0.0 0.0 0.0 0.0 0.0 0.0 0.0 0.0
   NELM = 200
   NELMIN = 8
   NCORE = 8
   KPAR = 1
   LWAVE = .FALSE.
   LCHARG = .FALSE.

 POTCAR:    PAW_PBE N 08Apr2002                   
 POTCAR:    PAW_PBE O 08Apr2002                   
 POTCAR:    PAW_PBE Mg_pv 13Apr2007               
 POTCAR:    PAW_PBE O 08Apr2002                   
 POTCAR:    PAW_PBE N 08Apr2002                   
   SHA256 =  e053789ff3a61a86a1b75d8a110fcc91f86041011e7b0817c7c99e4e8a6349d7 N/POTCAR              
   COPYR  = (c) Copyright 08Apr2002 Georg Kresse                                                    
   COPYR  = This file is part of the software VASP. Any use, copying, and all other rights are regul
   COPYR  = If you do not have a valid VASP license, you may not use, copy or distribute this file. 
   VRHFIN =N: s2p3                                                                                  
   LEXCH  = PE                                                                                      
   EATOM  =   264.5486 eV,   19.4438 Ry                                                             
                                                                                                    
   TITEL  = PAW_PBE N 08Apr2002                                                                     
   LULTRA =        F    use ultrasoft PP ?                                                          
   IUNSCR =        1    unscreen: 0-lin 1-nonlin 2-no                                               
   RPACOR =    1.200    partial core radius                                                         
   POMASS =   14.001; ZVAL   =    5.000    mass and valenz                                          
   RCORE  =    1.500    outmost cutoff radius                                                       
   RWIGS  =    1.400; RWIGS  =    0.741    wigner-seitz radius (au A)                               
   ENMAX  =  400.000; ENMIN  =  300.000 eV                                                          
   ICORE  =        2    local potential                                                             
   LCOR   =        T    correct aug charges                                                         
   LPAW   =        T    paw PP                                                                      
   EAUG   =  627.112                                                                                
   DEXC   =    0.000                                                                                
   RMAX   =    1.529    core radius for proj-oper                                                   
   RAUG   =    1.300    factor for augmentation sphere                                              
   RDEP   =    1.514    radius for radial grids                                                     
   RDEPT  =    1.338    core radius for aug-charge                                                  
                                                                                                    
   Atomic configuration                                                                             
    4 entries                                                                                       
     n  l   j            E        occ.                                                              
     1  0  0.50      -384.7179   2.0000                                                             
     2  0  0.50       -18.5828   2.0000                                                             
     2  1  0.50        -7.0898   3.0000                                                             
     3  2  1.50        -6.8029   0.0000                                                             
   Description                                                                                      
     l       E           TYP  RCUT    TYP  RCUT                                                     
     0    -18.5828119     23  1.200                                                                 
     0    -13.5018863     23  1.200                                                                 
     1     -7.0897853     23  1.500                                                                 
     1      9.5240782     23  1.500                                                                 
     2     -6.8029130      7  1.500                                                                 
  local pseudopotential read in
  partial core-charges read in
  partial kinetic energy density read in
  atomic valenz-charges read in
  non local Contribution for L=           0  read in
    real space projection operators read in
  non local Contribution for L=           0  read in
    real space projection operators read in
  non local Contribution for L=           1  read in
    real space projection operators read in
  non local Contribution for L=           1  read in
    real space projection operators read in
    PAW grid and wavefunctions read in

   number of l-projection  operators is LMAX  =           4
   number of lm-projection operators is LMMAX =           8

 POTCAR:    PAW_PBE O 08Apr2002                   
   SHA256 =  818f92134a0a090dccd8ba1447fa70422a3b330e708bb4f08108d8ae51209ddf O/POTCAR              
   COPYR  = (c) Copyright 08Apr2002 Georg Kresse                                                    
   COPYR  = This file is part of the software VASP. Any use, copying, and all other rights are regul
   COPYR  = If you do not have a valid VASP license, you may not use, copy or distribute this file. 
   VRHFIN =O: s2p4                                                                                  
   LEXCH  = PE                                                                                      
   EATOM  =   432.3788 eV,   31.7789 Ry                                                             
                                                                                                    
   TITEL  = PAW_PBE O 08Apr2002                                                                     
   LULTRA =        F    use ultrasoft PP ?                                                          
   IUNSCR =        1    unscreen: 0-lin 1-nonlin 2-no                                               
   RPACOR =    1.200    partial core radius                                                         
   POMASS =   16.000; ZVAL   =    6.000    mass and valenz                                          
   RCORE  =    1.520    outmost cutoff radius                                                       
   RWIGS  =    1.550; RWIGS  =    0.820    wigner-seitz radius (au A)                               
   ENMAX  =  400.000; ENMIN  =  300.000 eV                                                          
   ICORE  =        2    local potential                                                             
   LCOR   =        T    correct aug charges                                                         
   LPAW   =        T    paw PP                                                                      
   EAUG   =  605.392                                                                                
   DEXC   =    0.000                                                                                
   RMAX   =    1.553    core radius for proj-oper                                                   
   RAUG   =    1.300    factor for augmentation sphere                                              
   RDEP   =    1.550    radius for radial grids                                                     
   RDEPT  =    1.329    core radius for aug-charge                                                  
                                                                                                    
   Atomic configuration                                                                             
    4 entries                                                                                       
     n  l   j            E        occ.                                                              
     1  0  0.50      -514.6923   2.0000                                                             
     2  0  0.50       -23.9615   2.0000                                                             
     2  1  0.50        -9.0305   4.0000                                                             
     3  2  1.50        -9.5241   0.0000                                                             
   Description                                                                                      
     l       E           TYP  RCUT    TYP  RCUT                                                     
     0    -23.9615318     23  1.200                                                                 
     0     -9.5240782     23  1.200                                                                 
     1     -9.0304911     23  1.520                                                                 
     1      8.1634956     23  1.520                                                                 
     2     -9.5240782      7  1.500                                                                 
  local pseudopotential read in
  partial core-charges read in
  partial kinetic energy density read in
  kinetic energy density of atom read in
  atomic valenz-charges read in
  non local Contribution for L=           0  read in
    real space projection operators read in
  non local Contribution for L=           0  read in
    real space projection operators read in
  non local Contribution for L=           1  read in
    real space projection operators read in
  non local Contribution for L=           1  read in
    real space projection operators read in
    PAW grid and wavefunctions read in

   number of l-projection  operators is LMAX  =           4
   number of lm-projection operators is LMMAX =           8

 POTCAR:    PAW_PBE Mg_pv 13Apr2007               
   SHA256 =  f474ac0dd33840b9ae76c01d57fea79fdf77cdfbb07d5ade72c65f83c709b62b Mg_pv/POTCAR          
   COPYR  = (c) Copyright 13Apr2007 Georg Kresse                                                    
   COPYR  = This file is part of the software VASP. Any use, copying, and all other rights are regul
   COPYR  = If you do not have a valid VASP license, you may not use, copy or distribute this file. 
   VRHFIN =Mg: p6s2                                                                                 
   LEXCH  = PE                                                                                      
   EATOM  =  1056.7344 eV,   77.6678 Ry                                                             
                                                                                                    
   TITEL  = PAW_PBE Mg_pv 13Apr2007                                                                 
   LULTRA =        F    use ultrasoft PP ?                                                          
   IUNSCR =        1    unscreen: 0-lin 1-nonlin 2-no                                               
   RPACOR =    1.500    partial core radius                                                         
   POMASS =   24.305; ZVAL   =    8.000    mass and valenz                                          
   RCORE  =    2.000    outmost cutoff radius                                                       
   RWIGS  =    2.000; RWIGS  =    1.058    wigner-seitz radius (au A)                               
   ENMAX  =  403.929; ENMIN  =  302.947 eV                                                          
   RCLOC  =    1.506    cutoff for local pot                                                        
   LCOR   =        T    correct aug charges                                                         
   LPAW   =        T    paw PP                                                                      
   EAUG   =  758.780                                                                                
   DEXC   =    0.000                                                                                
   RMAX   =    2.045    core radius for proj-oper                                                   
   RAUG   =    1.300    factor for augmentation sphere                                              
   RDEP   =    2.025    radius for radial grids                                                     
   RDEPT  =    1.557    core radius for aug-charge                                                  
                                                                                                    
   Atomic configuration                                                                             
    5 entries                                                                                       
     n  l   j            E        occ.                                                              
     1  0  0.50     -1259.6230   2.0000                                                             
     2  0  0.50       -79.8442   2.0000                                                             
     2  1  1.50       -46.6121   6.0000                                                             
     3  0  0.50        -4.7055   2.0000                                                             
     3  2  1.50        -1.3606   0.0000                                                             
   Description                                                                                      
     l       E           TYP  RCUT    TYP  RCUT                                                     
     1    -46.6121073     23  1.600                                                                 
     1      2.7211652     23  1.600                                                                 
     0     -4.7054661     23  2.000                                                                 
     0     61.2262170     23  2.000                                                                 
     2     -1.3605826     23  2.000                                                                 
  local pseudopotential read in
  partial core-charges read in
  partial kinetic energy density read in
  atomic valenz-charges read in
  non local Contribution for L=           1  read in
    real space projection operators read in
  non local Contribution for L=           1  read in
    real space projection operators read in
  non local Contribution for L=           0  read in
    real space projection operators read in
  non local Contribution for L=           0  read in
    real space projection operators read in
  non local Contribution for L=           2  read in
    real space projection operators read in
    PAW grid and wavefunctions read in

   number of l-projection  operators is LMAX  =           5
   number of lm-projection operators is LMMAX =          13

 POTCAR:    PAW_PBE O 08Apr2002                   
   SHA256 =  818f92134a0a090dccd8ba1447fa70422a3b330e708bb4f08108d8ae51209ddf O/POTCAR              
   COPYR  = (c) Copyright 08Apr2002 Georg Kresse                                                    
   COPYR  = This file is part of the software VASP. Any use, copying, and all other rights are regul
   COPYR  = If you do not have a valid VASP license, you may not use, copy or distribute this file. 
   VRHFIN =O: s2p4                                                                                  
   LEXCH  = PE                                                                                      
   EATOM  =   432.3788 eV,   31.7789 Ry                                                             
                                                                                                    
   TITEL  = PAW_PBE O 08Apr2002                                                                     
   LULTRA =        F    use ultrasoft PP ?                                                          
   IUNSCR =        1    unscreen: 0-lin 1-nonlin 2-no                                               
   RPACOR =    1.200    partial core radius                                                         
   POMASS =   16.000; ZVAL   =    6.000    mass and valenz                                          
   RCORE  =    1.520    outmost cutoff radius                                                       
   RWIGS  =    1.550; RWIGS  =    0.820    wigner-seitz radius (au A)                               
   ENMAX  =  400.000; ENMIN  =  300.000 eV                                                          
   ICORE  =        2    local potential                                                             
   LCOR   =        T    correct aug charges                                                         
   LPAW   =        T    paw PP                                                                      
   EAUG   =  605.392                                                                                
   DEXC   =    0.000                                                                                
   RMAX   =    1.553    core radius for proj-oper                                                   
   RAUG   =    1.300    factor for augmentation sphere                                              
   RDEP   =    1.550    radius for radial grids                                                     
   RDEPT  =    1.329    core radius for aug-charge                                                  
                                                                                                    
   Atomic configuration                                                                             
    4 entries                                                                                       
     n  l   j            E        occ.                                                              
     1  0  0.50      -514.6923   2.0000                                                             
     2  0  0.50       -23.9615   2.0000                                                             
     2  1  0.50        -9.0305   4.0000                                                             
     3  2  1.50        -9.5241   0.0000                                                             
   Description                                                                                      
     l       E           TYP  RCUT    TYP  RCUT                                                     
     0    -23.9615318     23  1.200                                                                 
     0     -9.5240782     23  1.200                                                                 
     1     -9.0304911     23  1.520                                                                 
     1      8.1634956     23  1.520                                                                 
     2     -9.5240782      7  1.500                                                                 
  local pseudopotential read in
  partial core-charges read in
  partial kinetic energy density read in
  kinetic energy density of atom read in
  atomic valenz-charges read in
  non local Contribution for L=           0  read in
    real space projection operators read in
  non local Contribution for L=           0  read in
    real space projection operators read in
  non local Contribution for L=           1  read in
    real space projection operators read in
  non local Contribution for L=           1  read in
    real space projection operators read in
    PAW grid and wavefunctions read in

   number of l-projection  operators is LMAX  =           4
   number of lm-projection operators is LMMAX =           8

 -----------------------------------------------------------------------------
|                                                                             |
|               ----> ADVICE to this user running VASP <----                  |
|                                                                             |
|     You have a (more or less) 'large supercell' and for larger cells it     |
|     might be more efficient to use real-space projection operators.         |
|     Therefore, try LREAL= Auto in the INCAR file.                           |
|     Mind: For very accurate calculation, you might also keep the            |
|     reciprocal projection scheme (i.e. LREAL=.FALSE.).                      |
|                                                                             |
 -----------------------------------------------------------------------------

  PAW_PBE N 08Apr2002                   :
 energy of atom  1       EATOM= -264.5486
 kinetic energy error for atom=    0.0103 (will be added to EATOM!!)
  PAW_PBE O 08Apr2002                   :
 energy of atom  2       EATOM= -432.3788
 kinetic energy error for atom=    0.0168 (will be added to EATOM!!)
  PAW_PBE Mg_pv 13Apr2007               :
 energy of atom  3       EATOM=-1056.7344
 kinetic energy error for atom=    0.0221 (will be added to EATOM!!)
  PAW_PBE O 08Apr2002                   :
 energy of atom  4       EATOM= -432.3788
 kinetic energy error for atom=    0.0168 (will be added to EATOM!!)


 POSCAR:  N  O Mg  O
  positions in direct lattice
  No initial velocities read in
 exchange correlation table for  LEXCH =        8
   RHO(1)=    0.500       N(1)  =     2000
   RHO(2)=  100.500       N(2)  =     4000



--------------------------------------------------------------------------------------------------------


 ion  position               nearest neighbor table
   1  0.643  0.500  0.745-   2 1.19
   2  0.704  0.587  0.781-   1 1.19
   3  0.250  0.000  0.351-  35 2.12  37 2.12  38 2.12  45 2.12  54 2.12
   4  0.500  0.250  0.351-  36 2.12  37 2.12  38 2.12  46 2.12  53 2.12
   5  0.250  0.250  0.450-  37 2.12  36 2.12  35 2.12  43 2.12  52 2.12  41 2.12
   6  0.500  0.000  0.450-  38 2.12  36 2.12  35 2.12  44 2.12  51 2.12  42 2.12
   7  0.250  0.000  0.550-  41 2.12  42 2.12  49 2.12  58 2.12  35 2.13  39 2.15
   8  0.500  0.250  0.550-  41 2.12  42 2.12  50 2.12  57 2.12  36 2.13  40 2.15
   9  0.250  0.250  0.649-  41 2.11  40 2.12  39 2.12  47 2.12  56 2.12
  10  0.500  0.000  0.649-  42 2.11  40 2.12  39 2.12  48 2.12  55 2.12
  11  0.250  0.500  0.351-  43 2.12  37 2.12  45 2.12  46 2.12  62 2.12
  12  0.500  0.750  0.351-  44 2.12  38 2.12  45 2.12  46 2.12  61 2.12
  13  0.250  0.750  0.450-  45 2.12  43 2.12  44 2.12  35 2.12  60 2.12  49 2.12
  14  0.500  0.500  0.450-  46 2.12  43 2.12  44 2.12  36 2.12  59 2.12  50 2.12
  15  0.250  0.500  0.550-  41 2.12  49 2.12  50 2.12  66 2.12  43 2.13  47 2.15
  16  0.500  0.750  0.550-  42 2.12  49 2.12  50 2.12  65 2.12  44 2.13  48 2.15
  17  0.250  0.750  0.649-  49 2.11  47 2.12  48 2.12  39 2.12  64 2.12
  18  0.500  0.500  0.649-  50 2.11  47 2.12  48 2.12  40 2.12  63 2.12
  19  0.750  0.000  0.351-  51 2.12  38 2.12  53 2.12  54 2.12  61 2.12
  20  0.000  0.250  0.351-  52 2.12  37 2.12  53 2.12  54 2.12  62 2.12
  21  0.750  0.250  0.450-  53 2.12  51 2.12  52 2.12  36 2.12  59 2.12  57 2.12
  22  0.000  0.000  0.450-  54 2.12  51 2.12  52 2.12  35 2.12  60 2.12  58 2.12
  23  0.750  0.000  0.550-  42 2.12  57 2.12  58 2.12  65 2.12  51 2.13  55 2.15
  24  0.000  0.250  0.550-  41 2.12  57 2.12  58 2.12  66 2.12  52 2.13  56 2.15
  25  0.750  0.250  0.649-  57 2.11  55 2.12  56 2.12  40 2.12  63 2.12
  26  0.000  0.000  0.649-  58 2.11  55 2.12  56 2.12  39 2.12  64 2.12
  27  0.750  0.500  0.351-  59 2.12  53 2.12  46 2.12  61 2.12  62 2.12
  28  0.000  0.750  0.351-  60 2.12  54 2.12  45 2.12  61 2.12  62 2.12
  29  0.750  0.750  0.450-  61 2.12  51 2.12  59 2.12  60 2.12  44 2.12  65 2.12
  30  0.000  0.500  0.450-  62 2.12  52 2.12  59 2.12  60 2.12  43 2.12  66 2.12
  31  0.750  0.500  0.550-  50 2.12  57 2.12  65 2.12  66 2.12  59 2.13  63 2.15
  32  0.000  0.750  0.550-  49 2.12  58 2.12  65 2.12  66 2.12  60 2.13  64 2.15
  33  0.750  0.750  0.649-  65 2.11  55 2.12  63 2.12  64 2.12  48 2.12
  34  0.000  0.500  0.649-  66 2.11  56 2.12  63 2.12  64 2.12  47 2.12
  35  0.250  0.000  0.450-   3 2.12   5 2.12   6 2.12  13 2.12  22 2.12   7 2.13
  36  0.500  0.250  0.450-   4 2.12   5 2.12   6 2.12  14 2.12  21 2.12   8 2.13
  37  0.250  0.250  0.351-   5 2.12   4 2.12   3 2.12  11 2.12  20 2.12
  38  0.500  0.000  0.351-   6 2.12   4 2.12   3 2.12  12 2.12  19 2.12
  39  0.250  0.000  0.651-   9 2.12  10 2.12  17 2.12  26 2.12   7 2.15
  40  0.500  0.250  0.651-   9 2.12  10 2.12  18 2.12  25 2.12   8 2.15
  41  0.250  0.250  0.550-   9 2.11   8 2.12   7 2.12  15 2.12  24 2.12   5 2.12
  42  0.500  0.000  0.550-  10 2.11   8 2.12   7 2.12  16 2.12  23 2.12   6 2.12
  43  0.250  0.500  0.450-  11 2.12   5 2.12  13 2.12  14 2.12  30 2.12  15 2.13
  44  0.500  0.750  0.450-  12 2.12   6 2.12  13 2.12  14 2.12  29 2.12  16 2.13
  45  0.250  0.750  0.351-  13 2.12  11 2.12  12 2.12   3 2.12  28 2.12
  46  0.500  0.500  0.351-  14 2.12  11 2.12  12 2.12   4 2.12  27 2.12
  47  0.250  0.500  0.651-   9 2.12  17 2.12  18 2.12  34 2.12  15 2.15
  48  0.500  0.750  0.651-  10 2.12  17 2.12  18 2.12  33 2.12  16 2.15
  49  0.250  0.750  0.550-  17 2.11  15 2.12  16 2.12   7 2.12  32 2.12  13 2.12
  50  0.500  0.500  0.550-  18 2.11  15 2.12  16 2.12   8 2.12  31 2.12  14 2.12
  51  0.750  0.000  0.450-  19 2.12   6 2.12  21 2.12  22 2.12  29 2.12  23 2.13
  52  0.000  0.250  0.450-  20 2.12   5 2.12  21 2.12  22 2.12  30 2.12  24 2.13
  53  0.750  0.250  0.351-  21 2.12  19 2.12  20 2.12   4 2.12  27 2.12
  54  0.000  0.000  0.351-  22 2.12  19 2.12  20 2.12   3 2.12  28 2.12
  55  0.750  0.000  0.651-  10 2.12  25 2.12  26 2.12  33 2.12  23 2.15
  56  0.000  0.250  0.651-   9 2.12  25 2.12  26 2.12  34 2.12  24 2.15
  57  0.750  0.250  0.550-  25 2.11  23 2.12  24 2.12   8 2.12  31 2.12  21 2.12
  58  0.000  0.000  0.550-  26 2.11  23 2.12  24 2.12   7 2.12  32 2.12  22 2.12
  59  0.750  0.500  0.450-  27 2.12  21 2.12  14 2.12  29 2.12  30 2.12  31 2.13
  60  0.000  0.750  0.450-  28 2.12  22 2.12  13 2.12  29 2.12  30 2.12  32 2.13
  61  0.750  0.750  0.351-  29 2.12  19 2.12  27 2.12  28 2.12  12 2.12
  62  0.000  0.500  0.351-  30 2.12  20 2.12  27 2.12  28 2.12  11 2.12
  63  0.750  0.500  0.651-  18 2.12  25 2.12  33 2.12  34 2.12  31 2.15
  64  0.000  0.750  0.651-  17 2.12  26 2.12  33 2.12  34 2.12  32 2.15
  65  0.750  0.750  0.550-  33 2.11  23 2.12  31 2.12  32 2.12  16 2.12  29 2.12
  66  0.000  0.500  0.550-  34 2.11  24 2.12  31 2.12  32 2.12  15 2.12  30 2.12


IMPORTANT INFORMATION: All symmetrisations will be switched off!
NOSYMM: (Re-)initialisation of all symmetry stuff for point group C_1.


----------------------------------------------------------------------------------------

                                     Primitive cell                                     

  volume of cell :    1530.6606

  direct lattice vectors                    reciprocal lattice vectors
     8.467142631  0.000000000  0.000000000     0.118103597  0.000000000  0.000000000
     0.000000000  8.467142631  0.000000000     0.000000000  0.118103597  0.000000000
     0.000000000  0.000000000 21.350356973     0.000000000  0.000000000  0.046837624

  length of vectors
     8.467142631  8.467142631 21.350356973     0.118103597  0.118103597  0.046837624

  position of ions in fractional coordinates (direct lattice)
     0.642551041  0.500000000  0.745485969
     0.704472441  0.587376749  0.781487378
     0.250000000  0.000000000  0.351282183
     0.500000000  0.250000000  0.351282183
     0.250000000  0.250000000  0.450427394
     0.500000000  0.000000000  0.450427394
     0.250000000  0.000000000  0.550191116
     0.500000000  0.250000000  0.550191116
     0.250000000  0.250000000  0.648532086
     0.500000000  0.000000000  0.648532086
     0.250000000  0.500000000  0.351282183
     0.500000000  0.750000000  0.351282183
     0.250000000  0.750000000  0.450427394
     0.500000000  0.500000000  0.450427394
     0.250000000  0.500000000  0.550191116
     0.500000000  0.750000000  0.550191116
     0.250000000  0.750000000  0.648532086
     0.500000000  0.500000000  0.648532086
     0.750000000  0.000000000  0.351282183
     0.000000000  0.250000000  0.351282183
     0.750000000  0.250000000  0.450427394
     0.000000000  0.000000000  0.450427394
     0.750000000  0.000000000  0.550191116
     0.000000000  0.250000000  0.550191116
     0.750000000  0.250000000  0.648532086
     0.000000000  0.000000000  0.648532086
     0.750000000  0.500000000  0.351282183
     0.000000000  0.750000000  0.351282183
     0.750000000  0.750000000  0.450427394
     0.000000000  0.500000000  0.450427394
     0.750000000  0.500000000  0.550191116
     0.000000000  0.750000000  0.550191116
     0.750000000  0.750000000  0.648532086
     0.000000000  0.500000000  0.648532086
     0.250000000  0.000000000  0.450427394
     0.500000000  0.250000000  0.450427394
     0.250000000  0.250000000  0.351282183
     0.500000000  0.000000000  0.351282183
     0.250000000  0.000000000  0.650785562
     0.500000000  0.250000000  0.650785562
     0.250000000  0.250000000  0.549814593
     0.500000000  0.000000000  0.549814593
     0.250000000  0.500000000  0.450427394
     0.500000000  0.750000000  0.450427394
     0.250000000  0.750000000  0.351282183
     0.500000000  0.500000000  0.351282183
     0.250000000  0.500000000  0.650785562
     0.500000000  0.750000000  0.650785562
     0.250000000  0.750000000  0.549814593
     0.500000000  0.500000000  0.549814593
     0.750000000  0.000000000  0.450427394
     0.000000000  0.250000000  0.450427394
     0.750000000  0.250000000  0.351282183
     0.000000000  0.000000000  0.351282183
     0.750000000  0.000000000  0.650785562
     0.000000000  0.250000000  0.650785562
     0.750000000  0.250000000  0.549814593
     0.000000000  0.000000000  0.549814593
     0.750000000  0.500000000  0.450427394
     0.000000000  0.750000000  0.450427394
     0.750000000  0.750000000  0.351282183
     0.000000000  0.500000000  0.351282183
     0.750000000  0.500000000  0.650785562
     0.000000000  0.750000000  0.650785562
     0.750000000  0.750000000  0.549814593
     0.000000000  0.500000000  0.549814593

  ion indices of the primitive-cell ions
   primitive index   ion index
                 1           1
                 2           2
                 3           3
                 4           4
                 5           5
                 6           6
                 7           7
                 8           8
                 9           9
                10          10
                11          11
                12          12
                13          13
                14          14
                15          15
                16          16
                17          17
                18          18
                19          19
                20          20
                21          21
                22          22
                23          23
                24          24
                25          25
                26          26
                27          27
                28          28
                29          29
                30          30
                31          31
                32          32
                33          33
                34          34
                35          35
                36          36
                37          37
                38          38
                39          39
                40          40
                41          41
                42          42
                43          43
                44          44
                45          45
                46          46
                47          47
                48          48
                49          49
                50          50
                51          51
                52          52
                53          53
                54          54
                55          55
                56          56
                57          57
                58          58
                59          59
                60          60
                61          61
                62          62
                63          63
                64          64
                65          65
                66          66

----------------------------------------------------------------------------------------



 KPOINTS: pymatgen v2020.8.13 with grid density = 

Automatic generation of k-mesh.
 Grid dimensions read from file:
 generate k-points for:    2    2    1

 Generating k-lattice:

  Cartesian coordinates                     Fractional coordinates (reciprocal lattice)
     0.059051798  0.000000000  0.000000000     0.500000000  0.000000000  0.000000000
     0.000000000  0.059051798  0.000000000     0.000000000  0.500000000  0.000000000
     0.000000000  0.000000000  0.046837624     0.000000000  0.000000000  1.000000000

  Length of vectors
     0.059051798  0.059051798  0.046837624

  Shift w.r.t. Gamma in fractional coordinates (k-lattice)
     0.000000000  0.000000000  0.000000000

 
 Subroutine IBZKPT returns following result:
 ===========================================
 
 Found      4 irreducible k-points:
 
 Following reciprocal coordinates:
            Coordinates               Weight
  0.000000  0.000000  0.000000      1.000000
  0.500000  0.000000  0.000000      1.000000
  0.000000  0.500000  0.000000      1.000000
  0.500000  0.500000  0.000000      1.000000
 
 Following cartesian coordinates:
            Coordinates               Weight
  0.000000  0.000000  0.000000      1.000000
  0.059052  0.000000  0.000000      1.000000
  0.000000  0.059052  0.000000      1.000000
  0.059052  0.059052  0.000000      1.000000
 


--------------------------------------------------------------------------------------------------------




 Dimension of arrays:
   k-points           NKPTS =      4   k-points in BZ     NKDIM =      4   number of bands    NBANDS=    320
   number of dos      NEDOS =    301   number of ions     NIONS =     66
   non local maximal  LDIM  =      5   non local SUM 2l+1 LMDIM =     13
   total plane-waves  NPLWV = 882000
   max r-space proj   IRMAX =      1   max aug-charges    IRDMAX=  11554
   dimension x,y,z NGX =    70 NGY =   70 NGZ =  180
   dimension x,y,z NGXF=   140 NGYF=  140 NGZF=  360
   support grid    NGXF=   140 NGYF=  140 NGZF=  360
   ions per type =               1   1  32  32
   NGX,Y,Z   is equivalent  to a cutoff of  13.74, 13.74, 14.02 a.u.
   NGXF,Y,Z  is equivalent  to a cutoff of  27.49, 27.49, 28.03 a.u.

 SYSTEM =  MgO-rocksalt                            
 POSCAR =   N  O Mg  O                             

--------------------------------------------------------------------------------------------------------


  energy-cutoff  :      600.00
  volume of cell :     1530.66
      direct lattice vectors                 reciprocal lattice vectors
     8.467142631  0.000000000  0.000000000     0.118103597  0.000000000  0.000000000
     0.000000000  8.467142631  0.000000000     0.000000000  0.118103597  0.000000000
     0.000000000  0.000000000 21.350356973     0.000000000  0.000000000  0.046837624

  length of vectors
     8.467142631  8.467142631 21.350356973     0.118103597  0.118103597  0.046837624



 k-points in units of 2pi/SCALE and weight: pymatgen v2020.8.13 with grid density = 
   0.00000000  0.00000000  0.00000000       0.250
   0.05905180  0.00000000  0.00000000       0.250
   0.00000000  0.05905180  0.00000000       0.250
   0.05905180  0.05905180  0.00000000       0.250

 k-points in reciprocal lattice and weights: pymatgen v2020.8.13 with grid density = 
   0.00000000  0.00000000  0.00000000       0.250
   0.50000000  0.00000000  0.00000000       0.250
   0.00000000  0.50000000  0.00000000       0.250
   0.50000000  0.50000000  0.00000000       0.250

 position of ions in fractional coordinates (direct lattice) 
   0.64255104  0.50000000  0.74548597
   0.70447244  0.58737675  0.78148738
   0.25000000  0.00000000  0.35128218
   0.50000000  0.25000000  0.35128218
   0.25000000  0.25000000  0.45042739
   0.50000000  0.00000000  0.45042739
   0.25000000  0.00000000  0.55019112
   0.50000000  0.25000000  0.55019112
   0.25000000  0.25000000  0.64853209
   0.50000000  0.00000000  0.64853209
   0.25000000  0.50000000  0.35128218
   0.50000000  0.75000000  0.35128218
   0.25000000  0.75000000  0.45042739
   0.50000000  0.50000000  0.45042739
   0.25000000  0.50000000  0.55019112
   0.50000000  0.75000000  0.55019112
   0.25000000  0.75000000  0.64853209
   0.50000000  0.50000000  0.64853209
   0.75000000  0.00000000  0.35128218
   0.00000000  0.25000000  0.35128218
   0.75000000  0.25000000  0.45042739
   0.00000000  0.00000000  0.45042739
   0.75000000  0.00000000  0.55019112
   0.00000000  0.25000000  0.55019112
   0.75000000  0.25000000  0.64853209
   0.00000000  0.00000000  0.64853209
   0.75000000  0.50000000  0.35128218
   0.00000000  0.75000000  0.35128218
   0.75000000  0.75000000  0.45042739
   0.00000000  0.50000000  0.45042739
   0.75000000  0.50000000  0.55019112
   0.00000000  0.75000000  0.55019112
   0.75000000  0.75000000  0.64853209
   0.00000000  0.50000000  0.64853209
   0.25000000  0.00000000  0.45042739
   0.50000000  0.25000000  0.45042739
   0.25000000  0.25000000  0.35128218
   0.50000000  0.00000000  0.35128218
   0.25000000  0.00000000  0.65078556
   0.50000000  0.25000000  0.65078556
   0.25000000  0.25000000  0.54981459
   0.50000000  0.00000000  0.54981459
   0.25000000  0.50000000  0.45042739
   0.50000000  0.75000000  0.45042739
   0.25000000  0.75000000  0.35128218
   0.50000000  0.50000000  0.35128218
   0.25000000  0.50000000  0.65078556
   0.50000000  0.75000000  0.65078556
   0.25000000  0.75000000  0.54981459
   0.50000000  0.50000000  0.54981459
   0.75000000  0.00000000  0.45042739
   0.00000000  0.25000000  0.45042739
   0.75000000  0.25000000  0.35128218
   0.00000000  0.00000000  0.35128218
   0.75000000  0.00000000  0.65078556
   0.00000000  0.25000000  0.65078556
   0.75000000  0.25000000  0.54981459
   0.00000000  0.00000000  0.54981459
   0.75000000  0.50000000  0.45042739
   0.00000000  0.75000000  0.45042739
   0.75000000  0.75000000  0.35128218
   0.00000000  0.50000000  0.35128218
   0.75000000  0.50000000  0.65078556
   0.00000000  0.75000000  0.65078556
   0.75000000  0.75000000  0.54981459
   0.00000000  0.50000000  0.54981459

 position of ions in cartesian coordinates  (Angst):
   5.44057132  4.23357132 15.91639155
   5.96486863  4.97340271 16.68503450
   2.11678566  0.00000000  7.50000000
   4.23357132  2.11678566  7.50000000
   2.11678566  2.11678566  9.61678566
   4.23357132  0.00000000  9.61678566
   2.11678566  0.00000000 11.74677673
   4.23357132  2.11678566 11.74677673
   2.11678566  2.11678566 13.84639155
   4.23357132  0.00000000 13.84639155
   2.11678566  4.23357132  7.50000000
   4.23357132  6.35035697  7.50000000
   2.11678566  6.35035697  9.61678566
   4.23357132  4.23357132  9.61678566
   2.11678566  4.23357132 11.74677673
   4.23357132  6.35035697 11.74677673
   2.11678566  6.35035697 13.84639155
   4.23357132  4.23357132 13.84639155
   6.35035697  0.00000000  7.50000000
   0.00000000  2.11678566  7.50000000
   6.35035697  2.11678566  9.61678566
   0.00000000  0.00000000  9.61678566
   6.35035697  0.00000000 11.74677673
   0.00000000  2.11678566 11.74677673
   6.35035697  2.11678566 13.84639155
   0.00000000  0.00000000 13.84639155
   6.35035697  4.23357132  7.50000000
   0.00000000  6.35035697  7.50000000
   6.35035697  6.35035697  9.61678566
   0.00000000  4.23357132  9.61678566
   6.35035697  4.23357132 11.74677673
   0.00000000  6.35035697 11.74677673
   6.35035697  6.35035697 13.84639155
   0.00000000  4.23357132 13.84639155
   2.11678566  0.00000000  9.61678566
   4.23357132  2.11678566  9.61678566
   2.11678566  2.11678566  7.50000000
   4.23357132  0.00000000  7.50000000
   2.11678566  0.00000000 13.89450407
   4.23357132  2.11678566 13.89450407
   2.11678566  2.11678566 11.73873783
   4.23357132  0.00000000 11.73873783
   2.11678566  4.23357132  9.61678566
   4.23357132  6.35035697  9.61678566
   2.11678566  6.35035697  7.50000000
   4.23357132  4.23357132  7.50000000
   2.11678566  4.23357132 13.89450407
   4.23357132  6.35035697 13.89450407
   2.11678566  6.35035697 11.73873783
   4.23357132  4.23357132 11.73873783
   6.35035697  0.00000000  9.61678566
   0.00000000  2.11678566  9.61678566
   6.35035697  2.11678566  7.50000000
   0.00000000  0.00000000  7.50000000
   6.35035697  0.00000000 13.89450407
   0.00000000  2.11678566 13.89450407
   6.35035697  2.11678566 11.73873783
   0.00000000  0.00000000 11.73873783
   6.35035697  4.23357132  9.61678566
   0.00000000  6.35035697  9.61678566
   6.35035697  6.35035697  7.50000000
   0.00000000  4.23357132  7.50000000
   6.35035697  4.23357132 13.89450407
   0.00000000  6.35035697 13.89450407
   6.35035697  6.35035697 11.73873783
   0.00000000  4.23357132 11.73873783



--------------------------------------------------------------------------------------------------------

--------------------------------------- Iteration      FINAL  ---------------------------------------


--------------------OUTCAR has been truncated-------------------------


--------------------OUTCAR has been truncated-------------------------


--------------------OUTCAR has been truncated-------------------------


--------------------OUTCAR has been truncated-------------------------


--------------------OUTCAR has been truncated-------------------------


--------------------OUTCAR has been truncated-------------------------


--------------------OUTCAR has been truncated-------------------------


--------------------OUTCAR has been truncated-------------------------


--------------------OUTCAR has been truncated-------------------------


--------------------OUTCAR has been truncated-------------------------


  Number of pair interactions contributing to vdW energy:  763892
  Edisp (eV):   -3.66821
    FORVDW:  cpu time      0.1113: real time      0.1113

  FORCE on cell =-STRESS in cart. coord.  units (eV):
  Direction    XX          YY          ZZ          XY          YZ          ZX
  --------------------------------------------------------------------------------------
  Alpha Z   903.80560   903.80560   903.80560
  Ewald  157956.44602158024.30021************    91.75935   148.19944   105.65105
  Hartree168328.34902168355.83317************    34.57970    60.78481    46.55483
  E(xc)   -2506.39880 -2506.13469 -2510.95283     0.30298     0.50369     0.33133
  Local  ************************335837.43230  -112.15405  -194.57494  -148.80056
  n-local -2844.24962 -2847.60634 -2864.57729    -0.02099    -3.22377    -4.33245
  augment  1054.98168  1055.16284  1045.26393    -0.71286    -0.35303     0.42233
  Kinetic  7527.71145  7526.87326  7555.99392   -13.59087   -11.33320     0.29858
  Fock        0.00000     0.00000     0.00000     0.00000     0.00000     0.00000
  vdW        -5.29858    -5.33962    -4.41139    -0.00022    -0.01110     0.01429
  -------------------------------------------------------------------------------------
  Total     -28.97694   -28.90022    -2.78418     0.16304    -0.00810     0.13942
  in kB     -30.33083   -30.25052    -2.91427     0.17066    -0.00848     0.14593
  external pressure =      -21.17 kB  Pullay stress =        0.00 kB


 VOLUME and BASIS-vectors are now :
 -----------------------------------------------------------------------------
  energy-cutoff  :      600.00
  volume of cell :     1530.66
      direct lattice vectors                 reciprocal lattice vectors
     8.467142631  0.000000000  0.000000000     0.118103597  0.000000000  0.000000000
     0.000000000  8.467142631  0.000000000     0.000000000  0.118103597  0.000000000
     0.000000000  0.000000000 21.350356973     0.000000000  0.000000000  0.046837624

  length of vectors
     8.467142631  8.467142631 21.350356973     0.118103597  0.118103597  0.046837624


 FORCES acting on ions:
    Electron-Ion                     Ewald-Force                    Non-Local-Force
 -----------------------------------------------------------------------------------------------
   0.103E+03 0.167E+03 -.124E+04   -.122E+03 -.194E+03 0.121E+04   0.182E+02 0.276E+02 0.236E+02
   -.102E+03 -.157E+03 -.162E+04   0.126E+03 0.193E+03 0.166E+04   -.236E+02 -.362E+02 -.382E+02
   0.148E+00 -.205E-01 0.207E+04   -.147E+00 0.209E-01 -.206E+04   -.897E-03 -.311E-03 -.704E+01
   0.267E+00 0.213E+00 0.207E+04   -.273E+00 -.217E+00 -.206E+04   0.440E-02 0.262E-02 -.704E+01
   0.581E+00 0.521E+00 0.719E+03   -.597E+00 -.532E+00 -.719E+03   0.116E-01 0.853E-02 0.433E+00
   0.788E+00 -.131E+00 0.720E+03   -.814E+00 0.115E+00 -.720E+03   0.189E-01 0.113E-01 0.359E+00
   0.286E+01 -.904E-01 -.629E+03   -.284E+01 0.990E-01 0.630E+03   -.268E-01 -.103E-01 -.280E+00
   0.472E+01 0.557E+01 -.618E+03   -.471E+01 -.549E+01 0.619E+03   -.131E-01 -.758E-01 -.967E+00
   0.145E+02 0.146E+02 -.198E+04   -.143E+02 -.148E+02 0.197E+04   -.174E+00 0.222E+00 0.613E+01
   0.125E+02 -.772E+00 -.198E+04   -.127E+02 0.923E+00 0.197E+04   0.132E+00 -.151E+00 0.612E+01
   0.168E+00 0.208E-01 0.207E+04   -.165E+00 -.212E-01 -.206E+04   -.249E-02 0.316E-03 -.702E+01
   0.271E+00 -.215E+00 0.207E+04   -.278E+00 0.218E+00 -.206E+04   0.468E-02 -.219E-02 -.704E+01
   0.593E+00 -.530E+00 0.719E+03   -.580E+00 0.541E+00 -.719E+03   -.901E-02 -.826E-02 0.470E+00
   0.196E+01 0.122E+00 0.720E+03   -.201E+01 -.116E+00 -.721E+03   0.328E-01 -.525E-02 0.581E+00
   0.471E+01 0.140E+00 -.623E+03   -.451E+01 -.149E+00 0.623E+03   -.204E+00 0.819E-02 -.338E+00
   0.529E+01 -.557E+01 -.619E+03   -.532E+01 0.550E+01 0.620E+03   0.212E-01 0.766E-01 -.639E+00
   0.129E+02 -.146E+02 -.198E+04   -.128E+02 0.148E+02 0.197E+04   -.423E-01 -.235E+00 0.611E+01
   0.530E+02 0.237E+00 -.190E+04   -.541E+02 -.190E+00 0.189E+04   0.114E+01 -.493E-01 0.467E+01
   -.149E+00 -.233E-01 0.207E+04   0.147E+00 0.247E-01 -.206E+04   0.119E-02 -.108E-02 -.702E+01
   -.267E+00 0.193E+00 0.207E+04   0.273E+00 -.199E+00 -.206E+04   -.359E-02 0.396E-02 -.704E+01
   -.644E+00 0.165E+01 0.720E+03   0.642E+00 -.168E+01 -.721E+03   -.453E-03 0.199E-01 0.557E+00
   -.810E+00 -.113E+00 0.718E+03   0.830E+00 0.127E+00 -.719E+03   -.141E-01 -.101E-01 0.469E+00
   -.291E+01 -.412E+00 -.622E+03   0.289E+01 0.503E+00 0.622E+03   0.203E-01 -.916E-01 -.289E+00
   -.430E+01 0.416E+01 -.628E+03   0.430E+01 -.416E+01 0.629E+03   0.640E-03 0.353E-02 -.358E+00
   -.207E+02 0.389E+02 -.194E+04   0.206E+02 -.400E+02 0.194E+04   0.560E-01 0.109E+01 0.616E+01
   -.113E+02 -.228E+01 -.199E+04   0.114E+02 0.230E+01 0.198E+04   -.168E+00 -.200E-01 0.607E+01
   -.171E+00 0.246E-01 0.207E+04   0.167E+00 -.256E-01 -.206E+04   0.312E-02 0.781E-03 -.699E+01
   -.270E+00 -.193E+00 0.207E+04   0.277E+00 0.199E+00 -.206E+04   -.443E-02 -.412E-02 -.703E+01
   -.641E+00 -.166E+01 0.720E+03   0.623E+00 0.170E+01 -.721E+03   0.122E-01 -.243E-01 0.557E+00
   -.193E+01 0.122E+00 0.719E+03   0.196E+01 -.132E+00 -.719E+03   -.250E-01 0.769E-02 0.582E+00
   -.511E+01 0.391E+00 -.609E+03   0.490E+01 -.472E+00 0.608E+03   0.211E+00 0.828E-01 0.810E+00
   -.487E+01 -.413E+01 -.626E+03   0.490E+01 0.413E+01 0.626E+03   -.355E-01 -.559E-02 -.355E+00
   -.184E+02 -.382E+02 -.193E+04   0.184E+02 0.393E+02 0.192E+04   0.108E-01 -.113E+01 0.629E+01
   -.278E+02 0.276E+01 -.196E+04   0.287E+02 -.279E+01 0.195E+04   -.905E+00 0.261E-01 0.611E+01
   0.527E+00 -.246E-01 0.538E+03   -.507E+00 0.293E-01 -.538E+03   -.281E-01 -.701E-02 -.100E+00
   0.801E+00 0.696E+00 0.539E+03   -.818E+00 -.736E+00 -.539E+03   0.255E-01 0.565E-01 -.168E+00
   0.116E+00 0.109E+00 0.155E+04   -.114E+00 -.113E+00 -.156E+04   -.231E-02 0.634E-02 0.348E+01
   0.158E+00 -.172E-01 0.156E+04   -.164E+00 0.170E-01 -.156E+04   0.802E-02 0.270E-03 0.348E+01
   0.515E+01 -.847E+00 -.151E+04   -.509E+01 0.861E+00 0.152E+04   -.548E-01 -.132E-01 -.514E+01
   0.193E+02 0.282E+02 -.147E+04   -.192E+02 -.279E+02 0.148E+04   -.815E-01 -.283E+00 -.527E+01
   0.268E+01 0.275E+01 -.463E+03   -.263E+01 -.276E+01 0.462E+03   -.430E-01 0.223E-01 0.338E+00
   0.270E+01 -.125E+00 -.460E+03   -.272E+01 0.149E+00 0.460E+03   0.171E-01 -.237E-01 0.293E+00
   0.718E+00 0.297E-01 0.539E+03   -.726E+00 -.345E-01 -.538E+03   0.682E-02 0.700E-02 -.776E-01
   0.828E+00 -.708E+00 0.539E+03   -.845E+00 0.761E+00 -.539E+03   0.242E-01 -.722E-01 -.178E+00
   0.115E+00 -.109E+00 0.155E+04   -.111E+00 0.113E+00 -.156E+04   -.520E-02 -.632E-02 0.349E+01
   0.256E+00 0.183E-01 0.156E+04   -.264E+00 -.176E-01 -.156E+04   0.108E-01 -.102E-02 0.350E+01
   0.154E+02 0.805E+00 -.150E+04   -.153E+02 -.813E+00 0.150E+04   -.129E+00 0.868E-02 -.507E+01
   0.218E+02 -.282E+02 -.148E+04   -.218E+02 0.280E+02 0.148E+04   0.181E-02 0.250E+00 -.520E+01
   0.235E+01 -.280E+01 -.463E+03   -.232E+01 0.283E+01 0.463E+03   -.236E-01 -.281E-01 0.341E+00
   0.505E+01 0.192E+00 -.461E+03   -.512E+01 -.224E+00 0.461E+03   0.655E-01 0.317E-01 -.273E+00
   -.542E+00 -.644E-02 0.539E+03   0.531E+00 -.485E-02 -.539E+03   0.172E-01 0.134E-01 -.456E-01
   -.810E+00 0.554E+00 0.538E+03   0.850E+00 -.578E+00 -.538E+03   -.550E-01 0.348E-01 -.153E+00
   -.116E+00 0.205E+00 0.156E+04   0.115E+00 -.212E+00 -.156E+04   0.116E-02 0.972E-02 0.350E+01
   -.158E+00 -.183E-01 0.155E+04   0.164E+00 0.202E-01 -.156E+04   -.834E-02 -.261E-02 0.349E+01
   -.615E+01 -.342E+01 -.150E+04   0.610E+01 0.352E+01 0.151E+04   0.548E-01 -.106E+00 -.514E+01
   -.145E+02 0.139E+02 -.150E+04   0.144E+02 -.139E+02 0.151E+04   0.632E-01 -.244E-01 -.515E+01
   -.292E+01 0.489E+01 -.460E+03   0.286E+01 -.494E+01 0.460E+03   0.663E-01 0.541E-01 0.166E+00
   -.267E+01 -.431E+00 -.466E+03   0.270E+01 0.431E+00 0.466E+03   -.250E-01 0.150E-03 0.307E+00
   -.785E+00 0.309E-01 0.542E+03   0.810E+00 -.286E-01 -.542E+03   -.286E-01 -.159E-02 0.669E-01
   -.818E+00 -.547E+00 0.538E+03   0.841E+00 0.567E+00 -.538E+03   -.331E-01 -.288E-01 -.119E+00
   -.116E+00 -.206E+00 0.156E+04   0.112E+00 0.213E+00 -.156E+04   0.492E-02 -.927E-02 0.350E+01
   -.254E+00 0.183E-01 0.156E+04   0.263E+00 -.204E-01 -.156E+04   -.117E-01 0.279E-02 0.350E+01
   -.345E+02 0.253E+01 -.140E+04   0.346E+02 -.240E+01 0.141E+04   -.987E-01 -.130E+00 -.388E+01
   -.174E+02 -.142E+02 -.150E+04   0.174E+02 0.142E+02 0.150E+04   0.215E-01 0.593E-01 -.519E+01
   -.262E+01 -.479E+01 -.456E+03   0.259E+01 0.484E+01 0.456E+03   0.365E-01 -.492E-01 0.434E+00
   -.445E+01 0.428E+00 -.461E+03   0.447E+01 -.425E+00 0.461E+03   -.280E-01 -.265E-02 0.399E+00
 -----------------------------------------------------------------------------------------------
   0.550E+01 0.910E+01 0.325E+02   -.817E-13 0.924E-13 -.142E-11   -.550E+01 -.910E+01 -.325E+02


 POSITION                                       TOTAL-FORCE (eV/Angst)
 -----------------------------------------------------------------------------------
      5.40867      4.03301     15.99150         0.004402      0.002057      0.002831
      5.89384      4.78205     16.76813         0.003205     -0.003556      0.007521
      2.11679      0.00000      7.50000         0.000485      0.000170      0.396540
      4.23357      2.11679      7.50000        -0.001704     -0.001246      0.395628
      2.11679      2.11679      9.61679        -0.003680     -0.002872      0.033243
      4.23357      0.00000      9.61679        -0.007320     -0.004056      0.036972
      2.11674      0.00033     11.74397        -0.000751     -0.001563     -0.002067
      4.23244      2.11911     11.75180        -0.000488     -0.001071     -0.005869
      2.11849      2.11101     13.84453        -0.000975     -0.000939     -0.002297
      4.22892      0.00130     13.84246        -0.001091      0.000290     -0.002165
      2.11679      4.23357      7.50000         0.000858     -0.000119      0.392385
      4.23357      6.35036      7.50000        -0.001776      0.001129      0.396712
      2.11679      6.35036      9.61679         0.004065      0.002957      0.030079
      4.23357      4.23357      9.61679        -0.017250      0.000675      0.031196
      2.12180      4.23327     11.74768         0.000754     -0.000520      0.001321
      4.23223      6.34674     11.75150         0.000042      0.001085     -0.004559
      2.11863      6.35599     13.84680        -0.001289     -0.001125     -0.000320
      4.21065      4.23056     13.89698         0.000746      0.000832      0.001733
      6.35036      0.00000      7.50000        -0.000464      0.000340      0.391700
      0.00000      2.11679      7.50000         0.001589     -0.001576      0.395494
      6.35036      2.11679      9.61679        -0.001979     -0.010657      0.021038
      0.00000      0.00000      9.61679         0.005316      0.003921      0.027643
      6.34892      0.00329     11.74379        -0.001934     -0.000438      0.000677
     -0.00211      2.11718     11.74975         0.001051      0.000956     -0.004997
      6.34465      2.10108     13.86054         0.003075     -0.002307     -0.001485
      0.00320      0.00174     13.84852        -0.002983     -0.000545     -0.005816
      6.35036      4.23357      7.50000        -0.000968     -0.000228      0.385272
      0.00000      6.35036      7.50000         0.001813      0.001635      0.393255
      6.35036      6.35036      9.61679        -0.005303      0.013278      0.020606
      0.00000      4.23357      9.61679         0.012642     -0.002658      0.028098
      6.34276      4.23173     11.73405         0.003329      0.000772     -0.005613
      0.00012      6.35075     11.74831         0.000120     -0.001942     -0.004498
      6.34950      6.37637     13.84240         0.003469      0.002414      0.000412
      0.02466      4.23390     13.84840         0.004679      0.000486     -0.001617
      2.11679      0.00000      9.61679        -0.008376     -0.002268      0.044204
      4.23357      2.11679      9.61679         0.007834      0.015701      0.062132
      2.11679      2.11679      7.50000        -0.000595      0.001785     -0.478342
      4.23357      0.00000      7.50000         0.002289      0.000096     -0.478630
      2.11331     -0.00090     13.89034         0.005655      0.001299     -0.000522
      4.22994      2.10683     13.86996        -0.000498     -0.002523      0.001111
      2.11219      2.11774     11.73703         0.002988      0.003338     -0.000532
      4.23343     -0.00218     11.73406         0.004137      0.000114     -0.001591
      2.11679      4.23357      9.61679        -0.001089      0.002221      0.070803
      4.23357      6.35036      9.61679         0.007698     -0.019760      0.056921
      2.11679      6.35036      7.50000        -0.001399     -0.001745     -0.477871
      4.23357      4.23357      7.50000         0.003077     -0.000290     -0.475227
      2.11377      4.23392     13.89407        -0.002964      0.000503     -0.001215
      4.23626      6.35585     13.88506        -0.000202      0.002212      0.002218
      2.11432      6.34924     11.73850         0.002607     -0.003172      0.002508
      4.23719      4.23429     11.74788        -0.006013     -0.000248     -0.000050
      6.35036      0.00000      9.61679         0.005594      0.002071      0.061101
      0.00000      2.11679      9.61679        -0.015143      0.010470      0.055607
      6.35036      2.11679      7.50000         0.000326      0.002767     -0.474171
      0.00000      0.00000      7.50000        -0.002300     -0.000708     -0.477266
      6.35134      0.00192     13.89020         0.003533     -0.000140     -0.003894
     -0.00191      2.11866     13.89649         0.000395      0.000758     -0.003579
      6.35138      2.12183     11.74294         0.002133     -0.002792      0.000854
     -0.00167      0.00015     11.73838        -0.003213     -0.000127      0.004713
      6.35036      4.23357      9.61679        -0.004145      0.000671      0.044825
      0.00000      6.35036      9.61679        -0.009680     -0.008884      0.059106
      6.35036      6.35036      7.50000         0.001398     -0.002607     -0.473436
      0.00000      4.23357      7.50000        -0.003298      0.000796     -0.473134
      6.37049      4.23984     13.90266         0.005678      0.002431     -0.001817
     -0.00191      6.35053     13.89438         0.000566      0.000161     -0.001681
      6.35130      6.34629     11.74137         0.002644      0.001830      0.001879
     -0.00561      4.23412     11.74347        -0.001322      0.000461      0.005921
 -----------------------------------------------------------------------------------
    total drift:                               -0.002799     -0.000982      0.014188


--------------------------------------------------------------------------------------------------------



  FREE ENERGIE OF THE ION-ELECTRON SYSTEM (eV)
  ---------------------------------------------------
  free  energy   TOTEN  =      -388.27881304 eV

  energy  without entropy=     -388.27881304  energy(sigma->0) =     -388.27881304

 d Force = 0.3456445E-04[ 0.188E-04, 0.503E-04]  d Energy = 0.3451134E-04 0.531E-07
 d Force = 0.1773222E+01[ 0.177E+01, 0.177E+01]  d Ewald  = 0.1773222E+01 0.161E-07


--------------------------------------------------------------------------------------------------------


    POTLOK:  cpu time      0.5520: real time      0.5520


--------------------------------------------------------------------------------------------------------




--------------------------------------------------------------------------------------------------------


  
 reached required accuracy - stopping structural energy minimisation
     LOOP+:  cpu time     65.2539: real time     65.3441
    4ORBIT:  cpu time      0.0000: real time      0.0000

 total amount of memory used by VASP MPI-rank0    79259. kBytes
=======================================================================

   base      :      30000. kBytes
   nonl-proj :      17582. kBytes
   fftplans  :       4925. kBytes
   grid      :      13952. kBytes
   one-center:        146. kBytes
   wavefun   :      12654. kBytes

  
  
 General timing and accounting informations for this job:
 ========================================================
  
                  Total CPU time used (sec):    10090.188
                            User time (sec):    10075.961
                          System time (sec):       14.227
                         Elapsed time (sec):    10123.629
  
                   Maximum memory used (kb):      186940.
                   Average memory used (kb):          N/A
  
                          Minor page faults:        50011
                          Major page faults:           52
                 Voluntary context switches:       105431
