 vasp.6.3.0 20Jan22 (build Apr  1 2022 16:44:48) complex                         
 executed on        HPECrayEX_GCC date 2022.10.08  07:58:33
 running 1024 mpi-ranks, with    1 threads/rank
 distrk:  each k-point on 1024 cores,    1 groups
 distr:  one band on NCORE=   8 cores,  128 groups


--------------------------------------------------------------------------------------------------------


 INCAR:
   SYSTEM = MgO-rocksalt
   ISMEAR = 0
   SIGMA = 0.05
   EDIFF = 1E-7
   ALGO = ALL
   ISTART = 0
   IBRION = 2
   NSW = 200
   EDIFFG = -0.01
   ISIF = 2
   ISYM = 0
   DIPOL = 0.5 0.5 0.5
   IDIPOL = 4
   LDIPOL = .TRUE.
   GGA = MK
   LUSE_VDW = .TRUE.
   PARAM1 = 0.1234
   PARAM2 = 0.711357
   ZAB_VDW = -1.8867
   AGGAC = 0.0
   ENCUT = 600
   PREC = Accurate
   LASPH = .TRUE.
   LREAL = .FALSE.
   ISPIN = 1
   NELM = 200
   NELMIN = 8
   NCORE = 8
   KPAR = 1
   LWAVE = .FALSE.
   LCHARG = .FALSE.

 POTCAR:    PAW_PBE C 08Apr2002                   
 POTCAR:    PAW_PBE H 15Jun2001                   
 -----------------------------------------------------------------------------
|                                                                             |
|               ----> ADVICE to this user running VASP <----                  |
|                                                                             |
|     You have switched on vdW-DFT.                                           |
|     This routine was written and supplied by Jiri Klimes. We recommend      |
|     that you carefully read and cite the following publications:            |
|       J. Klimes, D.R. Bowler, A. Michelides                                 |
|          J. Phys.: Cond Matt. 22 022201 (2010)                              |
|       J. Klimes, D.R. Bowler, A. Michelides                                 |
|          Phys. Rev. B. 83, 195131 (2011)                                    |
|     and references therein.                                                 |
|                                                                             |
 -----------------------------------------------------------------------------

 POTCAR:    PAW_PBE C 08Apr2002                   
   SHA256 =  253f7b50bb8d59471dbedb8285d89021f4a42ed1a2c5d38a03a736e69125dd95 C/POTCAR              
   COPYR  = (c) Copyright 08Apr2002 Georg Kresse                                                    
   COPYR  = This file is part of the software VASP. Any use, copying, and all other rights are regul
   COPYR  = If you do not have a valid VASP license, you may not use, copy or distribute this file. 
   VRHFIN =C: s2p2                                                                                  
   LEXCH  = PE                                                                                      
   EATOM  =   147.1560 eV,   10.8157 Ry                                                             
                                                                                                    
   TITEL  = PAW_PBE C 08Apr2002                                                                     
   LULTRA =        F    use ultrasoft PP ?                                                          
   IUNSCR =        1    unscreen: 0-lin 1-nonlin 2-no                                               
   RPACOR =    1.200    partial core radius                                                         
   POMASS =   12.011; ZVAL   =    4.000    mass and valenz                                          
   RCORE  =    1.500    outmost cutoff radius                                                       
   RWIGS  =    1.630; RWIGS  =    0.863    wigner-seitz radius (au A)                               
   ENMAX  =  400.000; ENMIN  =  300.000 eV                                                          
   ICORE  =        2    local potential                                                             
   LCOR   =        T    correct aug charges                                                         
   LPAW   =        T    paw PP                                                                      
   EAUG   =  644.873                                                                                
   DEXC   =    0.000                                                                                
   RMAX   =    1.529    core radius for proj-oper                                                   
   RAUG   =    1.300    factor for augmentation sphere                                              
   RDEP   =    1.501    radius for radial grids                                                     
   RDEPT  =    1.300    core radius for aug-charge                                                  
                                                                                                    
   Atomic configuration                                                                             
    4 entries                                                                                       
     n  l   j            E        occ.                                                              
     1  0  0.50      -273.3789   2.0000                                                             
     2  0  0.50       -13.7508   2.0000                                                             
     2  1  0.50        -5.2854   2.0000                                                             
     3  2  1.50        -5.4423   0.0000                                                             
   Description                                                                                      
     l       E           TYP  RCUT    TYP  RCUT                                                     
     0    -13.7508458     23  1.200                                                                 
     0     -8.2022199     23  1.200                                                                 
     1     -5.2854383     23  1.500                                                                 
     1     34.0145650     23  1.500                                                                 
     2     -5.4423304      7  1.500                                                                 
  local pseudopotential read in
  partial core-charges read in
  partial kinetic energy density read in
  atomic valenz-charges read in
  non local Contribution for L=           0  read in
    real space projection operators read in
  non local Contribution for L=           0  read in
    real space projection operators read in
  non local Contribution for L=           1  read in
    real space projection operators read in
  non local Contribution for L=           1  read in
    real space projection operators read in
    PAW grid and wavefunctions read in

   number of l-projection  operators is LMAX  =           4
   number of lm-projection operators is LMMAX =           8

 POTCAR:    PAW_PBE H 15Jun2001                   
   SHA256 =  030f79b5d3ab3cf0e668861823c8fb652ff669f3e15e46930bd03bfd63a607b6 H/POTCAR              
   COPYR  = (c) Copyright 15Jun2001 Georg Kresse                                                    
   COPYR  = This file is part of the software VASP. Any use, copying, and all other rights are regul
   COPYR  = If you do not have a valid VASP license, you may not use, copy or distribute this file. 
   VRHFIN =H: ultrasoft test                                                                        
   LEXCH  = PE                                                                                      
   EATOM  =    12.4884 eV,    0.9179 Ry                                                             
                                                                                                    
   TITEL  = PAW_PBE H 15Jun2001                                                                     
   LULTRA =        F    use ultrasoft PP ?                                                          
   IUNSCR =        0    unscreen: 0-lin 1-nonlin 2-no                                               
   RPACOR =    0.000    partial core radius                                                         
   POMASS =    1.000; ZVAL   =    1.000    mass and valenz                                          
   RCORE  =    1.100    outmost cutoff radius                                                       
   RWIGS  =    0.700; RWIGS  =    0.370    wigner-seitz radius (au A)                               
   ENMAX  =  250.000; ENMIN  =  200.000 eV                                                          
   RCLOC  =    0.701    cutoff for local pot                                                        
   LCOR   =        T    correct aug charges                                                         
   LPAW   =        T    paw PP                                                                      
   EAUG   =  400.000                                                                                
   RMAX   =    1.123    core radius for proj-oper                                                   
   RAUG   =    1.200    factor for augmentation sphere                                              
   RDEP   =    1.112    radius for radial grids                                                     
   RDEPT  =    0.926    core radius for aug-charge                                                  
                                                                                                    
   Atomic configuration                                                                             
    2 entries                                                                                       
     n  l   j            E        occ.                                                              
     1  0  0.50        -6.4927   1.0000                                                             
     2  1  0.50        -3.4015   0.0000                                                             
   Description                                                                                      
     l       E           TYP  RCUT    TYP  RCUT                                                     
     0     -6.4927494     23  1.100                                                                 
     0      6.8029130     23  1.100                                                                 
     1     -4.0817478     23  1.100                                                                 
  local pseudopotential read in
  atomic valenz-charges read in
  non local Contribution for L=           0  read in
    real space projection operators read in
  non local Contribution for L=           0  read in
    real space projection operators read in
  non local Contribution for L=           1  read in
    real space projection operators read in
    PAW grid and wavefunctions read in

   number of l-projection  operators is LMAX  =           3
   number of lm-projection operators is LMMAX =           5

 -----------------------------------------------------------------------------
|                                                                             |
|               ----> ADVICE to this user running VASP <----                  |
|                                                                             |
|     You enforced a specific xc type in the INCAR file but a different       |
|     type was found in the POTCAR file.                                      |
|     I HOPE YOU KNOW WHAT YOU ARE DOING!                                     |
|                                                                             |
 -----------------------------------------------------------------------------

  PAW_PBE C 08Apr2002                   :
 energy of atom  1       EATOM= -147.1560
 kinetic energy error for atom=    0.0057 (will be added to EATOM!!)
  PAW_PBE H 15Jun2001                   :
 energy of atom  2       EATOM=  -12.4884
 kinetic energy error for atom=    0.0004 (will be added to EATOM!!)


 POSCAR:  C  H
  positions in direct lattice
  No initial velocities read in
 exchange correlation table for  LEXCH =       43
   RHO(1)=    0.500       N(1)  =     2000
   RHO(2)=  100.500       N(2)  =     4000



--------------------------------------------------------------------------------------------------------


 ion  position               nearest neighbor table
   1  0.500  0.500  0.500-   2 1.09   3 1.09   4 1.09   5 1.09
   2  0.530  0.530  0.530-   1 1.09
   3  0.470  0.470  0.530-   1 1.09
   4  0.530  0.470  0.470-   1 1.09
   5  0.470  0.530  0.470-   1 1.09


IMPORTANT INFORMATION: All symmetrisations will be switched off!
NOSYMM: (Re-)initialisation of all symmetry stuff for point group C_1.


----------------------------------------------------------------------------------------

                                     Primitive cell                                     

  volume of cell :    9606.8647

  direct lattice vectors                    reciprocal lattice vectors
    21.258236000  0.000000000  0.000000000     0.047040592  0.000000000  0.000000000
     0.000000000 21.258236000  0.000000000     0.000000000  0.047040592  0.000000000
     0.000000000  0.000000000 21.258236000     0.000000000  0.000000000  0.047040592

  length of vectors
    21.258236000 21.258236000 21.258236000     0.047040592  0.047040592  0.047040592

  position of ions in fractional coordinates (direct lattice)
     0.500000000  0.500000000  0.500000000
     0.529594083  0.529594083  0.529594083
     0.470405917  0.470405917  0.529594083
     0.529594083  0.470405917  0.470405917
     0.470405917  0.529594083  0.470405917

  ion indices of the primitive-cell ions
   primitive index   ion index
                 1           1
                 2           2
                 3           3
                 4           4
                 5           5

----------------------------------------------------------------------------------------



 KPOINTS: pymatgen v2020.8.13 with grid density = 

Automatic generation of k-mesh.
 Grid dimensions read from file:
 generate k-points for:    1    1    1

 Generating k-lattice:

  Cartesian coordinates                     Fractional coordinates (reciprocal lattice)
     0.047040592  0.000000000  0.000000000     1.000000000  0.000000000  0.000000000
     0.000000000  0.047040592  0.000000000     0.000000000  1.000000000  0.000000000
     0.000000000  0.000000000  0.047040592     0.000000000  0.000000000  1.000000000

  Length of vectors
     0.047040592  0.047040592  0.047040592

  Shift w.r.t. Gamma in fractional coordinates (k-lattice)
     0.000000000  0.000000000  0.000000000

 
 Subroutine IBZKPT returns following result:
 ===========================================
 
 Found      1 irreducible k-points:
 
 Following reciprocal coordinates:
            Coordinates               Weight
  0.000000  0.000000  0.000000      1.000000
 
 Following cartesian coordinates:
            Coordinates               Weight
  0.000000  0.000000  0.000000      1.000000
 


--------------------------------------------------------------------------------------------------------




 Dimension of arrays:
   k-points           NKPTS =      1   k-points in BZ     NKDIM =      1   number of bands    NBANDS=    128
   number of dos      NEDOS =    301   number of ions     NIONS =      5
   non local maximal  LDIM  =      4   non local SUM 2l+1 LMDIM =      8
   total plane-waves  NPLWV = ******
   max r-space proj   IRMAX =      1   max aug-charges    IRDMAX=   7363
   dimension x,y,z NGX =   180 NGY =  180 NGZ =  180
   dimension x,y,z NGXF=   360 NGYF=  360 NGZF=  360
   support grid    NGXF=   360 NGYF=  360 NGZF=  360
   ions per type =               1   4
   NGX,Y,Z   is equivalent  to a cutoff of  14.08, 14.08, 14.08 a.u.
   NGXF,Y,Z  is equivalent  to a cutoff of  28.15, 28.15, 28.15 a.u.

 SYSTEM =  MgO-rocksalt                            
 POSCAR =   C  H                                   

--------------------------------------------------------------------------------------------------------


  energy-cutoff  :      600.00
  volume of cell :     9606.86
      direct lattice vectors                 reciprocal lattice vectors
    21.258236000  0.000000000  0.000000000     0.047040592  0.000000000  0.000000000
     0.000000000 21.258236000  0.000000000     0.000000000  0.047040592  0.000000000
     0.000000000  0.000000000 21.258236000     0.000000000  0.000000000  0.047040592

  length of vectors
    21.258236000 21.258236000 21.258236000     0.047040592  0.047040592  0.047040592



 k-points in units of 2pi/SCALE and weight: pymatgen v2020.8.13 with grid density = 
   0.00000000  0.00000000  0.00000000       1.000

 k-points in reciprocal lattice and weights: pymatgen v2020.8.13 with grid density = 
   0.00000000  0.00000000  0.00000000       1.000

 position of ions in fractional coordinates (direct lattice) 
   0.50000000  0.50000000  0.50000000
   0.52959408  0.52959408  0.52959408
   0.47040592  0.47040592  0.52959408
   0.52959408  0.47040592  0.47040592
   0.47040592  0.52959408  0.47040592

 position of ions in cartesian coordinates  (Angst):
  10.62911800 10.62911800 10.62911800
  11.25823600 11.25823600 11.25823600
  10.00000000 10.00000000 11.25823600
  11.25823600 10.00000000 10.00000000
  10.00000000 11.25823600 10.00000000



--------------------------------------------------------------------------------------------------------

--------------------------------------- Iteration      FINAL  ---------------------------------------


--------------------OUTCAR has been truncated-------------------------


--------------------OUTCAR has been truncated-------------------------


--------------------OUTCAR has been truncated-------------------------


--------------------OUTCAR has been truncated-------------------------


--------------------OUTCAR has been truncated-------------------------


--------------------OUTCAR has been truncated-------------------------


--------------------OUTCAR has been truncated-------------------------


--------------------OUTCAR has been truncated-------------------------


--------------------OUTCAR has been truncated-------------------------


--------------------OUTCAR has been truncated-------------------------


  FORCE on cell =-STRESS in cart. coord.  units (eV):
  Direction    XX          YY          ZZ          XY          YZ          ZX
  --------------------------------------------------------------------------------------
  Alpha Z     0.02522     0.02522     0.02522
  Ewald      65.65842    65.65842    65.65842    -0.00000    -0.00000    -0.00000
  Hartree   117.10634   117.10634   117.10634     0.00000    -0.00000    -0.00000
  E(xc)     -27.29016   -27.29016   -27.29016     0.00000    -0.00000    -0.00000
  Local    -240.99721  -240.99721  -240.99721     0.00000     0.00000     0.00000
  n-local   -16.08877   -16.08877   -16.08877     0.00000    -0.00000     0.00000
  augment     0.13739     0.13739     0.13739     0.00000    -0.00000     0.00000
  Kinetic   101.40100   101.40100   101.40100    -0.00000     0.00000     0.00000
  Fock        0.00000     0.00000     0.00000     0.00000     0.00000     0.00000
  -------------------------------------------------------------------------------------
  Total      -0.04779    -0.04779    -0.04779    -0.00000     0.00000     0.00000
  in kB      -0.00797    -0.00797    -0.00797    -0.00000     0.00000     0.00000
  external pressure =       -0.01 kB  Pullay stress =        0.00 kB


 VOLUME and BASIS-vectors are now :
 -----------------------------------------------------------------------------
  energy-cutoff  :      600.00
  volume of cell :     9606.86
      direct lattice vectors                 reciprocal lattice vectors
    21.258236000  0.000000000  0.000000000     0.047040592  0.000000000  0.000000000
     0.000000000 21.258236000  0.000000000     0.000000000  0.047040592  0.000000000
     0.000000000  0.000000000 21.258236000     0.000000000  0.000000000  0.047040592

  length of vectors
    21.258236000 21.258236000 21.258236000     0.047040592  0.047040592  0.047040592


 FORCES acting on ions:
    Electron-Ion                     Ewald-Force                    Non-Local-Force
 -----------------------------------------------------------------------------------------------
   0.196E-07 0.270E-07 -.115E-08   -.237E-07 -.220E-07 0.502E-08   -.683E-10 0.146E-08 0.478E-08
   -.308E+02 -.308E+02 -.308E+02   0.340E+02 0.340E+02 0.340E+02   -.322E+01 -.322E+01 -.322E+01
   0.308E+02 0.308E+02 -.308E+02   -.340E+02 -.340E+02 0.340E+02   0.322E+01 0.322E+01 -.322E+01
   -.308E+02 0.308E+02 0.308E+02   0.340E+02 -.340E+02 -.340E+02   -.322E+01 0.322E+01 0.322E+01
   0.308E+02 -.308E+02 0.308E+02   -.340E+02 0.340E+02 -.340E+02   0.322E+01 -.322E+01 0.322E+01
 -----------------------------------------------------------------------------------------------
   0.407E-08 0.427E-08 -.482E-08   0.000E+00 0.000E+00 0.711E-14   -.437E-08 -.410E-08 0.824E-08


 POSITION                                       TOTAL-FORCE (eV/Angst)
 -----------------------------------------------------------------------------------
     10.62912     10.62912     10.62912        -0.000000      0.000000      0.000000
     11.26222     11.26222     11.26222         0.000100      0.000100      0.000100
      9.99601      9.99601     11.26222        -0.000100     -0.000100      0.000100
     11.26222      9.99601      9.99601         0.000100     -0.000100     -0.000100
      9.99601     11.26222      9.99601        -0.000100      0.000100     -0.000100
 -----------------------------------------------------------------------------------
    total drift:                               -0.000000      0.000000      0.000000


--------------------------------------------------------------------------------------------------------



  FREE ENERGIE OF THE ION-ELECTRON SYSTEM (eV)
  ---------------------------------------------------
  free  energy   TOTEN  =       -22.62070075 eV

  energy  without entropy=      -22.62070075  energy(sigma->0) =      -22.62070075

 d Force = 0.1044732E-02[-0.281E-05, 0.209E-02]  d Energy = 0.1049562E-02-0.483E-05
 d Force =-0.9503545E+00[-0.954E+00,-0.947E+00]  d Ewald  =-0.9503480E+00-0.650E-05


--------------------------------------------------------------------------------------------------------


    POTLOK:  cpu time     13.2156: real time     13.2165


--------------------------------------------------------------------------------------------------------




--------------------------------------------------------------------------------------------------------


  
 reached required accuracy - stopping structural energy minimisation
     LOOP+:  cpu time    269.4781: real time    269.5863
    4ORBIT:  cpu time      0.0000: real time      0.0000

 total amount of memory used by VASP MPI-rank0   103442. kBytes
=======================================================================

   base      :      30000. kBytes
   nonl-proj :       8359. kBytes
   fftplans  :      25985. kBytes
   grid      :      37160. kBytes
   one-center:          3. kBytes
   wavefun   :       1935. kBytes

  
  
 General timing and accounting informations for this job:
 ========================================================
  
                  Total CPU time used (sec):     1264.108
                            User time (sec):     1259.961
                          System time (sec):        4.147
                         Elapsed time (sec):     1271.892
  
                   Maximum memory used (kb):      383388.
                   Average memory used (kb):          N/A
  
                          Minor page faults:        43879
                          Major page faults:           50
                 Voluntary context switches:        25379
