 vasp.6.3.0 20Jan22 (build Dec 25 2023 18:06:01) complex                         
 executed on        HPECrayEX_GCC date 2024.01.24  03:03:17
 running  768 mpi-ranks, with    1 threads/rank
 distrk:  each k-point on  768 cores,    1 groups
 distr:  one band on NCORE=   8 cores,   96 groups


--------------------------------------------------------------------------------------------------------


 INCAR:
   SYSTEM = MgO-rocksalt
   ISMEAR = 0
   SIGMA = 0.05
   EDIFF = 1E-8
   ALGO = ALL
   ISTART = 0
   IBRION = 5
   POTIM = 0.01
   NFREE = 2
   ISYM = 0
   DIPOL = 0.5 0.5 0.5
   IDIPOL = 3
   LDIPOL = .TRUE.
   GGA = MK
   LUSE_VDW = .TRUE.
   PARAM1 = 0.1234
   PARAM2 = 0.711357
   ZAB_VDW = -1.8867
   AGGAC = 0.0
   ENCUT = 600
   PREC = Accurate
   LASPH = .TRUE.
   LREAL = .FALSE.
   ISPIN = 1
   NELM = 200
   NELMIN = 8
   NCORE = 8
   KPAR = 1
   LWAVE = .FALSE.
   LCHARG = .FALSE.

 POTCAR:    PAW_PBE C 08Apr2002                   
 POTCAR:    PAW_PBE O 08Apr2002                   
 POTCAR:    PAW_PBE Ti_pv 07Sep2000               
 POTCAR:    PAW_PBE O 08Apr2002                   
 -----------------------------------------------------------------------------
|                                                                             |
|               ----> ADVICE to this user running VASP <----                  |
|                                                                             |
|     You have switched on vdW-DFT.                                           |
|     This routine was written and supplied by Jiri Klimes. We recommend      |
|     that you carefully read and cite the following publications:            |
|       J. Klimes, D.R. Bowler, A. Michelides                                 |
|          J. Phys.: Cond Matt. 22 022201 (2010)                              |
|       J. Klimes, D.R. Bowler, A. Michelides                                 |
|          Phys. Rev. B. 83, 195131 (2011)                                    |
|     and references therein.                                                 |
|                                                                             |
 -----------------------------------------------------------------------------

 POTCAR:    PAW_PBE C 08Apr2002                   
   SHA256 =  253f7b50bb8d59471dbedb8285d89021f4a42ed1a2c5d38a03a736e69125dd95 C/POTCAR              
   COPYR  = (c) Copyright 08Apr2002 Georg Kresse                                                    
   COPYR  = This file is part of the software VASP. Any use, copying, and all other rights are regul
   COPYR  = If you do not have a valid VASP license, you may not use, copy or distribute this file. 
   VRHFIN =C: s2p2                                                                                  
   LEXCH  = PE                                                                                      
   EATOM  =   147.1560 eV,   10.8157 Ry                                                             
                                                                                                    
   TITEL  = PAW_PBE C 08Apr2002                                                                     
   LULTRA =        F    use ultrasoft PP ?                                                          
   IUNSCR =        1    unscreen: 0-lin 1-nonlin 2-no                                               
   RPACOR =    1.200    partial core radius                                                         
   POMASS =   12.011; ZVAL   =    4.000    mass and valenz                                          
   RCORE  =    1.500    outmost cutoff radius                                                       
   RWIGS  =    1.630; RWIGS  =    0.863    wigner-seitz radius (au A)                               
   ENMAX  =  400.000; ENMIN  =  300.000 eV                                                          
   ICORE  =        2    local potential                                                             
   LCOR   =        T    correct aug charges                                                         
   LPAW   =        T    paw PP                                                                      
   EAUG   =  644.873                                                                                
   DEXC   =    0.000                                                                                
   RMAX   =    1.529    core radius for proj-oper                                                   
   RAUG   =    1.300    factor for augmentation sphere                                              
   RDEP   =    1.501    radius for radial grids                                                     
   RDEPT  =    1.300    core radius for aug-charge                                                  
                                                                                                    
   Atomic configuration                                                                             
    4 entries                                                                                       
     n  l   j            E        occ.                                                              
     1  0  0.50      -273.3789   2.0000                                                             
     2  0  0.50       -13.7508   2.0000                                                             
     2  1  0.50        -5.2854   2.0000                                                             
     3  2  1.50        -5.4423   0.0000                                                             
   Description                                                                                      
     l       E           TYP  RCUT    TYP  RCUT                                                     
     0    -13.7508458     23  1.200                                                                 
     0     -8.2022199     23  1.200                                                                 
     1     -5.2854383     23  1.500                                                                 
     1     34.0145650     23  1.500                                                                 
     2     -5.4423304      7  1.500                                                                 
  local pseudopotential read in
  partial core-charges read in
  partial kinetic energy density read in
  atomic valenz-charges read in
  non local Contribution for L=           0  read in
    real space projection operators read in
  non local Contribution for L=           0  read in
    real space projection operators read in
  non local Contribution for L=           1  read in
    real space projection operators read in
  non local Contribution for L=           1  read in
    real space projection operators read in
    PAW grid and wavefunctions read in

   number of l-projection  operators is LMAX  =           4
   number of lm-projection operators is LMMAX =           8

 POTCAR:    PAW_PBE O 08Apr2002                   
   SHA256 =  818f92134a0a090dccd8ba1447fa70422a3b330e708bb4f08108d8ae51209ddf O/POTCAR              
   COPYR  = (c) Copyright 08Apr2002 Georg Kresse                                                    
   COPYR  = This file is part of the software VASP. Any use, copying, and all other rights are regul
   COPYR  = If you do not have a valid VASP license, you may not use, copy or distribute this file. 
   VRHFIN =O: s2p4                                                                                  
   LEXCH  = PE                                                                                      
   EATOM  =   432.3788 eV,   31.7789 Ry                                                             
                                                                                                    
   TITEL  = PAW_PBE O 08Apr2002                                                                     
   LULTRA =        F    use ultrasoft PP ?                                                          
   IUNSCR =        1    unscreen: 0-lin 1-nonlin 2-no                                               
   RPACOR =    1.200    partial core radius                                                         
   POMASS =   16.000; ZVAL   =    6.000    mass and valenz                                          
   RCORE  =    1.520    outmost cutoff radius                                                       
   RWIGS  =    1.550; RWIGS  =    0.820    wigner-seitz radius (au A)                               
   ENMAX  =  400.000; ENMIN  =  300.000 eV                                                          
   ICORE  =        2    local potential                                                             
   LCOR   =        T    correct aug charges                                                         
   LPAW   =        T    paw PP                                                                      
   EAUG   =  605.392                                                                                
   DEXC   =    0.000                                                                                
   RMAX   =    1.553    core radius for proj-oper                                                   
   RAUG   =    1.300    factor for augmentation sphere                                              
   RDEP   =    1.550    radius for radial grids                                                     
   RDEPT  =    1.329    core radius for aug-charge                                                  
                                                                                                    
   Atomic configuration                                                                             
    4 entries                                                                                       
     n  l   j            E        occ.                                                              
     1  0  0.50      -514.6923   2.0000                                                             
     2  0  0.50       -23.9615   2.0000                                                             
     2  1  0.50        -9.0305   4.0000                                                             
     3  2  1.50        -9.5241   0.0000                                                             
   Description                                                                                      
     l       E           TYP  RCUT    TYP  RCUT                                                     
     0    -23.9615318     23  1.200                                                                 
     0     -9.5240782     23  1.200                                                                 
     1     -9.0304911     23  1.520                                                                 
     1      8.1634956     23  1.520                                                                 
     2     -9.5240782      7  1.500                                                                 
  local pseudopotential read in
  partial core-charges read in
  partial kinetic energy density read in
  kinetic energy density of atom read in
  atomic valenz-charges read in
  non local Contribution for L=           0  read in
    real space projection operators read in
  non local Contribution for L=           0  read in
    real space projection operators read in
  non local Contribution for L=           1  read in
    real space projection operators read in
  non local Contribution for L=           1  read in
    real space projection operators read in
    PAW grid and wavefunctions read in

   number of l-projection  operators is LMAX  =           4
   number of lm-projection operators is LMMAX =           8

 POTCAR:    PAW_PBE Ti_pv 07Sep2000               
   SHA256 =  f757a1b2c6d082f4c628fa3d987464a8763bf92e53844ac0500b0e2ddc9ce5c0 Ti_pv/POTCAR          
   COPYR  = (c) Copyright 07Sep2000 Georg Kresse                                                    
   COPYR  = This file is part of the software VASP. Any use, copying, and all other rights are regul
   COPYR  = If you do not have a valid VASP license, you may not use, copy or distribute this file. 
   VRHFIN =Ti: d3 s1                                                                                
   LEXCH  = PE                                                                                      
   EATOM  =  1042.5995 eV,   76.6289 Ry                                                             
                                                                                                    
   TITEL  = PAW_PBE Ti_pv 07Sep2000                                                                 
   LULTRA =        F    use ultrasoft PP ?                                                          
   IUNSCR =        1    unscreen: 0-lin 1-nonlin 2-no                                               
   RPACOR =    2.200    partial core radius                                                         
   POMASS =   47.880; ZVAL   =   10.000    mass and valenz                                          
   RCORE  =    2.500    outmost cutoff radius                                                       
   RWIGS  =    2.500; RWIGS  =    1.323    wigner-seitz radius (au A)                               
   ENMAX  =  222.335; ENMIN  =  166.751 eV                                                          
   RCLOC  =    1.701    cutoff for local pot                                                        
   LCOR   =        T    correct aug charges                                                         
   LPAW   =        T    paw PP                                                                      
   EAUG   =  482.848                                                                                
   DEXC   =    0.000                                                                                
   RMAX   =    2.564    core radius for proj-oper                                                   
   RAUG   =    1.300    factor for augmentation sphere                                              
   RDEP   =    2.538    radius for radial grids                                                     
   RDEPT  =    1.952    core radius for aug-charge                                                  
                                                                                                    
   Atomic configuration                                                                             
    8 entries                                                                                       
     n  l   j            E        occ.                                                              
     1  0  0.50     -4865.3608   2.0000                                                             
     2  0  0.50      -533.1368   2.0000                                                             
     2  1  1.50      -440.5031   6.0000                                                             
     3  0  0.50       -59.3186   2.0000                                                             
     3  1  1.50       -35.7012   6.0000                                                             
     3  2  2.50        -1.9157   3.0000                                                             
     4  0  0.50        -3.7291   1.0000                                                             
     4  3  2.50        -1.3606   0.0000                                                             
   Description                                                                                      
     l       E           TYP  RCUT    TYP  RCUT                                                     
     1    -35.7012140     23  2.300                                                                 
     1     -1.3605826     23  2.300                                                                 
     2     -1.9156996     23  2.500                                                                 
     2     -0.4063033     23  2.500                                                                 
     0     -3.7290856     23  2.500                                                                 
     0     20.4087390     23  2.500                                                                 
  local pseudopotential read in
  partial core-charges read in
  partial kinetic energy density read in
  atomic valenz-charges read in
  non local Contribution for L=           1  read in
    real space projection operators read in
  non local Contribution for L=           1  read in
    real space projection operators read in
  non local Contribution for L=           2  read in
    real space projection operators read in
  non local Contribution for L=           2  read in
    real space projection operators read in
  non local Contribution for L=           0  read in
    real space projection operators read in
  non local Contribution for L=           0  read in
    real space projection operators read in
    PAW grid and wavefunctions read in

   number of l-projection  operators is LMAX  =           6
   number of lm-projection operators is LMMAX =          18

 POTCAR:    PAW_PBE O 08Apr2002                   
   SHA256 =  818f92134a0a090dccd8ba1447fa70422a3b330e708bb4f08108d8ae51209ddf O/POTCAR              
   COPYR  = (c) Copyright 08Apr2002 Georg Kresse                                                    
   COPYR  = This file is part of the software VASP. Any use, copying, and all other rights are regul
   COPYR  = If you do not have a valid VASP license, you may not use, copy or distribute this file. 
   VRHFIN =O: s2p4                                                                                  
   LEXCH  = PE                                                                                      
   EATOM  =   432.3788 eV,   31.7789 Ry                                                             
                                                                                                    
   TITEL  = PAW_PBE O 08Apr2002                                                                     
   LULTRA =        F    use ultrasoft PP ?                                                          
   IUNSCR =        1    unscreen: 0-lin 1-nonlin 2-no                                               
   RPACOR =    1.200    partial core radius                                                         
   POMASS =   16.000; ZVAL   =    6.000    mass and valenz                                          
   RCORE  =    1.520    outmost cutoff radius                                                       
   RWIGS  =    1.550; RWIGS  =    0.820    wigner-seitz radius (au A)                               
   ENMAX  =  400.000; ENMIN  =  300.000 eV                                                          
   ICORE  =        2    local potential                                                             
   LCOR   =        T    correct aug charges                                                         
   LPAW   =        T    paw PP                                                                      
   EAUG   =  605.392                                                                                
   DEXC   =    0.000                                                                                
   RMAX   =    1.553    core radius for proj-oper                                                   
   RAUG   =    1.300    factor for augmentation sphere                                              
   RDEP   =    1.550    radius for radial grids                                                     
   RDEPT  =    1.329    core radius for aug-charge                                                  
                                                                                                    
   Atomic configuration                                                                             
    4 entries                                                                                       
     n  l   j            E        occ.                                                              
     1  0  0.50      -514.6923   2.0000                                                             
     2  0  0.50       -23.9615   2.0000                                                             
     2  1  0.50        -9.0305   4.0000                                                             
     3  2  1.50        -9.5241   0.0000                                                             
   Description                                                                                      
     l       E           TYP  RCUT    TYP  RCUT                                                     
     0    -23.9615318     23  1.200                                                                 
     0     -9.5240782     23  1.200                                                                 
     1     -9.0304911     23  1.520                                                                 
     1      8.1634956     23  1.520                                                                 
     2     -9.5240782      7  1.500                                                                 
  local pseudopotential read in
  partial core-charges read in
  partial kinetic energy density read in
  kinetic energy density of atom read in
  atomic valenz-charges read in
  non local Contribution for L=           0  read in
    real space projection operators read in
  non local Contribution for L=           0  read in
    real space projection operators read in
  non local Contribution for L=           1  read in
    real space projection operators read in
  non local Contribution for L=           1  read in
    real space projection operators read in
    PAW grid and wavefunctions read in

   number of l-projection  operators is LMAX  =           4
   number of lm-projection operators is LMMAX =           8

 -----------------------------------------------------------------------------
|                                                                             |
|               ----> ADVICE to this user running VASP <----                  |
|                                                                             |
|     You have a (more or less) 'large supercell' and for larger cells it     |
|     might be more efficient to use real-space projection operators.         |
|     Therefore, try LREAL= Auto in the INCAR file.                           |
|     Mind: For very accurate calculation, you might also keep the            |
|     reciprocal projection scheme (i.e. LREAL=.FALSE.).                      |
|                                                                             |
 -----------------------------------------------------------------------------

 -----------------------------------------------------------------------------
|                                                                             |
|               ----> ADVICE to this user running VASP <----                  |
|                                                                             |
|     You enforced a specific xc type in the INCAR file but a different       |
|     type was found in the POTCAR file.                                      |
|     I HOPE YOU KNOW WHAT YOU ARE DOING!                                     |
|                                                                             |
 -----------------------------------------------------------------------------

  PAW_PBE C 08Apr2002                   :
 energy of atom  1       EATOM= -147.1560
 kinetic energy error for atom=    0.0057 (will be added to EATOM!!)
  PAW_PBE O 08Apr2002                   :
 energy of atom  2       EATOM= -432.3788
 kinetic energy error for atom=    0.0168 (will be added to EATOM!!)
  PAW_PBE Ti_pv 07Sep2000               :
 energy of atom  3       EATOM=-1042.5995
 kinetic energy error for atom=    0.0007 (will be added to EATOM!!)
  PAW_PBE O 08Apr2002                   :
 energy of atom  4       EATOM= -432.3788
 kinetic energy error for atom=    0.0168 (will be added to EATOM!!)


 POSCAR:  C  O Ti  O
  positions in direct lattice
  No initial velocities read in
 exchange correlation table for  LEXCH =       43
   RHO(1)=    0.500       N(1)  =     2000
   RHO(2)=  100.500       N(2)  =     4000



--------------------------------------------------------------------------------------------------------


 ion  position               nearest neighbor table
   1  0.500  0.604  0.802-   2 1.17   3 1.18
   2  0.500  0.700  0.811-   1 1.17
   3  0.500  0.507  0.792-   1 1.18  83 2.53
   4  0.750  0.625  0.287-  84 1.96  85 1.96 144 1.96 145 1.96 166 1.99  87 1.99  14 2.96  34 2.96

   5  0.000  0.750  0.287-  87 1.96 107 1.96 106 1.96  86 1.96  88 1.99  35 2.96  15 2.96
   6  0.000  0.625  0.393-  88 1.96  89 1.96 148 1.96 149 1.96  90 1.99  91 1.99  16 2.96  36 2.96

   7  0.750  0.750  0.393- 171 1.96 191 1.96  90 1.96 110 1.96  92 1.99  85 1.99  17 2.96  37 2.96

   8  0.750  0.625  0.500-  92 1.96  93 1.96 152 1.96 153 1.96 174 1.99  95 1.99  18 2.96  38 2.96

   9  0.000  0.750  0.500-  95 1.96 115 1.96 114 1.96  94 1.96  89 1.99  96 2.01  19 2.96  39 2.96

  10  0.000  0.625  0.604-  96 1.90 156 1.90  99 1.96  98 1.96  97 2.02 157 2.02  20 2.96  40 2.96

  11  0.750  0.750  0.611- 100 1.87 199 1.98 179 1.98 118 1.98  98 1.98  93 2.11  21 2.96  41 2.96

  12  0.750  0.625  0.720- 101 1.83 161 1.84 103 2.04 182 2.04 100 2.09 160 2.10  22 2.96  42 2.96

  13  1.000  0.750  0.709-  97 1.82 123 1.95 122 1.95 103 1.95 102 1.95  23 2.96  43 2.96
  14  0.750  0.875  0.287-  84 1.96  85 1.96 104 1.96 105 1.96 186 1.99 107 1.99   4 2.96  24 2.96

  15  0.000  0.000  0.287- 107 1.96 127 1.96 126 1.96 106 1.96 108 1.99  25 2.96   5 2.96
  16  0.000  0.875  0.393-  88 1.96  89 1.96 108 1.96 109 1.96 110 1.99 111 1.99   6 2.96  26 2.96

  17  0.750  0.000  0.393- 191 1.96 211 1.96 110 1.96 130 1.96 112 1.99 105 1.99   7 2.96  27 2.96

  18  0.750  0.875  0.500-  92 1.96  93 1.96 112 1.96 113 1.96 194 1.99 115 1.99   8 2.96  28 2.96

  19  0.000  0.000  0.500- 115 1.96 135 1.96 134 1.96 114 1.96 109 1.99 116 2.01   9 2.96  29 2.96

  20  0.000  0.875  0.604- 116 1.90  96 1.90 119 1.96 118 1.96 117 2.02  97 2.02  30 2.96  10 2.96

  21  0.750  0.000  0.611- 120 1.87 219 1.98 199 1.98 138 1.98 118 1.98 113 2.11  31 2.96  11 2.96

  22  0.750  0.875  0.720- 121 1.83 101 1.83 202 2.04 123 2.04 120 2.10 100 2.10  12 2.96  32 2.96

  23  1.000  0.000  0.709- 117 1.82 123 1.95 122 1.95 143 1.95 142 1.95  13 2.96  33 2.96
  24  0.750  0.125  0.287- 104 1.96 105 1.96 124 1.96 125 1.96 206 1.99 127 1.99  14 2.96  34 2.96

  25  0.000  0.250  0.287- 127 1.96 147 1.96 146 1.96 126 1.96 128 1.99  35 2.96  15 2.96
  26  0.000  0.125  0.393- 108 1.96 109 1.96 128 1.96 129 1.96 130 1.99 131 1.99  16 2.96  36 2.96

  27  0.750  0.250  0.393- 211 1.96 231 1.96 130 1.96 150 1.96 132 1.99 125 1.99  17 2.96  37 2.96

  28  0.750  0.125  0.500- 112 1.96 113 1.96 132 1.96 133 1.96 214 1.99 135 1.99  18 2.96  38 2.96

  29  0.000  0.250  0.500- 135 1.96 155 1.96 154 1.96 134 1.96 129 1.99 136 2.01  19 2.96  39 2.96

  30  0.000  0.125  0.604- 116 1.90 136 1.90 139 1.96 138 1.96 117 2.02 137 2.02  20 2.96  40 2.96

  31  0.750  0.250  0.611- 140 1.87 219 1.98 239 1.98 158 1.98 138 1.98 133 2.11  21 2.96  41 2.96

  32  0.750  0.125  0.720- 121 1.83 141 1.83 222 2.04 143 2.04 140 2.10 120 2.10  22 2.96  42 2.96

  33  1.000  0.250  0.709- 137 1.82 143 1.95 142 1.95 163 1.95 162 1.95  23 2.96  43 2.96
  34  0.750  0.375  0.287- 124 1.96 125 1.96 144 1.96 145 1.96 226 1.99 147 1.99   4 2.96  24 2.96

  35  0.000  0.500  0.287-  87 1.96 147 1.96 146 1.96  86 1.96 148 1.99  25 2.96   5 2.96
  36  0.000  0.375  0.393- 128 1.96 129 1.96 148 1.96 149 1.96 150 1.99 151 1.99   6 2.96  26 2.96

  37  0.750  0.500  0.393- 171 1.96 231 1.96  90 1.96 150 1.96 145 1.99 152 1.99   7 2.96  27 2.96

  38  0.750  0.375  0.500- 132 1.96 133 1.96 152 1.96 153 1.96 234 1.99 155 1.99   8 2.96  28 2.96

  39  0.000  0.500  0.500-  95 1.96 155 1.96 154 1.96  94 1.96 149 1.99 156 2.01   9 2.96  29 2.96

  40  0.000  0.375  0.604- 136 1.90 156 1.90 159 1.96 158 1.96 137 2.02 157 2.02  30 2.96  10 2.96

  41  0.750  0.500  0.611- 160 1.87 239 1.98 179 1.98 158 1.98  98 1.98 153 2.11  31 2.96  11 2.96

  42  0.750  0.375  0.720- 141 1.83 161 1.83 163 2.04 242 2.04 160 2.10 140 2.10  32 2.96  12 2.96

  43  1.000  0.500  0.709- 157 1.82 103 1.95 102 1.95 163 1.95 162 1.95  13 2.96  33 2.96
  44  0.250  0.625  0.287- 164 1.96 165 1.96 224 1.96 225 1.96  86 1.99 167 1.99  54 2.96  74 2.96

  45  0.500  0.750  0.287- 167 1.96 187 1.96 186 1.96 166 1.96 168 1.99  75 2.96  55 2.96
  46  0.500  0.625  0.393- 168 1.96 169 1.96 228 1.96 229 1.96 170 1.99 171 1.99  56 2.96  76 2.96

  47  0.250  0.750  0.393-  91 1.96 111 1.96 170 1.96 190 1.96 172 1.99 165 1.99  57 2.96  77 2.96

  48  0.250  0.625  0.500- 172 1.96 173 1.96 232 1.96 233 1.96  94 1.99 175 1.99  58 2.96  78 2.96

  49  0.500  0.750  0.500- 175 1.96 195 1.96 194 1.96 174 1.96 169 1.99 176 2.00  59 2.96  79 2.96

  50  0.500  0.624  0.605- 236 1.90 176 1.91 179 1.96 178 1.96 177 2.01 237 2.01  80 2.95  60 2.97

  51  0.250  0.750  0.611- 180 1.87 198 1.98 178 1.98 119 1.98  99 1.98 173 2.11  61 2.96  81 2.96

  52  0.250  0.625  0.720- 181 1.83 241 1.84 102 2.04 183 2.04 180 2.09 240 2.10  62 2.96  82 2.96

  53  0.500  0.751  0.708- 177 1.82 183 1.95 182 1.95 203 1.95 202 1.95  63 2.95  83 2.98
  54  0.250  0.875  0.287- 164 1.96 165 1.96 184 1.96 185 1.96 106 1.99 187 1.99  44 2.96  64 2.96

  55  0.500  0.000  0.287- 187 1.96 207 1.96 206 1.96 186 1.96 188 1.99  65 2.96  45 2.96
  56  0.500  0.875  0.393- 168 1.96 169 1.96 188 1.96 189 1.96 190 1.99 191 1.99  46 2.96  66 2.96

  57  0.250  0.000  0.393- 111 1.96 131 1.96 190 1.96 210 1.96 192 1.99 185 1.99  47 2.96  67 2.96

  58  0.250  0.875  0.500- 172 1.96 173 1.96 192 1.96 193 1.96 114 1.99 195 1.99  48 2.96  68 2.96

  59  0.500  0.000  0.500- 195 1.96 215 1.96 214 1.96 194 1.96 189 1.99 196 2.00  49 2.96  69 2.96

  60  0.500  0.875  0.604- 176 1.90 196 1.90 199 1.96 198 1.96 177 2.01 197 2.02  50 2.97  70 2.97

  61  0.250  0.000  0.611- 200 1.87 218 1.98 198 1.98 139 1.98 119 1.98 193 2.11  71 2.96  51 2.96

  62  0.250  0.875  0.720- 201 1.83 181 1.83 203 2.04 122 2.04 200 2.10 180 2.10  52 2.96  72 2.96

  63  0.500  0.000  0.708- 197 1.82 203 1.95 202 1.95 223 1.95 222 1.95  53 2.95  73 2.96
  64  0.250  0.125  0.287- 184 1.96 185 1.96 204 1.96 205 1.96 126 1.99 207 1.99  54 2.96  74 2.96

  65  0.500  0.250  0.287- 207 1.96 227 1.96 226 1.96 206 1.96 208 1.99  75 2.96  55 2.96
  66  0.500  0.125  0.393- 188 1.96 189 1.96 208 1.96 209 1.96 210 1.99 211 1.99  56 2.96  76 2.96

  67  0.250  0.250  0.393- 131 1.96 151 1.96 210 1.96 230 1.96 212 1.99 205 1.99  57 2.96  77 2.96

  68  0.250  0.125  0.500- 192 1.96 193 1.96 212 1.96 213 1.96 134 1.99 215 1.99  58 2.96  78 2.96

  69  0.500  0.250  0.500- 215 1.96 235 1.96 234 1.96 214 1.96 209 1.99 216 2.00  59 2.96  79 2.96

  70  0.500  0.125  0.604- 216 1.90 196 1.90 219 1.96 218 1.96 217 2.01 197 2.02  80 2.96  60 2.97

  71  0.250  0.250  0.611- 220 1.87 218 1.98 238 1.98 159 1.98 139 1.98 213 2.11  61 2.96  81 2.96

  72  0.250  0.125  0.720- 201 1.83 221 1.83 223 2.04 142 2.04 220 2.10 200 2.10  62 2.96  82 2.96

  73  0.500  0.250  0.708- 217 1.82 243 1.94 242 1.94 223 1.95 222 1.95  83 2.95  63 2.96
  74  0.250  0.375  0.287- 204 1.96 205 1.96 224 1.96 225 1.96 146 1.99 227 1.99  44 2.96  64 2.96

  75  0.500  0.500  0.287- 167 1.96 227 1.96 226 1.96 166 1.96 228 1.99  65 2.96  45 2.96
  76  0.500  0.375  0.393- 208 1.96 209 1.96 228 1.96 229 1.96 230 1.99 231 1.99  46 2.96  66 2.96

  77  0.250  0.500  0.393-  91 1.96 151 1.96 170 1.96 230 1.96 225 1.99 232 1.99  47 2.96  67 2.96

  78  0.250  0.375  0.500- 212 1.96 213 1.96 232 1.96 233 1.96 154 1.99 235 1.99  48 2.96  68 2.96

  79  0.500  0.500  0.500- 175 1.96 235 1.96 234 1.96 174 1.96 229 1.99 236 2.01  49 2.96  69 2.96

  80  0.500  0.376  0.605- 236 1.90 216 1.91 239 1.96 238 1.96 217 2.01 237 2.01  50 2.95  70 2.96

  81  0.250  0.500  0.611- 240 1.87 238 1.98 178 1.98 159 1.98  99 1.98 233 2.11  71 2.96  51 2.96

  82  0.250  0.375  0.720- 221 1.83 241 1.83 162 2.04 243 2.04 240 2.10 220 2.10  72 2.96  52 2.96

  83  0.500  0.499  0.710- 237 1.84 243 1.94 242 1.94 183 1.96 182 1.96   3 2.53  73 2.95  53 2.98

  84  0.750  0.750  0.245-   4 1.96  14 1.96
  85  0.750  0.750  0.328-   4 1.96  14 1.96   7 1.99
  86  0.098  0.625  0.287-   5 1.96  35 1.96  44 1.99
  87  0.902  0.625  0.287-   5 1.96  35 1.96   4 1.99
  88  0.000  0.750  0.352-   6 1.96  16 1.96   5 1.99
  89  0.000  0.750  0.435-   6 1.96  16 1.96   9 1.99
  90  0.848  0.625  0.393-   7 1.96  37 1.96   6 1.99
  91  0.152  0.625  0.393-  47 1.96  77 1.96   6 1.99
  92  0.750  0.750  0.458-   8 1.96  18 1.96   7 1.99
  93  0.750  0.750  0.542-   8 1.96  18 1.96  11 2.11
  94  0.098  0.625  0.500-   9 1.96  39 1.96  48 1.99
  95  0.902  0.625  0.500-   9 1.96  39 1.96   8 1.99
  96  1.000  0.750  0.565-  10 1.90  20 1.90   9 2.01
  97  1.000  0.750  0.649-  13 1.82  10 2.02  20 2.02
  98  0.850  0.625  0.607-  10 1.96  11 1.98  41 1.98
  99  0.150  0.625  0.607-  10 1.96  51 1.98  81 1.98
 100  0.750  0.750  0.672-  11 1.87  12 2.09  22 2.10
 101  0.750  0.750  0.756-  12 1.83  22 1.83
 102  0.094  0.625  0.719-  43 1.95  13 1.95  52 2.04
 103  0.906  0.625  0.719-  43 1.95  13 1.95  12 2.04
 104  0.750  0.000  0.245-  14 1.96  24 1.96
 105  0.750  0.000  0.328-  14 1.96  24 1.96  17 1.99
 106  0.098  0.875  0.287-   5 1.96  15 1.96  54 1.99
 107  0.902  0.875  0.287-   5 1.96  15 1.96  14 1.99
 108  0.000  0.000  0.352-  16 1.96  26 1.96  15 1.99
 109  0.000  0.000  0.435-  16 1.96  26 1.96  19 1.99
 110  0.848  0.875  0.393-   7 1.96  17 1.96  16 1.99
 111  0.152  0.875  0.393-  47 1.96  57 1.96  16 1.99
 112  0.750  0.000  0.458-  18 1.96  28 1.96  17 1.99
 113  0.750  0.000  0.542-  18 1.96  28 1.96  21 2.11
 114  0.098  0.875  0.500-   9 1.96  19 1.96  58 1.99
 115  0.902  0.875  0.500-   9 1.96  19 1.96  18 1.99
 116  1.000  0.000  0.565-  30 1.90  20 1.90  19 2.01
 117  1.000  0.000  0.649-  23 1.82  30 2.02  20 2.02
 118  0.850  0.875  0.607-  20 1.96  11 1.98  21 1.98
 119  0.150  0.875  0.607-  20 1.96  51 1.98  61 1.98
 120  0.750  0.000  0.672-  21 1.87  22 2.10  32 2.10
 121  0.750  0.000  0.756-  22 1.83  32 1.83
 122  0.094  0.875  0.719-  13 1.95  23 1.95  62 2.04
 123  0.906  0.875  0.719-  13 1.95  23 1.95  22 2.04
 124  0.750  0.250  0.245-  24 1.96  34 1.96
 125  0.750  0.250  0.328-  24 1.96  34 1.96  27 1.99
 126  0.098  0.125  0.287-  15 1.96  25 1.96  64 1.99
 127  0.902  0.125  0.287-  15 1.96  25 1.96  24 1.99
 128  0.000  0.250  0.352-  26 1.96  36 1.96  25 1.99
 129  0.000  0.250  0.435-  26 1.96  36 1.96  29 1.99
 130  0.848  0.125  0.393-  17 1.96  27 1.96  26 1.99
 131  0.152  0.125  0.393-  57 1.96  67 1.96  26 1.99
 132  0.750  0.250  0.458-  28 1.96  38 1.96  27 1.99
 133  0.750  0.250  0.542-  28 1.96  38 1.96  31 2.11
 134  0.098  0.125  0.500-  19 1.96  29 1.96  68 1.99
 135  0.902  0.125  0.500-  19 1.96  29 1.96  28 1.99
 136  1.000  0.250  0.565-  40 1.90  30 1.90  29 2.01
 137  1.000  0.250  0.649-  33 1.82  40 2.02  30 2.02
 138  0.850  0.125  0.607-  30 1.96  21 1.98  31 1.98
 139  0.150  0.125  0.607-  30 1.96  61 1.98  71 1.98
 140  0.751  0.250  0.672-  31 1.87  32 2.10  42 2.10
 141  0.750  0.250  0.756-  42 1.83  32 1.83
 142  0.094  0.125  0.719-  33 1.95  23 1.95  72 2.04
 143  0.906  0.125  0.719-  33 1.95  23 1.95  32 2.04
 144  0.750  0.500  0.245-   4 1.96  34 1.96
 145  0.750  0.500  0.328-   4 1.96  34 1.96  37 1.99
 146  0.098  0.375  0.287-  25 1.96  35 1.96  74 1.99
 147  0.902  0.375  0.287-  25 1.96  35 1.96  34 1.99
 148  0.000  0.500  0.352-   6 1.96  36 1.96  35 1.99
 149  0.000  0.500  0.435-   6 1.96  36 1.96  39 1.99
 150  0.848  0.375  0.393-  27 1.96  37 1.96  36 1.99
 151  0.152  0.375  0.393-  67 1.96  77 1.96  36 1.99
 152  0.750  0.500  0.458-   8 1.96  38 1.96  37 1.99
 153  0.750  0.500  0.542-   8 1.96  38 1.96  41 2.11
 154  0.098  0.375  0.500-  29 1.96  39 1.96  78 1.99
 155  0.902  0.375  0.500-  29 1.96  39 1.96  38 1.99
 156  1.000  0.500  0.565-  40 1.90  10 1.90  39 2.01
 157  1.000  0.500  0.649-  43 1.82  10 2.02  40 2.02
 158  0.850  0.375  0.607-  40 1.96  41 1.98  31 1.98
 159  0.150  0.375  0.607-  40 1.96  81 1.98  71 1.98
 160  0.751  0.500  0.672-  41 1.87  12 2.10  42 2.10
 161  0.749  0.500  0.756-  42 1.83  12 1.84
 162  0.094  0.375  0.719-  43 1.95  33 1.95  82 2.04
 163  0.906  0.375  0.719-  43 1.95  33 1.95  42 2.04
 164  0.250  0.750  0.245-  44 1.96  54 1.96
 165  0.250  0.750  0.328-  44 1.96  54 1.96  47 1.99
 166  0.598  0.625  0.287-  45 1.96  75 1.96   4 1.99
 167  0.402  0.625  0.287-  45 1.96  75 1.96  44 1.99
 168  0.500  0.750  0.352-  46 1.96  56 1.96  45 1.99
 169  0.500  0.750  0.435-  46 1.96  56 1.96  49 1.99
 170  0.348  0.625  0.393-  47 1.96  77 1.96  46 1.99
 171  0.652  0.625  0.393-   7 1.96  37 1.96  46 1.99
 172  0.250  0.750  0.458-  48 1.96  58 1.96  47 1.99
 173  0.250  0.750  0.542-  48 1.96  58 1.96  51 2.11
 174  0.598  0.625  0.500-  49 1.96  79 1.96   8 1.99
 175  0.402  0.625  0.500-  49 1.96  79 1.96  48 1.99
 176  0.500  0.750  0.565-  60 1.90  50 1.91  49 2.00
 177  0.500  0.750  0.649-  53 1.82  60 2.01  50 2.01
 178  0.350  0.625  0.607-  50 1.96  81 1.98  51 1.98
 179  0.650  0.625  0.607-  50 1.96  41 1.98  11 1.98
 180  0.250  0.750  0.672-  51 1.87  52 2.09  62 2.10
 181  0.250  0.750  0.756-  52 1.83  62 1.83
 182  0.594  0.626  0.719-  53 1.95  83 1.96  12 2.04
 183  0.406  0.626  0.719-  53 1.95  83 1.96  52 2.04
 184  0.250  0.000  0.245-  54 1.96  64 1.96
 185  0.250  0.000  0.328-  54 1.96  64 1.96  57 1.99
 186  0.598  0.875  0.287-  45 1.96  55 1.96  14 1.99
 187  0.402  0.875  0.287-  45 1.96  55 1.96  54 1.99
 188  0.500  0.000  0.352-  56 1.96  66 1.96  55 1.99
 189  0.500  0.000  0.435-  56 1.96  66 1.96  59 1.99
 190  0.348  0.875  0.393-  47 1.96  57 1.96  56 1.99
 191  0.652  0.875  0.393-   7 1.96  17 1.96  56 1.99
 192  0.250  0.000  0.458-  58 1.96  68 1.96  57 1.99
 193  0.250  0.000  0.542-  58 1.96  68 1.96  61 2.11
 194  0.598  0.875  0.500-  49 1.96  59 1.96  18 1.99
 195  0.402  0.875  0.500-  49 1.96  59 1.96  58 1.99
 196  0.500  0.000  0.565-  60 1.90  70 1.90  59 2.00
 197  0.500  0.000  0.649-  63 1.82  70 2.02  60 2.02
 198  0.350  0.875  0.607-  60 1.96  51 1.98  61 1.98
 199  0.650  0.875  0.607-  60 1.96  11 1.98  21 1.98
 200  0.250  0.000  0.672-  61 1.87  62 2.10  72 2.10
 201  0.250  0.000  0.756-  62 1.83  72 1.83
 202  0.594  0.876  0.719-  63 1.95  53 1.95  22 2.04
 203  0.406  0.876  0.719-  63 1.95  53 1.95  62 2.04
 204  0.250  0.250  0.245-  64 1.96  74 1.96
 205  0.250  0.250  0.328-  64 1.96  74 1.96  67 1.99
 206  0.598  0.125  0.287-  55 1.96  65 1.96  24 1.99
 207  0.402  0.125  0.287-  55 1.96  65 1.96  64 1.99
 208  0.500  0.250  0.352-  66 1.96  76 1.96  65 1.99
 209  0.500  0.250  0.435-  66 1.96  76 1.96  69 1.99
 210  0.348  0.125  0.393-  57 1.96  67 1.96  66 1.99
 211  0.652  0.125  0.393-  17 1.96  27 1.96  66 1.99
 212  0.250  0.250  0.458-  68 1.96  78 1.96  67 1.99
 213  0.250  0.250  0.542-  68 1.96  78 1.96  71 2.11
 214  0.598  0.125  0.500-  59 1.96  69 1.96  28 1.99
 215  0.402  0.125  0.500-  59 1.96  69 1.96  68 1.99
 216  0.500  0.251  0.565-  70 1.90  80 1.91  69 2.00
 217  0.500  0.249  0.649-  73 1.82  70 2.01  80 2.01
 218  0.350  0.125  0.607-  70 1.96  61 1.98  71 1.98
 219  0.650  0.125  0.607-  70 1.96  21 1.98  31 1.98
 220  0.249  0.250  0.672-  71 1.87  72 2.10  82 2.10
 221  0.250  0.250  0.756-  82 1.83  72 1.83
 222  0.594  0.125  0.719-  73 1.95  63 1.95  32 2.04
 223  0.406  0.125  0.719-  73 1.95  63 1.95  72 2.04
 224  0.250  0.500  0.245-  44 1.96  74 1.96
 225  0.250  0.500  0.328-  44 1.96  74 1.96  77 1.99
 226  0.598  0.375  0.287-  65 1.96  75 1.96  34 1.99
 227  0.402  0.375  0.287-  65 1.96  75 1.96  74 1.99
 228  0.500  0.500  0.352-  46 1.96  76 1.96  75 1.99
 229  0.500  0.500  0.435-  46 1.96  76 1.96  79 1.99
 230  0.348  0.375  0.393-  67 1.96  77 1.96  76 1.99
 231  0.652  0.375  0.393-  27 1.96  37 1.96  76 1.99
 232  0.250  0.500  0.458-  48 1.96  78 1.96  77 1.99
 233  0.250  0.500  0.542-  48 1.96  78 1.96  81 2.11
 234  0.598  0.375  0.500-  69 1.96  79 1.96  38 1.99
 235  0.402  0.375  0.500-  69 1.96  79 1.96  78 1.99
 236  0.500  0.500  0.566-  80 1.90  50 1.90  79 2.01
 237  0.500  0.500  0.650-  83 1.84  50 2.01  80 2.01
 238  0.350  0.375  0.607-  80 1.96  81 1.98  71 1.98
 239  0.650  0.375  0.607-  80 1.96  41 1.98  31 1.98
 240  0.249  0.500  0.672-  81 1.87  52 2.10  82 2.10
 241  0.251  0.500  0.756-  82 1.83  52 1.84
 242  0.594  0.374  0.718-  83 1.94  73 1.94  42 2.04
 243  0.406  0.374  0.718-  83 1.94  73 1.94  82 2.04


IMPORTANT INFORMATION: All symmetrisations will be switched off!
NOSYMM: (Re-)initialisation of all symmetry stuff for point group C_1.


----------------------------------------------------------------------------------------

                                     Primitive cell                                     

  volume of cell :    4737.1524

  direct lattice vectors                    reciprocal lattice vectors
    13.061127704  0.000000000  0.000000000     0.076563067  0.000000000  0.000000000
     0.000000000 11.845298948  0.000000000     0.000000000  0.084421677  0.000000000
     0.000000000  0.000000000 30.618975621     0.000000000  0.000000000  0.032659486

  length of vectors
    13.061127704 11.845298948 30.618975621     0.076563067  0.084421677  0.032659486

  position of ions in fractional coordinates (direct lattice)
     0.499999838  0.603651093  0.802422301
     0.499999982  0.699618826  0.811467949
     0.499999635  0.507314297  0.792424875
     0.750000000  0.625000000  0.286715143
     0.000000000  0.750000000  0.286715143
     0.000000000  0.625000000  0.393357571
     0.750000000  0.750000000  0.393357571
     0.750000000  0.625000000  0.500000000
     0.000000000  0.750000000  0.500000000
     0.000018273  0.625054340  0.604454167
     0.750043058  0.750080722  0.610637700
     0.750153036  0.625326746  0.720096565
     0.999998416  0.750201101  0.708612907
     0.750000000  0.875000000  0.286715143
     0.000000000  0.000000000  0.286715143
     0.000000000  0.875000000  0.393357571
     0.750000000  0.000000000  0.393357571
     0.750000000  0.875000000  0.500000000
     0.000000000  0.000000000  0.500000000
     0.000018501  0.875049095  0.604479124
     0.749993294  0.000054474  0.610732695
     0.749862558  0.875194571  0.720435615
     0.999998412  0.000069978  0.708620513
     0.750000000  0.125000000  0.286715143
     0.000000000  0.250000000  0.286715143
     0.000000000  0.125000000  0.393357571
     0.750000000  0.250000000  0.393357571
     0.750000000  0.125000000  0.500000000
     0.000000000  0.250000000  0.500000000
     0.000018241  0.125011926  0.604483464
     0.750055332  0.250011897  0.610726761
     0.749928399  0.125151515  0.720415545
     0.999998444  0.249998092  0.708623066
     0.750000000  0.375000000  0.286715143
     0.000000000  0.500000000  0.286715143
     0.000000000  0.375000000  0.393357571
     0.750000000  0.500000000  0.393357571
     0.750000000  0.375000000  0.500000000
     0.000000000  0.500000000  0.500000000
     0.000018195  0.375020600  0.604459652
     0.750084895  0.500031312  0.610662926
     0.750233710  0.375184014  0.720352467
     0.999998430  0.500153264  0.708605034
     0.250000000  0.625000000  0.286715143
     0.500000000  0.750000000  0.286715143
     0.500000000  0.625000000  0.393357571
     0.250000000  0.750000000  0.393357571
     0.250000000  0.625000000  0.500000000
     0.500000000  0.750000000  0.500000000
     0.500018582  0.624457216  0.604859463
     0.249986120  0.750080570  0.610637707
     0.249843768  0.625326778  0.720096565
     0.499998363  0.750691837  0.708260081
     0.250000000  0.875000000  0.286715143
     0.500000000  0.000000000  0.286715143
     0.500000000  0.875000000  0.393357571
     0.250000000  0.000000000  0.393357571
     0.250000000  0.875000000  0.500000000
     0.500000000  0.000000000  0.500000000
     0.500018594  0.874771678  0.604183376
     0.250035755  0.000054483  0.610732678
     0.250134222  0.875194618  0.720435590
     0.499998453  0.000074256  0.708318516
     0.250000000  0.125000000  0.286715143
     0.500000000  0.250000000  0.286715143
     0.500000000  0.125000000  0.393357571
     0.250000000  0.250000000  0.393357571
     0.250000000  0.125000000  0.500000000
     0.500000000  0.250000000  0.500000000
     0.500018531  0.125262500  0.604210190
     0.249973363  0.250011864  0.610726756
     0.250068419  0.125151541  0.720415518
     0.499998402  0.249601278  0.708326997
     0.250000000  0.375000000  0.286715143
     0.500000000  0.500000000  0.286715143
     0.500000000  0.375000000  0.393357571
     0.250000000  0.500000000  0.393357571
     0.250000000  0.375000000  0.500000000
     0.500000000  0.500000000  0.500000000
     0.500018313  0.375534732  0.604860054
     0.249943954  0.500031319  0.610662946
     0.249763126  0.375184013  0.720352425
     0.499998487  0.498880481  0.709702610
     0.750000000  0.750000000  0.244946144
     0.750000000  0.750000000  0.328484141
     0.097918341  0.625000000  0.286715143
     0.902081659  0.625000000  0.286715143
     0.000000000  0.750000000  0.351588572
     0.000000000  0.750000000  0.435126570
     0.847918341  0.625000000  0.393357571
     0.152081659  0.625000000  0.393357571
     0.750000000  0.750000000  0.458231001
     0.750000000  0.750000000  0.541768999
     0.097918341  0.625000000  0.500000000
     0.902081659  0.625000000  0.500000000
     0.999997486  0.750072095  0.565490090
     0.999997752  0.750018488  0.649268790
     0.850135895  0.625089543  0.607135808
     0.149858412  0.625089553  0.607134894
     0.750458266  0.750213744  0.671766187
     0.749528335  0.749900469  0.755667776
     0.093878304  0.625079887  0.719222439
     0.906118842  0.625079874  0.719222502
     0.750000000  0.000000000  0.244946144
     0.750000000  0.000000000  0.328484141
     0.097918341  0.875000000  0.286715143
     0.902081659  0.875000000  0.286715143
     0.000000000  0.000000000  0.351588572
     0.000000000  0.000000000  0.435126570
     0.847918341  0.875000000  0.393357571
     0.152081659  0.875000000  0.393357571
     0.750000000  0.000000000  0.458231001
     0.750000000  0.000000000  0.541768999
     0.097918341  0.875000000  0.500000000
     0.902081659  0.875000000  0.500000000
     0.999997503  0.000042801  0.565498395
     0.999997729  0.000034842  0.649279562
     0.850122385  0.875077657  0.607192075
     0.149871919  0.875077651  0.607191148
     0.750180287  0.000072827  0.671837979
     0.750146454  0.000118035  0.755722016
     0.093894973  0.875053010  0.719151294
     0.906102182  0.875053001  0.719151376
     0.750000000  0.250000000  0.244946144
     0.750000000  0.250000000  0.328484141
     0.097918341  0.125000000  0.286715143
     0.902081659  0.125000000  0.286715143
     0.000000000  0.250000000  0.351588572
     0.000000000  0.250000000  0.435126570
     0.847918341  0.125000000  0.393357571
     0.152081659  0.125000000  0.393357571
     0.750000000  0.250000000  0.458231001
     0.750000000  0.250000000  0.541768999
     0.097918341  0.125000000  0.500000000
     0.902081659  0.125000000  0.500000000
     0.999997508  0.250005118  0.565498965
     0.999997770  0.250108725  0.649286959
     0.850135179  0.124990455  0.607209102
     0.149859198  0.124990429  0.607208179
     0.750546701  0.249895810  0.671811719
     0.749847261  0.250266180  0.755683668
     0.093863286  0.125140177  0.719144556
     0.906133887  0.125140190  0.719144660
     0.750000000  0.500000000  0.244946144
     0.750000000  0.500000000  0.328484141
     0.097918341  0.375000000  0.286715143
     0.902081659  0.375000000  0.286715143
     0.000000000  0.500000000  0.351588572
     0.000000000  0.500000000  0.435126570
     0.847918341  0.375000000  0.393357571
     0.152081659  0.375000000  0.393357571
     0.750000000  0.500000000  0.458231001
     0.750000000  0.500000000  0.541768999
     0.097918341  0.375000000  0.500000000
     0.902081659  0.375000000  0.500000000
     0.999997488  0.500026480  0.565488810
     0.999997767  0.500070972  0.649265344
     0.850135033  0.375007074  0.607154537
     0.149859315  0.375007034  0.607153609
     0.750771406  0.500124083  0.671769381
     0.748575839  0.500388609  0.755619716
     0.093886836  0.375209170  0.719243632
     0.906110329  0.375209183  0.719243724
     0.250000000  0.750000000  0.244946144
     0.250000000  0.750000000  0.328484141
     0.597918341  0.625000000  0.286715143
     0.402081659  0.625000000  0.286715143
     0.500000000  0.750000000  0.351588572
     0.500000000  0.750000000  0.435126570
     0.347918341  0.625000000  0.393357571
     0.652081659  0.625000000  0.393357571
     0.250000000  0.750000000  0.458231001
     0.250000000  0.750000000  0.541768999
     0.597918341  0.625000000  0.500000000
     0.402081659  0.625000000  0.500000000
     0.499997645  0.749542681  0.565468861
     0.499997499  0.750485375  0.648973800
     0.349948950  0.625010424  0.607323510
     0.650045409  0.625010429  0.607322639
     0.249538901  0.750213708  0.671766167
     0.250468950  0.749900501  0.755667758
     0.594113416  0.626192735  0.718507122
     0.405883823  0.626192580  0.718507267
     0.250000000  0.000000000  0.244946144
     0.250000000  0.000000000  0.328484141
     0.597918341  0.875000000  0.286715143
     0.402081659  0.875000000  0.286715143
     0.500000000  0.000000000  0.351588572
     0.500000000  0.000000000  0.435126570
     0.347918341  0.875000000  0.393357571
     0.652081659  0.875000000  0.393357571
     0.250000000  0.000000000  0.458231001
     0.250000000  0.000000000  0.541768999
     0.597918341  0.875000000  0.500000000
     0.402081659  0.875000000  0.500000000
     0.499997364  0.000024743  0.565334481
     0.499997777  0.000083345  0.649003130
     0.349971617  0.875045508  0.607154224
     0.650022761  0.875045512  0.607153250
     0.249816911  0.000072779  0.671837969
     0.249850772  0.000118051  0.755722018
     0.594066548  0.875501133  0.718784097
     0.405930627  0.875501185  0.718784215
     0.250000000  0.250000000  0.244946144
     0.250000000  0.250000000  0.328484141
     0.597918341  0.125000000  0.286715143
     0.402081659  0.125000000  0.286715143
     0.500000000  0.250000000  0.351588572
     0.500000000  0.250000000  0.435126570
     0.347918341  0.125000000  0.393357571
     0.652081659  0.125000000  0.393357571
     0.250000000  0.250000000  0.458231001
     0.250000000  0.250000000  0.541768999
     0.597918341  0.125000000  0.500000000
     0.402081659  0.125000000  0.500000000
     0.499997625  0.250517361  0.565479212
     0.499997557  0.249426007  0.649019810
     0.349954654  0.125035015  0.607156593
     0.650039732  0.125035019  0.607155611
     0.249450511  0.249895830  0.671811687
     0.250150025  0.250266202  0.755683638
     0.594037973  0.124873366  0.718939404
     0.405959225  0.124873338  0.718939503
     0.250000000  0.500000000  0.244946144
     0.250000000  0.500000000  0.328484141
     0.597918341  0.375000000  0.286715143
     0.402081659  0.375000000  0.286715143
     0.500000000  0.500000000  0.351588572
     0.500000000  0.500000000  0.435126570
     0.347918341  0.375000000  0.393357571
     0.652081659  0.375000000  0.393357571
     0.250000000  0.500000000  0.458231001
     0.250000000  0.500000000  0.541768999
     0.597918341  0.375000000  0.500000000
     0.402081659  0.375000000  0.500000000
     0.499997587  0.499965936  0.565617539
     0.499998049  0.500080536  0.649684440
     0.349956053  0.375053532  0.607371547
     0.650038370  0.375053525  0.607370671
     0.249225740  0.500124069  0.671769354
     0.251421383  0.500388591  0.755619684
     0.594343667  0.374015738  0.718102742
     0.405653562  0.374015851  0.718102865

  ion indices of the primitive-cell ions
   primitive index   ion index
                 1           1
                 2           2
                 3           3
                 4           4
                 5           5
                 6           6
                 7           7
                 8           8
                 9           9
                10          10
                11          11
                12          12
                13          13
                14          14
                15          15
                16          16
                17          17
                18          18
                19          19
                20          20
                21          21
                22          22
                23          23
                24          24
                25          25
                26          26
                27          27
                28          28
                29          29
                30          30
                31          31
                32          32
                33          33
                34          34
                35          35
                36          36
                37          37
                38          38
                39          39
                40          40
                41          41
                42          42
                43          43
                44          44
                45          45
                46          46
                47          47
                48          48
                49          49
                50          50
                51          51
                52          52
                53          53
                54          54
                55          55
                56          56
                57          57
                58          58
                59          59
                60          60
                61          61
                62          62
                63          63
                64          64
                65          65
                66          66
                67          67
                68          68
                69          69
                70          70
                71          71
                72          72
                73          73
                74          74
                75          75
                76          76
                77          77
                78          78
                79          79
                80          80
                81          81
                82          82
                83          83
                84          84
                85          85
                86          86
                87          87
                88          88
                89          89
                90          90
                91          91
                92          92
                93          93
                94          94
                95          95
                96          96
                97          97
                98          98
                99          99
               100         100
               101         101
               102         102
               103         103
               104         104
               105         105
               106         106
               107         107
               108         108
               109         109
               110         110
               111         111
               112         112
               113         113
               114         114
               115         115
               116         116
               117         117
               118         118
               119         119
               120         120
               121         121
               122         122
               123         123
               124         124
               125         125
               126         126
               127         127
               128         128
               129         129
               130         130
               131         131
               132         132
               133         133
               134         134
               135         135
               136         136
               137         137
               138         138
               139         139
               140         140
               141         141
               142         142
               143         143
               144         144
               145         145
               146         146
               147         147
               148         148
               149         149
               150         150
               151         151
               152         152
               153         153
               154         154
               155         155
               156         156
               157         157
               158         158
               159         159
               160         160
               161         161
               162         162
               163         163
               164         164
               165         165
               166         166
               167         167
               168         168
               169         169
               170         170
               171         171
               172         172
               173         173
               174         174
               175         175
               176         176
               177         177
               178         178
               179         179
               180         180
               181         181
               182         182
               183         183
               184         184
               185         185
               186         186
               187         187
               188         188
               189         189
               190         190
               191         191
               192         192
               193         193
               194         194
               195         195
               196         196
               197         197
               198         198
               199         199
               200         200
               201         201
               202         202
               203         203
               204         204
               205         205
               206         206
               207         207
               208         208
               209         209
               210         210
               211         211
               212         212
               213         213
               214         214
               215         215
               216         216
               217         217
               218         218
               219         219
               220         220
               221         221
               222         222
               223         223
               224         224
               225         225
               226         226
               227         227
               228         228
               229         229
               230         230
               231         231
               232         232
               233         233
               234         234
               235         235
               236         236
               237         237
               238         238
               239         239
               240         240
               241         241
               242         242
               243         243

----------------------------------------------------------------------------------------



 KPOINTS: pymatgen v2020.8.13 with grid density = 

Automatic generation of k-mesh.
 Grid dimensions read from file:
 generate k-points for:    2    2    1

 Generating k-lattice:

  Cartesian coordinates                     Fractional coordinates (reciprocal lattice)
     0.038281534  0.000000000  0.000000000     0.500000000  0.000000000  0.000000000
     0.000000000  0.042210838  0.000000000     0.000000000  0.500000000  0.000000000
     0.000000000  0.000000000  0.032659486     0.000000000  0.000000000  1.000000000

  Length of vectors
     0.038281534  0.042210838  0.032659486

  Shift w.r.t. Gamma in fractional coordinates (k-lattice)
     0.000000000  0.000000000  0.000000000

 
 Subroutine IBZKPT returns following result:
 ===========================================
 
 Found      4 irreducible k-points:
 
 Following reciprocal coordinates:
            Coordinates               Weight
  0.000000  0.000000  0.000000      1.000000
  0.500000  0.000000  0.000000      1.000000
  0.000000  0.500000  0.000000      1.000000
  0.500000  0.500000  0.000000      1.000000
 
 Following cartesian coordinates:
            Coordinates               Weight
  0.000000  0.000000  0.000000      1.000000
  0.038282  0.000000  0.000000      1.000000
  0.000000  0.042211  0.000000      1.000000
  0.038282  0.042211  0.000000      1.000000
 
 
 Subroutine IBZKPT_HF returns following result:
 ==============================================
 
 Found      4 k-points in 1st BZ
 the following      4 k-points will be used (e.g. in the exchange kernel)
 Following reciprocal coordinates:   # in IRBZ
  0.000000  0.000000  0.000000    0.25000000   1 t-inv F
  0.500000  0.000000  0.000000    0.25000000   2 t-inv F
  0.000000  0.500000  0.000000    0.25000000   3 t-inv F
  0.500000  0.500000  0.000000    0.25000000   4 t-inv F


--------------------------------------------------------------------------------------------------------




 Dimension of arrays:
   k-points           NKPTS =      4   k-points in BZ     NKDIM =      4   number of bands    NBANDS=   1152
   number of dos      NEDOS =    301   number of ions     NIONS =    243
   non local maximal  LDIM  =      6   non local SUM 2l+1 LMDIM =     18
   total plane-waves  NPLWV = ******
   max r-space proj   IRMAX =      1   max aug-charges    IRDMAX=  21440
   dimension x,y,z NGX =   108 NGY =   96 NGZ =  250
   dimension x,y,z NGXF=   216 NGYF=  192 NGZF=  500
   support grid    NGXF=   216 NGYF=  192 NGZF=  500
   ions per type =               1   2  80 160
   NGX,Y,Z   is equivalent  to a cutoff of  13.75, 13.47, 13.57 a.u.
   NGXF,Y,Z  is equivalent  to a cutoff of  27.49, 26.95, 27.15 a.u.

 SYSTEM =  MgO-rocksalt                            
 POSCAR =   C  O Ti  O                             

--------------------------------------------------------------------------------------------------------


  energy-cutoff  :      600.00
  volume of cell :     4737.15
      direct lattice vectors                 reciprocal lattice vectors
    13.061127704  0.000000000  0.000000000     0.076563067  0.000000000  0.000000000
     0.000000000 11.845298948  0.000000000     0.000000000  0.084421677  0.000000000
     0.000000000  0.000000000 30.618975621     0.000000000  0.000000000  0.032659486

  length of vectors
    13.061127704 11.845298948 30.618975621     0.076563067  0.084421677  0.032659486



 k-points in units of 2pi/SCALE and weight: pymatgen v2020.8.13 with grid density = 
   0.00000000  0.00000000  0.00000000       0.250
   0.03828153  0.00000000  0.00000000       0.250
   0.00000000  0.04221084  0.00000000       0.250
   0.03828153  0.04221084  0.00000000       0.250

 k-points in reciprocal lattice and weights: pymatgen v2020.8.13 with grid density = 
   0.00000000  0.00000000  0.00000000       0.250
   0.50000000  0.00000000  0.00000000       0.250
   0.00000000  0.50000000  0.00000000       0.250
   0.50000000  0.50000000  0.00000000       0.250

 position of ions in fractional coordinates (direct lattice) 
   0.49999984  0.60365109  0.80242230
   0.49999998  0.69961883  0.81146795
   0.49999963  0.50731430  0.79242487
   0.75000000  0.62500000  0.28671514
   0.00000000  0.75000000  0.28671514
   0.00000000  0.62500000  0.39335757
   0.75000000  0.75000000  0.39335757
   0.75000000  0.62500000  0.50000000
   0.00000000  0.75000000  0.50000000
   0.00001827  0.62505434  0.60445417
   0.75004306  0.75008072  0.61063770
   0.75015304  0.62532675  0.72009656
   0.99999842  0.75020110  0.70861291
   0.75000000  0.87500000  0.28671514
   0.00000000  0.00000000  0.28671514
   0.00000000  0.87500000  0.39335757
   0.75000000  0.00000000  0.39335757
   0.75000000  0.87500000  0.50000000
   0.00000000  0.00000000  0.50000000
   0.00001850  0.87504910  0.60447912
   0.74999329  0.00005447  0.61073269
   0.74986256  0.87519457  0.72043562
   0.99999841  0.00006998  0.70862051
   0.75000000  0.12500000  0.28671514
   0.00000000  0.25000000  0.28671514
   0.00000000  0.12500000  0.39335757
   0.75000000  0.25000000  0.39335757
   0.75000000  0.12500000  0.50000000
   0.00000000  0.25000000  0.50000000
   0.00001824  0.12501193  0.60448346
   0.75005533  0.25001190  0.61072676
   0.74992840  0.12515152  0.72041554
   0.99999844  0.24999809  0.70862307
   0.75000000  0.37500000  0.28671514
   0.00000000  0.50000000  0.28671514
   0.00000000  0.37500000  0.39335757
   0.75000000  0.50000000  0.39335757
   0.75000000  0.37500000  0.50000000
   0.00000000  0.50000000  0.50000000
   0.00001820  0.37502060  0.60445965
   0.75008490  0.50003131  0.61066293
   0.75023371  0.37518401  0.72035247
   0.99999843  0.50015326  0.70860503
   0.25000000  0.62500000  0.28671514
   0.50000000  0.75000000  0.28671514
   0.50000000  0.62500000  0.39335757
   0.25000000  0.75000000  0.39335757
   0.25000000  0.62500000  0.50000000
   0.50000000  0.75000000  0.50000000
   0.50001858  0.62445722  0.60485946
   0.24998612  0.75008057  0.61063771
   0.24984377  0.62532678  0.72009657
   0.49999836  0.75069184  0.70826008
   0.25000000  0.87500000  0.28671514
   0.50000000  0.00000000  0.28671514
   0.50000000  0.87500000  0.39335757
   0.25000000  0.00000000  0.39335757
   0.25000000  0.87500000  0.50000000
   0.50000000  0.00000000  0.50000000
   0.50001859  0.87477168  0.60418338
   0.25003575  0.00005448  0.61073268
   0.25013422  0.87519462  0.72043559
   0.49999845  0.00007426  0.70831852
   0.25000000  0.12500000  0.28671514
   0.50000000  0.25000000  0.28671514
   0.50000000  0.12500000  0.39335757
   0.25000000  0.25000000  0.39335757
   0.25000000  0.12500000  0.50000000
   0.50000000  0.25000000  0.50000000
   0.50001853  0.12526250  0.60421019
   0.24997336  0.25001186  0.61072676
   0.25006842  0.12515154  0.72041552
   0.49999840  0.24960128  0.70832700
   0.25000000  0.37500000  0.28671514
   0.50000000  0.50000000  0.28671514
   0.50000000  0.37500000  0.39335757
   0.25000000  0.50000000  0.39335757
   0.25000000  0.37500000  0.50000000
   0.50000000  0.50000000  0.50000000
   0.50001831  0.37553473  0.60486005
   0.24994395  0.50003132  0.61066295
   0.24976313  0.37518401  0.72035243
   0.49999849  0.49888048  0.70970261
   0.75000000  0.75000000  0.24494614
   0.75000000  0.75000000  0.32848414
   0.09791834  0.62500000  0.28671514
   0.90208166  0.62500000  0.28671514
   0.00000000  0.75000000  0.35158857
   0.00000000  0.75000000  0.43512657
   0.84791834  0.62500000  0.39335757
   0.15208166  0.62500000  0.39335757
   0.75000000  0.75000000  0.45823100
   0.75000000  0.75000000  0.54176900
   0.09791834  0.62500000  0.50000000
   0.90208166  0.62500000  0.50000000
   0.99999749  0.75007210  0.56549009
   0.99999775  0.75001849  0.64926879
   0.85013589  0.62508954  0.60713581
   0.14985841  0.62508955  0.60713489
   0.75045827  0.75021374  0.67176619
   0.74952833  0.74990047  0.75566778
   0.09387830  0.62507989  0.71922244
   0.90611884  0.62507987  0.71922250
   0.75000000  0.00000000  0.24494614
   0.75000000  0.00000000  0.32848414
   0.09791834  0.87500000  0.28671514
   0.90208166  0.87500000  0.28671514
   0.00000000  0.00000000  0.35158857
   0.00000000  0.00000000  0.43512657
   0.84791834  0.87500000  0.39335757
   0.15208166  0.87500000  0.39335757
   0.75000000  0.00000000  0.45823100
   0.75000000  0.00000000  0.54176900
   0.09791834  0.87500000  0.50000000
   0.90208166  0.87500000  0.50000000
   0.99999750  0.00004280  0.56549840
   0.99999773  0.00003484  0.64927956
   0.85012239  0.87507766  0.60719208
   0.14987192  0.87507765  0.60719115
   0.75018029  0.00007283  0.67183798
   0.75014645  0.00011803  0.75572202
   0.09389497  0.87505301  0.71915129
   0.90610218  0.87505300  0.71915138
   0.75000000  0.25000000  0.24494614
   0.75000000  0.25000000  0.32848414
   0.09791834  0.12500000  0.28671514
   0.90208166  0.12500000  0.28671514
   0.00000000  0.25000000  0.35158857
   0.00000000  0.25000000  0.43512657
   0.84791834  0.12500000  0.39335757
   0.15208166  0.12500000  0.39335757
   0.75000000  0.25000000  0.45823100
   0.75000000  0.25000000  0.54176900
   0.09791834  0.12500000  0.50000000
   0.90208166  0.12500000  0.50000000
   0.99999751  0.25000512  0.56549897
   0.99999777  0.25010872  0.64928696
   0.85013518  0.12499045  0.60720910
   0.14985920  0.12499043  0.60720818
   0.75054670  0.24989581  0.67181172
   0.74984726  0.25026618  0.75568367
   0.09386329  0.12514018  0.71914456
   0.90613389  0.12514019  0.71914466
   0.75000000  0.50000000  0.24494614
   0.75000000  0.50000000  0.32848414
   0.09791834  0.37500000  0.28671514
   0.90208166  0.37500000  0.28671514
   0.00000000  0.50000000  0.35158857
   0.00000000  0.50000000  0.43512657
   0.84791834  0.37500000  0.39335757
   0.15208166  0.37500000  0.39335757
   0.75000000  0.50000000  0.45823100
   0.75000000  0.50000000  0.54176900
   0.09791834  0.37500000  0.50000000
   0.90208166  0.37500000  0.50000000
   0.99999749  0.50002648  0.56548881
   0.99999777  0.50007097  0.64926534
   0.85013503  0.37500707  0.60715454
   0.14985931  0.37500703  0.60715361
   0.75077141  0.50012408  0.67176938
   0.74857584  0.50038861  0.75561972
   0.09388684  0.37520917  0.71924363
   0.90611033  0.37520918  0.71924372
   0.25000000  0.75000000  0.24494614
   0.25000000  0.75000000  0.32848414
   0.59791834  0.62500000  0.28671514
   0.40208166  0.62500000  0.28671514
   0.50000000  0.75000000  0.35158857
   0.50000000  0.75000000  0.43512657
   0.34791834  0.62500000  0.39335757
   0.65208166  0.62500000  0.39335757
   0.25000000  0.75000000  0.45823100
   0.25000000  0.75000000  0.54176900
   0.59791834  0.62500000  0.50000000
   0.40208166  0.62500000  0.50000000
   0.49999764  0.74954268  0.56546886
   0.49999750  0.75048537  0.64897380
   0.34994895  0.62501042  0.60732351
   0.65004541  0.62501043  0.60732264
   0.24953890  0.75021371  0.67176617
   0.25046895  0.74990050  0.75566776
   0.59411342  0.62619274  0.71850712
   0.40588382  0.62619258  0.71850727
   0.25000000  0.00000000  0.24494614
   0.25000000  0.00000000  0.32848414
   0.59791834  0.87500000  0.28671514
   0.40208166  0.87500000  0.28671514
   0.50000000  0.00000000  0.35158857
   0.50000000  0.00000000  0.43512657
   0.34791834  0.87500000  0.39335757
   0.65208166  0.87500000  0.39335757
   0.25000000  0.00000000  0.45823100
   0.25000000  0.00000000  0.54176900
   0.59791834  0.87500000  0.50000000
   0.40208166  0.87500000  0.50000000
   0.49999736  0.00002474  0.56533448
   0.49999778  0.00008334  0.64900313
   0.34997162  0.87504551  0.60715422
   0.65002276  0.87504551  0.60715325
   0.24981691  0.00007278  0.67183797
   0.24985077  0.00011805  0.75572202
   0.59406655  0.87550113  0.71878410
   0.40593063  0.87550118  0.71878422
   0.25000000  0.25000000  0.24494614
   0.25000000  0.25000000  0.32848414
   0.59791834  0.12500000  0.28671514
   0.40208166  0.12500000  0.28671514
   0.50000000  0.25000000  0.35158857
   0.50000000  0.25000000  0.43512657
   0.34791834  0.12500000  0.39335757
   0.65208166  0.12500000  0.39335757
   0.25000000  0.25000000  0.45823100
   0.25000000  0.25000000  0.54176900
   0.59791834  0.12500000  0.50000000
   0.40208166  0.12500000  0.50000000
   0.49999763  0.25051736  0.56547921
   0.49999756  0.24942601  0.64901981
   0.34995465  0.12503501  0.60715659
   0.65003973  0.12503502  0.60715561
   0.24945051  0.24989583  0.67181169
   0.25015003  0.25026620  0.75568364
   0.59403797  0.12487337  0.71893940
   0.40595923  0.12487334  0.71893950
   0.25000000  0.50000000  0.24494614
   0.25000000  0.50000000  0.32848414
   0.59791834  0.37500000  0.28671514
   0.40208166  0.37500000  0.28671514
   0.50000000  0.50000000  0.35158857
   0.50000000  0.50000000  0.43512657
   0.34791834  0.37500000  0.39335757
   0.65208166  0.37500000  0.39335757
   0.25000000  0.50000000  0.45823100
   0.25000000  0.50000000  0.54176900
   0.59791834  0.37500000  0.50000000
   0.40208166  0.37500000  0.50000000
   0.49999759  0.49996594  0.56561754
   0.49999805  0.50008054  0.64968444
   0.34995605  0.37505353  0.60737155
   0.65003837  0.37505352  0.60737067
   0.24922574  0.50012407  0.67176935
   0.25142138  0.50038859  0.75561968
   0.59434367  0.37401574  0.71810274
   0.40565356  0.37401585  0.71810286

 position of ions in cartesian coordinates  (Angst):
   6.53056174  7.15042766 24.56934888
   6.53056362  8.28719414 24.84631736
   6.53055908  6.00928951 24.26323792
   9.79584578  7.40331184  8.77892396
   0.00000000  8.88397421  8.77892396
   0.00000000  7.40331184 12.04420588
   9.79584578  8.88397421 12.04420588
   9.79584578  7.40331184 15.30948781
   0.00000000  8.88397421 15.30948781
   0.00023866  7.40395551 18.50776741
   9.79640816  8.88493039 18.69710086
   9.79784460  7.40718225 22.04861916
  13.06110701  8.88635632 21.69700132
   9.79584578 10.36463658  8.77892396
   0.00000000  0.00000000  8.77892396
   0.00000000 10.36463658 12.04420588
   9.79584578  0.00000000 12.04420588
   9.79584578 10.36463658 15.30948781
   0.00000000  0.00000000 15.30948781
   0.00024164 10.36521813 18.50853157
   9.79575819  0.00064527 18.70000950
   9.79405063 10.36694133 22.05900053
  13.06110696  0.00082891 21.69723421
   9.79584578  1.48066237  8.77892396
   0.00000000  2.96132474  8.77892396
   0.00000000  1.48066237 12.04420588
   9.79584578  2.96132474 12.04420588
   9.79584578  1.48066237 15.30948781
   0.00000000  2.96132474 15.30948781
   0.00023825  1.48080363 18.50866444
   9.79656848  2.96146566 18.69982780
   9.79491059  1.48245711 22.05838600
  13.06110738  2.96130214 21.69731239
   9.79584578  4.44198711  8.77892396
   0.00000000  5.92264947  8.77892396
   0.00000000  4.44198711 12.04420588
   9.79584578  5.92264947 12.04420588
   9.79584578  4.44198711 15.30948781
   0.00000000  5.92264947 15.30948781
   0.00023765  4.44223112 18.50793533
   9.79695461  5.92302038 18.69787324
   9.79889829  4.44416680 22.05645463
  13.06110720  5.92446493 21.69676027
   3.26528193  7.40331184  8.77892396
   6.53056385  8.88397421  8.77892396
   6.53056385  7.40331184 12.04420588
   3.26528193  8.88397421 12.04420588
   3.26528193  7.40331184 15.30948781
   6.53056385  8.88397421 15.30948781
   6.53080655  7.39688240 18.52017715
   3.26510064  8.88492859 18.69710107
   3.26324136  7.40718262 22.04861918
   6.53054247  8.89216923 21.68619817
   3.26528193 10.36463658  8.77892396
   6.53056385  0.00000000  8.77892396
   6.53056385 10.36463658 12.04420588
   3.26528193  0.00000000 12.04420588
   3.26528193 10.36463658 15.30948781
   6.53056385  0.00000000 15.30948781
   6.53080670 10.36193204 18.49947606
   3.26574892  0.00064537 18.70000897
   3.26703502 10.36694189 22.05899977
   6.53054365  0.00087958 21.68798736
   3.26528193  1.48066237  8.77892396
   6.53056385  2.96132474  8.77892396
   6.53056385  1.48066237 12.04420588
   3.26528193  2.96132474 12.04420588
   3.26528193  1.48066237 15.30948781
   6.53056385  2.96132474 15.30948781
   6.53080589  1.48377176 18.50029707
   3.26493402  2.96146527 18.69982766
   3.26617556  1.48245741 22.05838518
   6.53054298  2.95660176 21.68824706
   3.26528193  4.44198711  8.77892396
   6.53056385  5.92264947  8.77892396
   6.53056385  4.44198711 12.04420588
   3.26528193  5.92264947 12.04420588
   3.26528193  4.44198711 15.30948781
   6.53056385  5.92264947 15.30948781
   6.53080304  4.44832116 18.52019525
   3.26454990  5.92302046 18.69787385
   3.26218808  4.44416680 22.05645335
   6.53054410  5.90938843 21.73036693
   9.79584578  8.88397421  7.50000000
   9.79584578  8.88397421 10.05784792
   1.27892396  7.40331184  8.77892396
  11.78220374  7.40331184  8.77892396
   0.00000000  8.88397421 10.76528193
   0.00000000  8.88397421 13.32312984
  11.07476974  7.40331184 12.04420588
   1.98635797  7.40331184 12.04420588
   9.79584578  8.88397421 14.03056385
   9.79584578  8.88397421 16.58841177
   1.27892396  7.40331184 15.30948781
  11.78220374  7.40331184 15.30948781
  13.06109487  8.88482820 17.31472727
  13.06109834  8.88419321 19.87994524
  11.10373349  7.40437250 18.58987651
   1.95731985  7.40437262 18.58984851
   9.80183125  8.88650607 20.56879251
   9.78968530  8.88279524 23.13777322
   1.22615652  7.40425813 22.02185434
  11.83493391  7.40425797 22.02185625
   9.79584578  0.00000000  7.50000000
   9.79584578  0.00000000 10.05784792
   1.27892396 10.36463658  8.77892396
  11.78220374 10.36463658  8.77892396
   0.00000000  0.00000000 10.76528193
   0.00000000  0.00000000 13.32312984
  11.07476974 10.36463658 12.04420588
   1.98635797 10.36463658 12.04420588
   9.79584578  0.00000000 14.03056385
   9.79584578  0.00000000 16.58841177
   1.27892396 10.36463658 15.30948781
  11.78220374 10.36463658 15.30948781
  13.06109510  0.00050699 17.31498158
  13.06109804  0.00041272 19.88027507
  11.10355704 10.36555645 18.59159935
   1.95749627 10.36555638 18.59157095
   9.79820052  0.00086266 20.57099069
   9.79775863  0.00139815 23.13943399
   1.22637423 10.36526450 22.01967592
  11.83471631 10.36526439 22.01967843
   9.79584578  2.96132474  7.50000000
   9.79584578  2.96132474 10.05784792
   1.27892396  1.48066237  8.77892396
  11.78220374  1.48066237  8.77892396
   0.00000000  2.96132474 10.76528193
   0.00000000  2.96132474 13.32312984
  11.07476974  1.48066237 12.04420588
   1.98635797  1.48066237 12.04420588
   9.79584578  2.96132474 14.03056385
   9.79584578  2.96132474 16.58841177
   1.27892396  1.48066237 15.30948781
  11.78220374  1.48066237 15.30948781
  13.06109515  2.96138537 17.31499903
  13.06109858  2.96261261 19.88050157
  11.10372413  1.48054930 18.59212069
   1.95733013  1.48054899 18.59209242
   9.80298631  2.96009058 20.57018664
   9.79385083  2.96447772 23.13825980
   1.22596037  1.48232281 22.01946962
  11.83513041  1.48232296 22.01947282
   9.79584578  5.92264947  7.50000000
   9.79584578  5.92264947 10.05784792
   1.27892396  4.44198711  8.77892396
  11.78220374  4.44198711  8.77892396
   0.00000000  5.92264947 10.76528193
   0.00000000  5.92264947 13.32312984
  11.07476974  4.44198711 12.04420588
   1.98635797  4.44198711 12.04420588
   9.79584578  5.92264947 14.03056385
   9.79584578  5.92264947 16.58841177
   1.27892396  4.44198711 15.30948781
  11.78220374  4.44198711 15.30948781
  13.06109489  5.92296314 17.31468809
  13.06109854  5.92349016 19.87983975
  11.10372222  4.44207090 18.59044996
   1.95733165  4.44207042 18.59042155
   9.80592121  5.92411928 20.56889030
   9.77724463  5.92725266 23.13630168
   1.22626795  4.44446479 22.02250322
  11.83482271  4.44446494 22.02250604
   3.26528193  8.88397421  7.50000000
   3.26528193  8.88397421 10.05784792
   7.80948781  7.40331184  8.77892396
   5.25163989  7.40331184  8.77892396
   6.53056385  8.88397421 10.76528193
   6.53056385  8.88397421 13.32312984
   4.54420588  7.40331184 12.04420588
   8.51692182  7.40331184 12.04420588
[...]
      5.251640  4.441987 15.309488            0           0           0  
      6.530532  5.922246 17.318630            0           0           0  
      6.530538  5.923603 19.892672            0           0           0  
      4.570821  4.442621 18.597095            0           0           0  
      8.490234  4.442621 18.597068            0           0           0  
      3.255169  5.924119 20.568889            0           0           0  
      3.283847  5.927252 23.136301            0           0           0  
      7.762799  4.430328 21.987570            0           0           0  
      5.298293  4.430330 21.987574            0           0           0  

   9 f  =    1.124694 THz     7.066658 2PiTHz   37.515740 cm-1     4.651357 meV
             X         Y         Z           dx          dy          dz
      6.530562  7.150428 24.569349     0.051942    0.334814   -0.218178  
      6.530564  8.287194 24.846317     0.095081    0.498879   -0.688843  
      6.530559  6.009290 24.263238     0.021334    0.278371    0.165014  
      9.795846  7.403312  8.778924            0           0           0  
      0.000000  8.883974  8.778924            0           0           0  
      0.000000  7.403312 12.044206            0           0           0  
      9.795846  8.883974 12.044206            0           0           0  
      9.795846  7.403312 15.309488            0           0           0  
      0.000000  8.883974 15.309488            0           0           0  
      0.000239  7.403956 18.507767            0           0           0  
      9.796408  8.884930 18.697101            0           0           0  
      9.797845  7.407182 22.048619            0           0           0  
     13.061107  8.886356 21.697001            0           0           0  
      9.795846 10.364637  8.778924            0           0           0  
      0.000000  0.000000  8.778924            0           0           0  
      0.000000 10.364637 12.044206            0           0           0  
      9.795846  0.000000 12.044206            0           0           0  
      9.795846 10.364637 15.309488            0           0           0  
      0.000000  0.000000 15.309488            0           0           0  
      0.000242 10.365218 18.508532            0           0           0  
      9.795758  0.000645 18.700009            0           0           0  
      9.794051 10.366941 22.059001            0           0           0  
     13.061107  0.000829 21.697234            0           0           0  
      9.795846  1.480662  8.778924            0           0           0  
      0.000000  2.961325  8.778924            0           0           0  
      0.000000  1.480662 12.044206            0           0           0  
      9.795846  2.961325 12.044206            0           0           0  
      9.795846  1.480662 15.309488            0           0           0  
      0.000000  2.961325 15.309488            0           0           0  
      0.000238  1.480804 18.508664            0           0           0  
      9.796568  2.961466 18.699828            0           0           0  
      9.794911  1.482457 22.058386            0           0           0  
     13.061107  2.961302 21.697312            0           0           0  
      9.795846  4.441987  8.778924            0           0           0  
      0.000000  5.922649  8.778924            0           0           0  
      0.000000  4.441987 12.044206            0           0           0  
      9.795846  5.922649 12.044206            0           0           0  
      9.795846  4.441987 15.309488            0           0           0  
      0.000000  5.922649 15.309488            0           0           0  
      0.000238  4.442231 18.507935            0           0           0  
      9.796955  5.923020 18.697873            0           0           0  
      9.798898  4.444167 22.056455            0           0           0  
     13.061107  5.924465 21.696760            0           0           0  
      3.265282  7.403312  8.778924            0           0           0  
      6.530564  8.883974  8.778924            0           0           0  
      6.530564  7.403312 12.044206            0           0           0  
      3.265282  8.883974 12.044206            0           0           0  
      3.265282  7.403312 15.309488            0           0           0  
      6.530564  8.883974 15.309488            0           0           0  
      6.530807  7.396882 18.520177            0           0           0  
      3.265101  8.884929 18.697101            0           0           0  
      3.263241  7.407183 22.048619            0           0           0  
      6.530542  8.892169 21.686198            0           0           0  
      3.265282 10.364637  8.778924            0           0           0  
      6.530564  0.000000  8.778924            0           0           0  
      6.530564 10.364637 12.044206            0           0           0  
      3.265282  0.000000 12.044206            0           0           0  
      3.265282 10.364637 15.309488            0           0           0  
      6.530564  0.000000 15.309488            0           0           0  
      6.530807 10.361932 18.499476            0           0           0  
      3.265749  0.000645 18.700009            0           0           0  
      3.267035 10.366942 22.059000            0           0           0  
      6.530544  0.000880 21.687987            0           0           0  
      3.265282  1.480662  8.778924            0           0           0  
      6.530564  2.961325  8.778924            0           0           0  
      6.530564  1.480662 12.044206            0           0           0  
      3.265282  2.961325 12.044206            0           0           0  
      3.265282  1.480662 15.309488            0           0           0  
      6.530564  2.961325 15.309488            0           0           0  
      6.530806  1.483772 18.500297            0           0           0  
      3.264934  2.961465 18.699828            0           0           0  
      3.266176  1.482457 22.058385            0           0           0  
      6.530543  2.956602 21.688247            0           0           0  
      3.265282  4.441987  8.778924            0           0           0  
      6.530564  5.922649  8.778924            0           0           0  
      6.530564  4.441987 12.044206            0           0           0  
      3.265282  5.922649 12.044206            0           0           0  
      3.265282  4.441987 15.309488            0           0           0  
      6.530564  5.922649 15.309488            0           0           0  
      6.530803  4.448321 18.520195            0           0           0  
      3.264550  5.923020 18.697874            0           0           0  
      3.262188  4.444167 22.056453            0           0           0  
      6.530544  5.909388 21.730367            0           0           0  
      9.795846  8.883974  7.500000            0           0           0  
      9.795846  8.883974 10.057848            0           0           0  
      1.278924  7.403312  8.778924            0           0           0  
     11.782204  7.403312  8.778924            0           0           0  
      0.000000  8.883974 10.765282            0           0           0  
      0.000000  8.883974 13.323130            0           0           0  
     11.074770  7.403312 12.044206            0           0           0  
      1.986358  7.403312 12.044206            0           0           0  
      9.795846  8.883974 14.030564            0           0           0  
      9.795846  8.883974 16.588412            0           0           0  
      1.278924  7.403312 15.309488            0           0           0  
     11.782204  7.403312 15.309488            0           0           0  
     13.061095  8.884828 17.314727            0           0           0  
     13.061098  8.884193 19.879945            0           0           0  
     11.103733  7.404373 18.589877            0           0           0  
      1.957320  7.404373 18.589849            0           0           0  
      9.801831  8.886506 20.568793            0           0           0  
      9.789685  8.882795 23.137773            0           0           0  
      1.226157  7.404258 22.021854            0           0           0  
     11.834934  7.404258 22.021856            0           0           0  
      9.795846  0.000000  7.500000            0           0           0  
      9.795846  0.000000 10.057848            0           0           0  
      1.278924 10.364637  8.778924            0           0           0  
     11.782204 10.364637  8.778924            0           0           0  
      0.000000  0.000000 10.765282            0           0           0  
      0.000000  0.000000 13.323130            0           0           0  
     11.074770 10.364637 12.044206            0           0           0  
      1.986358 10.364637 12.044206            0           0           0  
      9.795846  0.000000 14.030564            0           0           0  
      9.795846  0.000000 16.588412            0           0           0  
      1.278924 10.364637 15.309488            0           0           0  
     11.782204 10.364637 15.309488            0           0           0  
     13.061095  0.000507 17.314982            0           0           0  
     13.061098  0.000413 19.880275            0           0           0  
     11.103557 10.365556 18.591599            0           0           0  
      1.957496 10.365556 18.591571            0           0           0  
      9.798201  0.000863 20.570991            0           0           0  
      9.797759  0.001398 23.139434            0           0           0  
      1.226374 10.365264 22.019676            0           0           0  
     11.834716 10.365264 22.019678            0           0           0  
      9.795846  2.961325  7.500000            0           0           0  
      9.795846  2.961325 10.057848            0           0           0  
      1.278924  1.480662  8.778924            0           0           0  
     11.782204  1.480662  8.778924            0           0           0  
      0.000000  2.961325 10.765282            0           0           0  
      0.000000  2.961325 13.323130            0           0           0  
     11.074770  1.480662 12.044206            0           0           0  
      1.986358  1.480662 12.044206            0           0           0  
      9.795846  2.961325 14.030564            0           0           0  
      9.795846  2.961325 16.588412            0           0           0  
      1.278924  1.480662 15.309488            0           0           0  
     11.782204  1.480662 15.309488            0           0           0  
     13.061095  2.961385 17.314999            0           0           0  
     13.061099  2.962613 19.880502            0           0           0  
     11.103724  1.480549 18.592121            0           0           0  
      1.957330  1.480549 18.592092            0           0           0  
      9.802986  2.960091 20.570187            0           0           0  
      9.793851  2.964478 23.138260            0           0           0  
      1.225960  1.482323 22.019470            0           0           0  
     11.835130  1.482323 22.019473            0           0           0  
      9.795846  5.922649  7.500000            0           0           0  
      9.795846  5.922649 10.057848            0           0           0  
      1.278924  4.441987  8.778924            0           0           0  
     11.782204  4.441987  8.778924            0           0           0  
      0.000000  5.922649 10.765282            0           0           0  
      0.000000  5.922649 13.323130            0           0           0  
     11.074770  4.441987 12.044206            0           0           0  
      1.986358  4.441987 12.044206            0           0           0  
      9.795846  5.922649 14.030564            0           0           0  
      9.795846  5.922649 16.588412            0           0           0  
      1.278924  4.441987 15.309488            0           0           0  
     11.782204  4.441987 15.309488            0           0           0  
     13.061095  5.922963 17.314688            0           0           0  
     13.061099  5.923490 19.879840            0           0           0  
     11.103722  4.442071 18.590450            0           0           0  
      1.957332  4.442070 18.590422            0           0           0  
      9.805921  5.924119 20.568890            0           0           0  
      9.777245  5.927253 23.136302            0           0           0  
      1.226268  4.444465 22.022503            0           0           0  
     11.834823  4.444465 22.022506            0           0           0  
      3.265282  8.883974  7.500000            0           0           0  
      3.265282  8.883974 10.057848            0           0           0  
      7.809488  7.403312  8.778924            0           0           0  
      5.251640  7.403312  8.778924            0           0           0  
      6.530564  8.883974 10.765282            0           0           0  
      6.530564  8.883974 13.323130            0           0           0  
      4.544206  7.403312 12.044206            0           0           0  
      8.516922  7.403312 12.044206            0           0           0  
      3.265282  8.883974 14.030564            0           0           0  
      3.265282  8.883974 16.588412            0           0           0  
      7.809488  7.403312 15.309488            0           0           0  
      5.251640  7.403312 15.309488            0           0           0  
      6.530533  8.878557 17.314077            0           0           0  
      6.530531  8.889724 19.870913            0           0           0  
      4.570728  7.403435 18.595624            0           0           0  
      8.490326  7.403435 18.595597            0           0           0  
      3.259259  8.886506 20.568792            0           0           0  
      3.271407  8.882796 23.137773            0           0           0  
      7.759791  7.417440 21.999952            0           0           0  
      5.301300  7.417438 21.999957            0           0           0  
      3.265282  0.000000  7.500000            0           0           0  
      3.265282  0.000000 10.057848            0           0           0  
      7.809488 10.364637  8.778924            0           0           0  
      5.251640 10.364637  8.778924            0           0           0  
      6.530564  0.000000 10.765282            0           0           0  
      6.530564  0.000000 13.323130            0           0           0  
      4.544206 10.364637 12.044206            0           0           0  
      8.516922 10.364637 12.044206            0           0           0  
      3.265282  0.000000 14.030564            0           0           0  
      3.265282  0.000000 16.588412            0           0           0  
      7.809488 10.364637 15.309488            0           0           0  
      5.251640 10.364637 15.309488            0           0           0  
      6.530529  0.000293 17.309963            0           0           0  
      6.530535  0.000987 19.871811            0           0           0  
      4.571024 10.365176 18.590440            0           0           0  
      8.490030 10.365176 18.590411            0           0           0  
      3.262891  0.000862 20.570990            0           0           0  
      3.263333  0.001398 23.139434            0           0           0  
      7.759179 10.370573 22.008433            0           0           0  
      5.301912 10.370573 22.008436            0           0           0  
      3.265282  2.961325  7.500000            0           0           0  
      3.265282  2.961325 10.057848            0           0           0  
      7.809488  1.480662  8.778924            0           0           0  
      5.251640  1.480662  8.778924            0           0           0  
      6.530564  2.961325 10.765282            0           0           0  
      6.530564  2.961325 13.323130            0           0           0  
      4.544206  1.480662 12.044206            0           0           0  
      8.516922  1.480662 12.044206            0           0           0  
      3.265282  2.961325 14.030564            0           0           0  
      3.265282  2.961325 16.588412            0           0           0  
      7.809488  1.480662 15.309488            0           0           0  
      5.251640  1.480662 15.309488            0           0           0  
      6.530533  2.967453 17.314394            0           0           0  
      6.530532  2.954526 19.872322            0           0           0  
      4.570802  1.481077 18.590513            0           0           0  
      8.490252  1.481077 18.590483            0           0           0  
      3.258105  2.960091 20.570186            0           0           0  
      3.267241  2.964478 23.138259            0           0           0  
      7.758806  1.479162 22.013188            0           0           0  
      5.302285  1.479162 22.013191            0           0           0  
      3.265282  5.922649  7.500000            0           0           0  
      3.265282  5.922649 10.057848            0           0           0  
      7.809488  4.441987  8.778924            0           0           0  
      5.251640  4.441987  8.778924            0           0           0  
      6.530564  5.922649 10.765282            0           0           0  
      6.530564  5.922649 13.323130            0           0           0  
      4.544206  4.441987 12.044206            0           0           0  
      8.516922  4.441987 12.044206            0           0           0  
      3.265282  5.922649 14.030564            0           0           0  
      3.265282  5.922649 16.588412            0           0           0  
      7.809488  4.441987 15.309488            0           0           0  
      5.251640  4.441987 15.309488            0           0           0  
      6.530532  5.922246 17.318630            0           0           0  
      6.530538  5.923603 19.892672            0           0           0  
      4.570821  4.442621 18.597095            0           0           0  
      8.490234  4.442621 18.597068            0           0           0  
      3.255169  5.924119 20.568889            0           0           0  
      3.283847  5.927252 23.136301            0           0           0  
      7.762799  4.430328 21.987570            0           0           0  
      5.298293  4.430330 21.987574            0           0           0  

 Finite differences POTIM=   1.0000000000000000E-002
     LOOP+:  cpu time    566.3540: real time    566.9093
    4ORBIT:  cpu time      0.0000: real time      0.0000

 total amount of memory used by VASP MPI-rank0   233475. kBytes
=======================================================================

   base      :      30000. kBytes
   nonl-proj :     123047. kBytes
   fftplans  :      12883. kBytes
   grid      :      20395. kBytes
   one-center:        482. kBytes
   wavefun   :      46668. kBytes

  
  
 General timing and accounting informations for this job:
 ========================================================
  
                  Total CPU time used (sec):    10940.115
                            User time (sec):    10806.674
                          System time (sec):      133.442
                         Elapsed time (sec):    10964.322
  
                   Maximum memory used (kb):      941484.
                   Average memory used (kb):          N/A
  
                          Minor page faults:     12252396
                          Major page faults:         8493
                 Voluntary context switches:        41166
