 **********************************************************************
                          MRCC program system
 **********************************************************************
 
                              Written by
     Mihaly Kallay, Peter R. Nagy, David Mester, Laszlo Gyevi-Nagy,
        Jozsef Csoka, P. Bernat Szabo, Zoltan Rolik, Gyula Samu,
     Jozsef Csontos, Bence Hegely, Adam Ganyecz, Istvan Ladjanszki,
       Lorant Szegedy, Bence Ladoczki, Klara Petrov, Mate Farkas,
                    Pal D. Mezei, and Reka A. Horvath
 
        Department of Physical Chemistry and Materials Science
            Budapest University of Technology and Economics
                  Budapest P.O.Box 91, H-1521 Hungary
 
                              www.mrcc.hu
 
                      Release date: March 18, 2022

 ************************ 2023-02-04 11:50:56 *************************
 Executing minp...

 Reading input from MINP...
 
 Input file:
 
calc=FNO-CCSD(T)
verbosity=3
mem=220GB
unit=angs
scfiguess=small
scfalg=locfit1
ccmaxit=400
ccsdalg=dfdirect
ccsdthreads=4
ccsdmkl=thr
ptthreads=4
lnoepsv=1e-5
naf_cor=1e-2
basis=aug-cc-pVQZ
basis_sm=def2-SVP
dfbasis_scf=def2-QZVPP-RI-JK
dfbasis_cor=aug-cc-pVQZ-RI
unit=angs
geom=xyz
10

C    29.54344629    29.54344629    16.97505516
H    29.54344670    30.44187631    17.60392580
H    29.54344662    28.64496649    17.60393442
H    30.44658454    29.54342777    16.34911135
H    28.64030918    29.54342779    16.34911130
C    46.42538513    25.32292238    16.97524142
H    46.42540375    26.22572171    16.34882843
H    45.52689325    25.32292262    17.60416815
H    47.32392699    25.32292258    17.60417697
H    46.42540368    24.42012416    16.34882759

--------------------Output has been truncated-------------------------


--------------------Output has been truncated-------------------------


--------------------Output has been truncated-------------------------


--------------------Output has been truncated-------------------------


--------------------Output has been truncated-------------------------


--------------------Output has been truncated-------------------------


--------------------Output has been truncated-------------------------


--------------------Output has been truncated-------------------------


--------------------Output has been truncated-------------------------


--------------------Output has been truncated-------------------------


 
 Reference energy [au]:                       -40.215614173227
 DF-MP2 singlet pair energy [au]:              -0.173752855603
 DF-MP2 triplet pair energy [au]:              -0.037498359750
 DF-SCS-MP2 correlation energy [au]:           -0.221002879974
 DF-SCS-MP2 energy [au]:                      -40.436617053201
 DF-SOS-MP2 correlation energy [au]:           -0.225878712284
 DF-SOS-MP2 energy [au]:                      -40.441492885511
 DF-MP2 correlation energy [au]:               -0.211251215353
 DF-MP2 energy [au]:                          -40.426865388580

 Results in FNO basis:
 
 
 Reference energy [au]:                       -40.215614173227
 DF-MP2 singlet pair energy [au]:              -0.170618194729
 DF-MP2 triplet pair energy [au]:              -0.037357058046
 DF-SCS-MP2 correlation energy [au]:           -0.217194186357
 DF-SCS-MP2 energy [au]:                      -40.432808359584
 DF-SOS-MP2 correlation energy [au]:           -0.221803653147
 DF-SOS-MP2 energy [au]:                      -40.437417826374
 DF-MP2 correlation energy [au]:               -0.207975252775
 DF-MP2 energy [au]:                          -40.423589426002

 Results in NAF basis:
 
 
 Reference energy [au]:                       -40.215614173227
 DF-MP2 singlet pair energy [au]:              -0.170600635551
 DF-MP2 triplet pair energy [au]:              -0.037363750814
 DF-SCS-MP2 correlation energy [au]:           -0.217175346266
 DF-SCS-MP2 energy [au]:                      -40.432789519493
 DF-SOS-MP2 correlation energy [au]:           -0.221780826216
 DF-SOS-MP2 energy [au]:                      -40.437394999443
 DF-MP2 correlation energy [au]:               -0.207964386366
 DF-MP2 energy [au]:                          -40.423578559593

 ************************ 2023-02-04 11:51:28 *************************
 Executing ccsd...

 Allocation of 220.0 Gbytes of memory...

 Direct DF-CCSD(T) calculation
 
 Convergence criterion:  1.0E-06
 
 Number of occupied/virtual/auxiliary orbitals:     4   101   320
    163.36 MB is the minimal memory requirement for (T)
     39.40 MB is the minimal memory requirement for CCSD
 
 Reference energy [au]:             -40.215614173227
 T1 contribution [au]:                0.000000000000
 Same spin MP2 energy [au]:          -0.037360399982
 Opposite spin MP2 energy [au]:      -0.170609405349
 MP2 correlation energy [au]:        -0.207969805331
 Total MP2 energy [au]:             -40.423583978558
 MP2 correction [au]:                -0.003281410022
 
 
 CPU time [min]:     0.175                   Wall time [min]:     0.008
 
 Starting CCSD iterations...
 
                     Residual norm          Energy
 Iteration  1        0.138680871035      -40.436528964811
 Iteration  2        0.035376069491      -40.442052517110
 Iteration  3        0.009771738072      -40.442635237631
 Iteration  4        0.002020926447      -40.442639736733
 Iteration  5        0.000374897447      -40.442646247561
 Iteration  6        0.000084797646      -40.442646124317
 Iteration  7        0.000020223463      -40.442646814345
 Iteration  8        0.000003738676      -40.442646871293
 
 CCSD iteration has converged in  8 steps.
      444.29 MB memory was utilized by CCSD
 
 T1 diagnostic:      7.996E-03            D1 diagnostic:      1.292E-02
 
 T1 contribution [au]:                                  0.000000000000
 PPL energy contribution [au]:                          0.060602201866
 Scaled PPL energy contribution [au]:                   0.061558986648

 OS-PPL energy contribution [au]:                       0.053773706537
 Scaled OS-PPL energy contribution [au]:                0.054766754117
 SS-PPL energy contribution [au]:                       0.006828495329
 Scaled SS-PPL energy contribution [au]:                0.006852794000

 Opposite spin CCSD energy [au]:                       -0.191003413345
 Same spin CCSD energy [au]:                           -0.036036034423
 CCSD correlation energy [au]:                         -0.227039447767
 CCSD correlation energy + MP2 correction [au]:        -0.230320857790
 CCSD correlation energy + MP2 + PPL corr. [au]:       -0.229364073008
 Total CCSD energy [au]:                              -40.442653620994
 Total CCSD energy + MP2 correction [au]:             -40.445935031017
 Total CCSD energy + MP2 + PPL corr. [au]:            -40.444978246235
 
 CPU time [min]:     0.879                   Wall time [min]:     0.028
 
 Calculation of (T) correction...
 
 
      124.68 MB memory is utilized for (T)

 0%       25%       50%       75%       100%
 |---------|---------|---------|---------| 
 
 (T) correction [au]:                                    -0.006941733882
 (T*) correction [au]:                                   -0.007051262643
 (T+) correction [au]:                                   -0.007050855624
 CCSD(T) correlation energy [au]:                        -0.233981181649
 CCSD(T) correlation energy + MP2 correction [au]:       -0.237262591671
 CCSD(T+) correlation en. + MP2 + PPL corr. [au]:        -0.236414928632
 Total CCSD(T) energy [au]:                             -40.449595354876
 Total CCSD(T) energy + MP2 correction [au]:            -40.452876764899
 Total CCSD(T+) energy + MP2 + PPL corr. [au]:          -40.452029101859
 
 CPU time [min]:     0.965                   Wall time [min]:     0.030
 
 ************************ 2023-02-04 11:51:30 *************************
                      Normal termination of mrcc.
 **********************************************************************
