 vasp.6.3.0 20Jan22 (build Apr  1 2022 16:44:48) complex                         
 executed on        HPECrayEX_GCC date 2023.02.07  22:55:51
 running  512 mpi-ranks, with    1 threads/rank
 distrk:  each k-point on  512 cores,    1 groups
 distr:  one band on NCORE=   8 cores,   64 groups


--------------------------------------------------------------------------------------------------------


 INCAR:
   SYSTEM = MgO-rocksalt
   ISMEAR = 0
   SIGMA = 0.05
   EDIFF = 1E-7
   ALGO = ALL
   ISTART = 0
   IBRION = 5
   POTIM = 0.01
   NFREE = 2
   ISYM = 0
   DIPOL = 0.5 0.5 0.5
   IDIPOL = 3
   LDIPOL = .TRUE.
   GGA = RE
   IVDW = 13
   VDW_S8 = 1.7468
   VDW_A1 = 0.5363
   VDW_A2 = 3.0726
   ENCUT = 600
   PREC = Accurate
   LASPH = .TRUE.
   LREAL = .FALSE.
   ISPIN = 1
   NELM = 200
   NELMIN = 8
   NCORE = 8
   KPAR = 1
   LWAVE = .FALSE.
   LCHARG = .FALSE.

 POTCAR:    PAW_PBE C 08Apr2002                   
 POTCAR:    PAW_PBE H 15Jun2001                   
 POTCAR:    PAW_PBE Mg_pv 13Apr2007               
 POTCAR:    PAW_PBE O 08Apr2002                   
 POTCAR:    PAW_PBE C 08Apr2002                   
   SHA256 =  253f7b50bb8d59471dbedb8285d89021f4a42ed1a2c5d38a03a736e69125dd95 C/POTCAR              
   COPYR  = (c) Copyright 08Apr2002 Georg Kresse                                                    
   COPYR  = This file is part of the software VASP. Any use, copying, and all other rights are regul
   COPYR  = If you do not have a valid VASP license, you may not use, copy or distribute this file. 
   VRHFIN =C: s2p2                                                                                  
   LEXCH  = PE                                                                                      
   EATOM  =   147.1560 eV,   10.8157 Ry                                                             
                                                                                                    
   TITEL  = PAW_PBE C 08Apr2002                                                                     
   LULTRA =        F    use ultrasoft PP ?                                                          
   IUNSCR =        1    unscreen: 0-lin 1-nonlin 2-no                                               
   RPACOR =    1.200    partial core radius                                                         
   POMASS =   12.011; ZVAL   =    4.000    mass and valenz                                          
   RCORE  =    1.500    outmost cutoff radius                                                       
   RWIGS  =    1.630; RWIGS  =    0.863    wigner-seitz radius (au A)                               
   ENMAX  =  400.000; ENMIN  =  300.000 eV                                                          
   ICORE  =        2    local potential                                                             
   LCOR   =        T    correct aug charges                                                         
   LPAW   =        T    paw PP                                                                      
   EAUG   =  644.873                                                                                
   DEXC   =    0.000                                                                                
   RMAX   =    1.529    core radius for proj-oper                                                   
   RAUG   =    1.300    factor for augmentation sphere                                              
   RDEP   =    1.501    radius for radial grids                                                     
   RDEPT  =    1.300    core radius for aug-charge                                                  
                                                                                                    
   Atomic configuration                                                                             
    4 entries                                                                                       
     n  l   j            E        occ.                                                              
     1  0  0.50      -273.3789   2.0000                                                             
     2  0  0.50       -13.7508   2.0000                                                             
     2  1  0.50        -5.2854   2.0000                                                             
     3  2  1.50        -5.4423   0.0000                                                             
   Description                                                                                      
     l       E           TYP  RCUT    TYP  RCUT                                                     
     0    -13.7508458     23  1.200                                                                 
     0     -8.2022199     23  1.200                                                                 
     1     -5.2854383     23  1.500                                                                 
     1     34.0145650     23  1.500                                                                 
     2     -5.4423304      7  1.500                                                                 
  local pseudopotential read in
  partial core-charges read in
  partial kinetic energy density read in
  atomic valenz-charges read in
  non local Contribution for L=           0  read in
    real space projection operators read in
  non local Contribution for L=           0  read in
    real space projection operators read in
  non local Contribution for L=           1  read in
    real space projection operators read in
  non local Contribution for L=           1  read in
    real space projection operators read in
    PAW grid and wavefunctions read in

   number of l-projection  operators is LMAX  =           4
   number of lm-projection operators is LMMAX =           8

 POTCAR:    PAW_PBE H 15Jun2001                   
   SHA256 =  030f79b5d3ab3cf0e668861823c8fb652ff669f3e15e46930bd03bfd63a607b6 H/POTCAR              
   COPYR  = (c) Copyright 15Jun2001 Georg Kresse                                                    
   COPYR  = This file is part of the software VASP. Any use, copying, and all other rights are regul
   COPYR  = If you do not have a valid VASP license, you may not use, copy or distribute this file. 
   VRHFIN =H: ultrasoft test                                                                        
   LEXCH  = PE                                                                                      
   EATOM  =    12.4884 eV,    0.9179 Ry                                                             
                                                                                                    
   TITEL  = PAW_PBE H 15Jun2001                                                                     
   LULTRA =        F    use ultrasoft PP ?                                                          
   IUNSCR =        0    unscreen: 0-lin 1-nonlin 2-no                                               
   RPACOR =    0.000    partial core radius                                                         
   POMASS =    1.000; ZVAL   =    1.000    mass and valenz                                          
   RCORE  =    1.100    outmost cutoff radius                                                       
   RWIGS  =    0.700; RWIGS  =    0.370    wigner-seitz radius (au A)                               
   ENMAX  =  250.000; ENMIN  =  200.000 eV                                                          
   RCLOC  =    0.701    cutoff for local pot                                                        
   LCOR   =        T    correct aug charges                                                         
   LPAW   =        T    paw PP                                                                      
   EAUG   =  400.000                                                                                
   RMAX   =    1.123    core radius for proj-oper                                                   
   RAUG   =    1.200    factor for augmentation sphere                                              
   RDEP   =    1.112    radius for radial grids                                                     
   RDEPT  =    0.926    core radius for aug-charge                                                  
                                                                                                    
   Atomic configuration                                                                             
    2 entries                                                                                       
     n  l   j            E        occ.                                                              
     1  0  0.50        -6.4927   1.0000                                                             
     2  1  0.50        -3.4015   0.0000                                                             
   Description                                                                                      
     l       E           TYP  RCUT    TYP  RCUT                                                     
     0     -6.4927494     23  1.100                                                                 
     0      6.8029130     23  1.100                                                                 
     1     -4.0817478     23  1.100                                                                 
  local pseudopotential read in
  atomic valenz-charges read in
  non local Contribution for L=           0  read in
    real space projection operators read in
  non local Contribution for L=           0  read in
    real space projection operators read in
  non local Contribution for L=           1  read in
    real space projection operators read in
    PAW grid and wavefunctions read in

   number of l-projection  operators is LMAX  =           3
   number of lm-projection operators is LMMAX =           5

 POTCAR:    PAW_PBE Mg_pv 13Apr2007               
   SHA256 =  f474ac0dd33840b9ae76c01d57fea79fdf77cdfbb07d5ade72c65f83c709b62b Mg_pv/POTCAR          
   COPYR  = (c) Copyright 13Apr2007 Georg Kresse                                                    
   COPYR  = This file is part of the software VASP. Any use, copying, and all other rights are regul
   COPYR  = If you do not have a valid VASP license, you may not use, copy or distribute this file. 
   VRHFIN =Mg: p6s2                                                                                 
   LEXCH  = PE                                                                                      
   EATOM  =  1056.7344 eV,   77.6678 Ry                                                             
                                                                                                    
   TITEL  = PAW_PBE Mg_pv 13Apr2007                                                                 
   LULTRA =        F    use ultrasoft PP ?                                                          
   IUNSCR =        1    unscreen: 0-lin 1-nonlin 2-no                                               
   RPACOR =    1.500    partial core radius                                                         
   POMASS =   24.305; ZVAL   =    8.000    mass and valenz                                          
   RCORE  =    2.000    outmost cutoff radius                                                       
   RWIGS  =    2.000; RWIGS  =    1.058    wigner-seitz radius (au A)                               
   ENMAX  =  403.929; ENMIN  =  302.947 eV                                                          
   RCLOC  =    1.506    cutoff for local pot                                                        
   LCOR   =        T    correct aug charges                                                         
   LPAW   =        T    paw PP                                                                      
   EAUG   =  758.780                                                                                
   DEXC   =    0.000                                                                                
   RMAX   =    2.045    core radius for proj-oper                                                   
   RAUG   =    1.300    factor for augmentation sphere                                              
   RDEP   =    2.025    radius for radial grids                                                     
   RDEPT  =    1.557    core radius for aug-charge                                                  
                                                                                                    
   Atomic configuration                                                                             
    5 entries                                                                                       
     n  l   j            E        occ.                                                              
     1  0  0.50     -1259.6230   2.0000                                                             
     2  0  0.50       -79.8442   2.0000                                                             
     2  1  1.50       -46.6121   6.0000                                                             
     3  0  0.50        -4.7055   2.0000                                                             
     3  2  1.50        -1.3606   0.0000                                                             
   Description                                                                                      
     l       E           TYP  RCUT    TYP  RCUT                                                     
     1    -46.6121073     23  1.600                                                                 
     1      2.7211652     23  1.600                                                                 
     0     -4.7054661     23  2.000                                                                 
     0     61.2262170     23  2.000                                                                 
     2     -1.3605826     23  2.000                                                                 
  local pseudopotential read in
  partial core-charges read in
  partial kinetic energy density read in
  atomic valenz-charges read in
  non local Contribution for L=           1  read in
    real space projection operators read in
  non local Contribution for L=           1  read in
    real space projection operators read in
  non local Contribution for L=           0  read in
    real space projection operators read in
  non local Contribution for L=           0  read in
    real space projection operators read in
  non local Contribution for L=           2  read in
    real space projection operators read in
    PAW grid and wavefunctions read in

   number of l-projection  operators is LMAX  =           5
   number of lm-projection operators is LMMAX =          13

 POTCAR:    PAW_PBE O 08Apr2002                   
   SHA256 =  818f92134a0a090dccd8ba1447fa70422a3b330e708bb4f08108d8ae51209ddf O/POTCAR              
   COPYR  = (c) Copyright 08Apr2002 Georg Kresse                                                    
   COPYR  = This file is part of the software VASP. Any use, copying, and all other rights are regul
   COPYR  = If you do not have a valid VASP license, you may not use, copy or distribute this file. 
   VRHFIN =O: s2p4                                                                                  
   LEXCH  = PE                                                                                      
   EATOM  =   432.3788 eV,   31.7789 Ry                                                             
                                                                                                    
   TITEL  = PAW_PBE O 08Apr2002                                                                     
   LULTRA =        F    use ultrasoft PP ?                                                          
   IUNSCR =        1    unscreen: 0-lin 1-nonlin 2-no                                               
   RPACOR =    1.200    partial core radius                                                         
   POMASS =   16.000; ZVAL   =    6.000    mass and valenz                                          
   RCORE  =    1.520    outmost cutoff radius                                                       
   RWIGS  =    1.550; RWIGS  =    0.820    wigner-seitz radius (au A)                               
   ENMAX  =  400.000; ENMIN  =  300.000 eV                                                          
   ICORE  =        2    local potential                                                             
   LCOR   =        T    correct aug charges                                                         
   LPAW   =        T    paw PP                                                                      
   EAUG   =  605.392                                                                                
   DEXC   =    0.000                                                                                
   RMAX   =    1.553    core radius for proj-oper                                                   
   RAUG   =    1.300    factor for augmentation sphere                                              
   RDEP   =    1.550    radius for radial grids                                                     
   RDEPT  =    1.329    core radius for aug-charge                                                  
                                                                                                    
   Atomic configuration                                                                             
    4 entries                                                                                       
     n  l   j            E        occ.                                                              
     1  0  0.50      -514.6923   2.0000                                                             
     2  0  0.50       -23.9615   2.0000                                                             
     2  1  0.50        -9.0305   4.0000                                                             
     3  2  1.50        -9.5241   0.0000                                                             
   Description                                                                                      
     l       E           TYP  RCUT    TYP  RCUT                                                     
     0    -23.9615318     23  1.200                                                                 
     0     -9.5240782     23  1.200                                                                 
     1     -9.0304911     23  1.520                                                                 
     1      8.1634956     23  1.520                                                                 
     2     -9.5240782      7  1.500                                                                 
  local pseudopotential read in
  partial core-charges read in
  partial kinetic energy density read in
  kinetic energy density of atom read in
  atomic valenz-charges read in
  non local Contribution for L=           0  read in
    real space projection operators read in
  non local Contribution for L=           0  read in
    real space projection operators read in
  non local Contribution for L=           1  read in
    real space projection operators read in
  non local Contribution for L=           1  read in
    real space projection operators read in
    PAW grid and wavefunctions read in

   number of l-projection  operators is LMAX  =           4
   number of lm-projection operators is LMMAX =           8

 -----------------------------------------------------------------------------
|                                                                             |
|               ----> ADVICE to this user running VASP <----                  |
|                                                                             |
|     You have a (more or less) 'large supercell' and for larger cells it     |
|     might be more efficient to use real-space projection operators.         |
|     Therefore, try LREAL= Auto in the INCAR file.                           |
|     Mind: For very accurate calculation, you might also keep the            |
|     reciprocal projection scheme (i.e. LREAL=.FALSE.).                      |
|                                                                             |
 -----------------------------------------------------------------------------

 -----------------------------------------------------------------------------
|                                                                             |
|               ----> ADVICE to this user running VASP <----                  |
|                                                                             |
|     You enforced a specific xc type in the INCAR file but a different       |
|     type was found in the POTCAR file.                                      |
|     I HOPE YOU KNOW WHAT YOU ARE DOING!                                     |
|                                                                             |
 -----------------------------------------------------------------------------

  PAW_PBE C 08Apr2002                   :
 energy of atom  1       EATOM= -147.1560
 kinetic energy error for atom=    0.0057 (will be added to EATOM!!)
  PAW_PBE H 15Jun2001                   :
 energy of atom  2       EATOM=  -12.4884
 kinetic energy error for atom=    0.0004 (will be added to EATOM!!)
  PAW_PBE Mg_pv 13Apr2007               :
 energy of atom  3       EATOM=-1056.7344
 kinetic energy error for atom=    0.0221 (will be added to EATOM!!)
  PAW_PBE O 08Apr2002                   :
 energy of atom  4       EATOM= -432.3788
 kinetic energy error for atom=    0.0168 (will be added to EATOM!!)


 POSCAR:  C  H Mg  O
  positions in direct lattice
  No initial velocities read in
 -----------------------------------------------------------------------------
|                                                                             |
|           W    W    AA    RRRRR   N    N  II  N    N   GGGG   !!!           |
|           W    W   A  A   R    R  NN   N  II  NN   N  G    G  !!!           |
|           W    W  A    A  R    R  N N  N  II  N N  N  G       !!!           |
|           W WW W  AAAAAA  RRRRR   N  N N  II  N  N N  G  GGG   !            |
|           WW  WW  A    A  R   R   N   NN  II  N   NN  G    G                |
|           W    W  A    A  R    R  N    N  II  N    N   GGGG   !!!           |
|                                                                             |
|     Specifying the vdW parameters                                           |
|     VDW_S8 = 1.747                                                          |
|     VDW_A1 = 0.536                                                          |
|     VDW_A2 = 3.073                                                          |
|     in the INCAR file will overwrite the defaults for revpbe. Please        |
|     make sure that is what you intended.                                    |
|                                                                             |
 -----------------------------------------------------------------------------

 exchange correlation table for  LEXCH =       40
   RHO(1)=    0.500       N(1)  =     2000
   RHO(2)=  100.500       N(2)  =     4000



--------------------------------------------------------------------------------------------------------


 ion  position               nearest neighbor table
   1  0.450  0.498  0.795-  11 1.10   9 1.10  10 1.10   2 1.53
   2  0.296  0.425  0.819-  12 1.10  14 1.10  13 1.10   1 1.53
   3  0.450  0.998  0.795-  17 1.10  15 1.10  16 1.10   4 1.53
   4  0.296  0.925  0.819-  18 1.10  20 1.10  19 1.10   3 1.53
   5  0.792  0.748  0.795-  23 1.10  22 1.10  21 1.10   6 1.53
   6  0.946  0.675  0.819-  24 1.10  25 1.10  26 1.10   5 1.53
   7  0.792  0.248  0.795-  29 1.10  28 1.10  27 1.10   8 1.53
   8  0.946  0.175  0.819-  30 1.10  31 1.10  32 1.10   7 1.53
   9  0.430  0.609  0.769-   1 1.10
  10  0.513  0.415  0.764-   1 1.10
  11  0.531  0.526  0.834-   1 1.10
  12  0.215  0.402  0.780-   2 1.10
  13  0.234  0.505  0.851-   2 1.10
  14  0.317  0.313  0.843-   2 1.10
  15  0.430  0.109  0.769-   3 1.10
  16  0.513  0.915  0.764-   3 1.10
  17  0.531  0.026  0.834-   3 1.10
  18  0.214  0.902  0.780-   4 1.10
  19  0.234  0.005  0.851-   4 1.10
  20  0.317  0.813  0.843-   4 1.10
  21  0.730  0.665  0.764-   5 1.10
  22  0.814  0.858  0.769-   5 1.10
  23  0.710  0.776  0.833-   5 1.10
  24  0.028  0.652  0.780-   6 1.10
  25  0.924  0.563  0.844-   6 1.10
  26  0.007  0.755  0.852-   6 1.10
  27  0.730  0.165  0.764-   7 1.10
  28  0.814  0.358  0.769-   7 1.10
  29  0.710  0.276  0.833-   7 1.10
  30  0.028  0.152  0.780-   8 1.10
  31  0.924  0.063  0.844-   8 1.10
  32  0.007  0.255  0.852-   8 1.10
  33  0.000  0.750  0.352-  65 2.11  67 2.11  68 2.11  75 2.11  84 2.11
  34  0.250  0.000  0.352-  66 2.11  67 2.11  68 2.11  76 2.11  83 2.11
  35  0.000  0.000  0.451-  67 2.11  66 2.11  65 2.11  73 2.11  82 2.11  71 2.12
  36  0.250  0.750  0.451-  68 2.11  66 2.11  65 2.11  74 2.11  81 2.11  72 2.12
  37  1.000  0.750  0.550-  88 2.11  79 2.11  71 2.11  72 2.11  65 2.12  69 2.15
  38  0.250  0.000  0.550-  87 2.11  72 2.11  80 2.11  71 2.11  66 2.12  70 2.15
  39  0.000  0.000  0.648-  71 2.10  70 2.11  86 2.11  69 2.11  77 2.11
  40  0.250  0.750  0.648-  72 2.10  69 2.11  85 2.11  78 2.11  70 2.11
  41  0.000  0.250  0.352-  73 2.11  67 2.11  75 2.11  76 2.11  92 2.11
  42  0.250  0.500  0.352-  74 2.11  68 2.11  75 2.11  76 2.11  91 2.11
  43  0.000  0.500  0.451-  75 2.11  73 2.11  74 2.11  65 2.11  90 2.11  79 2.12
  44  0.250  0.250  0.451-  76 2.11  73 2.11  74 2.11  66 2.11  89 2.11  80 2.12
  45  1.000  0.250  0.550-  96 2.11  79 2.11  71 2.11  80 2.11  73 2.12  77 2.15
  46  0.250  0.500  0.550-  95 2.11  80 2.11  72 2.11  79 2.11  74 2.12  78 2.15
  47  0.000  0.500  0.648-  79 2.10  78 2.11  94 2.11  77 2.11  69 2.11
  48  0.250  0.250  0.648-  80 2.10  77 2.11  93 2.11  70 2.11  78 2.11
  49  0.500  0.750  0.352-  81 2.11  68 2.11  83 2.11  84 2.11  91 2.11
  50  0.750  0.000  0.352-  82 2.11  67 2.11  83 2.11  84 2.11  92 2.11
  51  0.500  0.000  0.451-  83 2.11  81 2.11  82 2.11  66 2.11  89 2.11  87 2.12
  52  0.750  0.750  0.451-  84 2.11  81 2.11  82 2.11  65 2.11  90 2.11  88 2.12
  53  0.500  0.750  0.550-  88 2.11  95 2.11  87 2.11  72 2.11  81 2.13  85 2.15
  54  0.750  0.000  0.550-  87 2.11  96 2.11  88 2.11  71 2.11  82 2.13  86 2.15
  55  0.500  0.001  0.649-  93 2.11  85 2.11  70 2.11  86 2.12  87 2.12
  56  0.750  0.751  0.649-  86 2.11  94 2.11  69 2.11  85 2.12  88 2.12
  57  0.500  0.250  0.352-  89 2.11  83 2.11  76 2.11  91 2.11  92 2.11
  58  0.750  0.500  0.352-  90 2.11  84 2.11  75 2.11  91 2.11  92 2.11
  59  0.500  0.500  0.451-  91 2.11  81 2.11  89 2.11  90 2.11  74 2.11  95 2.12
  60  0.750  0.250  0.451-  92 2.11  82 2.11  89 2.11  90 2.11  73 2.11  96 2.12
  61  0.500  0.250  0.550-  96 2.11  95 2.11  87 2.11  80 2.11  89 2.13  93 2.15
  62  0.750  0.500  0.550-  95 2.11  88 2.11  96 2.11  79 2.11  90 2.13  94 2.15
  63  0.500  0.501  0.649-  85 2.11  93 2.11  78 2.11  94 2.12  95 2.12
  64  0.750  0.251  0.649-  94 2.11  86 2.11  77 2.11  93 2.12  96 2.12
  65  0.000  0.750  0.451-  33 2.11  35 2.11  36 2.11  43 2.11  52 2.11  37 2.12
  66  0.250  0.000  0.451-  34 2.11  35 2.11  36 2.11  44 2.11  51 2.11  38 2.12
  67  0.000  0.000  0.352-  35 2.11  34 2.11  33 2.11  41 2.11  50 2.11
  68  0.250  0.750  0.352-  36 2.11  34 2.11  33 2.11  42 2.11  49 2.11
  69  0.001  0.750  0.651-  40 2.11  39 2.11  47 2.11  56 2.11  37 2.15
  70  0.249  0.000  0.651-  39 2.11  48 2.11  40 2.11  55 2.11  38 2.15
  71  1.000  0.000  0.550-  39 2.10  45 2.11  37 2.11  54 2.11  38 2.11  35 2.12
  72  0.250  0.750  0.550-  40 2.10  38 2.11  46 2.11  53 2.11  37 2.11  36 2.12
  73  0.000  0.250  0.451-  41 2.11  35 2.11  43 2.11  44 2.11  60 2.11  45 2.12
  74  0.250  0.500  0.451-  42 2.11  36 2.11  43 2.11  44 2.11  59 2.11  46 2.12
  75  0.000  0.500  0.352-  43 2.11  41 2.11  42 2.11  33 2.11  58 2.11
  76  0.250  0.250  0.352-  44 2.11  41 2.11  42 2.11  34 2.11  57 2.11
  77  0.001  0.250  0.651-  48 2.11  47 2.11  39 2.11  64 2.11  45 2.15
  78  0.249  0.500  0.651-  47 2.11  40 2.11  48 2.11  63 2.11  46 2.15
  79  1.000  0.500  0.550-  47 2.10  37 2.11  45 2.11  62 2.11  46 2.11  43 2.12
  80  0.250  0.250  0.550-  48 2.10  38 2.11  46 2.11  61 2.11  45 2.11  44 2.12
  81  0.500  0.750  0.451-  49 2.11  36 2.11  51 2.11  52 2.11  59 2.11  53 2.13
  82  0.750  0.000  0.451-  50 2.11  35 2.11  51 2.11  52 2.11  60 2.11  54 2.13
  83  0.500  0.000  0.352-  51 2.11  49 2.11  50 2.11  34 2.11  57 2.11
  84  0.750  0.750  0.352-  52 2.11  49 2.11  50 2.11  33 2.11  58 2.11
  85  0.500  0.750  0.651-  40 2.11  63 2.11  55 2.11  56 2.12  53 2.15
  86  0.750  0.000  0.651-  56 2.11  39 2.11  64 2.11  55 2.12  54 2.15
  87  0.500  0.000  0.550-  54 2.11  38 2.11  53 2.11  61 2.11  55 2.12  51 2.12
  88  0.750  0.750  0.550-  53 2.11  37 2.11  62 2.11  54 2.11  56 2.12  52 2.12
  89  0.500  0.250  0.451-  57 2.11  51 2.11  44 2.11  59 2.11  60 2.11  61 2.13
  90  0.750  0.500  0.451-  58 2.11  52 2.11  43 2.11  59 2.11  60 2.11  62 2.13
  91  0.500  0.500  0.352-  59 2.11  49 2.11  57 2.11  58 2.11  42 2.11
  92  0.750  0.250  0.352-  60 2.11  50 2.11  57 2.11  58 2.11  41 2.11
  93  0.500  0.250  0.651-  48 2.11  55 2.11  63 2.11  64 2.12  61 2.15
  94  0.750  0.500  0.651-  64 2.11  47 2.11  56 2.11  63 2.12  62 2.15
  95  0.500  0.500  0.550-  62 2.11  46 2.11  61 2.11  53 2.11  63 2.12  59 2.12
  96  0.750  0.250  0.550-  61 2.11  45 2.11  54 2.11  62 2.11  64 2.12  60 2.12


IMPORTANT INFORMATION: All symmetrisations will be switched off!
NOSYMM: (Re-)initialisation of all symmetry stuff for point group C_1.


----------------------------------------------------------------------------------------

                                     Primitive cell                                     

  volume of cell :    1519.8199

  direct lattice vectors                    reciprocal lattice vectors
     8.440984654  0.000000000  0.000000000     0.118469591  0.000000000  0.000000000
     0.000000000  8.440984654  0.000000000     0.000000000  0.118469591  0.000000000
     0.000000000  0.000000000 21.330738491     0.000000000  0.000000000  0.046880702

  length of vectors
     8.440984654  8.440984654 21.330738491     0.118469591  0.118469591  0.046880702

  position of ions in fractional coordinates (direct lattice)
     0.450287951  0.497956105  0.795292064
     0.295622581  0.425184021  0.818726705
     0.450290049  0.997959181  0.795294443
     0.295621207  0.925183840  0.818725911
     0.792044719  0.747980099  0.794962680
     0.946021493  0.675258729  0.819113716
     0.792044986  0.247979888  0.794963001
     0.946022044  0.175259211  0.819113956
     0.429543791  0.608529542  0.769358613
     0.513081298  0.414830162  0.764274023
     0.531241336  0.525792143  0.834055064
     0.214501211  0.401993569  0.779538473
     0.234041346  0.504648258  0.851417549
     0.316707448  0.312635867  0.843177772
     0.429533874  0.108543333  0.769370383
     0.513075669  0.914808647  0.764283328
     0.531273820  0.025809512  0.834046657
     0.214484415  0.901975882  0.779544066
     0.234036282  0.004668948  0.851408350
     0.316716093  0.812625556  0.843166819
     0.729814513  0.664554417  0.763896521
     0.813611910  0.858270212  0.768922078
     0.710177001  0.776484355  0.833339686
     0.028228581  0.651960552  0.780296813
     0.924194214  0.562769241  0.843510048
     0.006689504  0.754821857  0.852036626
     0.729819970  0.164552929  0.763895305
     0.813610702  0.358267891  0.768920887
     0.710179261  0.276487733  0.833340194
     0.028221034  0.151963205  0.780294208
     0.924195181  0.062770018  0.843510500
     0.006692625  0.254816503  0.852038566
     0.000000000  0.750000000  0.351605267
     0.250000000  0.000000000  0.351605267
     0.000000000  0.000000000  0.450535089
     0.250000000  0.750000000  0.450535089
     0.999835129  0.750167077  0.550083385
     0.250132997  0.000181724  0.550072802
     0.000099849  0.000335666  0.648440958
     0.249867582  0.750310305  0.648424451
     0.000000000  0.250000000  0.351605267
     0.250000000  0.500000000  0.351605267
     0.000000000  0.500000000  0.450535089
     0.250000000  0.250000000  0.450535089
     0.999835226  0.250201077  0.550083778
     0.250145338  0.500182231  0.550069492
     0.000110371  0.500337423  0.648436087
     0.249867243  0.250351611  0.648424686
     0.500000000  0.750000000  0.351605267
     0.750000000  0.000000000  0.351605267
     0.500000000  0.000000000  0.450535089
     0.750000000  0.750000000  0.450535089
     0.500198817  0.750206788  0.550283044
     0.749781363  0.000222660  0.550291264
     0.499687321  0.000543323  0.649261292
     0.750233724  0.750535558  0.649309461
     0.500000000  0.250000000  0.351605267
     0.750000000  0.500000000  0.351605267
     0.500000000  0.500000000  0.450535089
     0.750000000  0.250000000  0.450535089
     0.500198756  0.250238114  0.550283584
     0.749773200  0.500221794  0.550284807
     0.499677713  0.500545028  0.649283781
     0.750233280  0.250550413  0.649309929
     0.000000000  0.750000000  0.450535089
     0.250000000  0.000000000  0.450535089
     0.000000000  0.000000000  0.351605267
     0.250000000  0.750000000  0.351605267
     0.000510852  0.750389798  0.650806738
     0.249441857  0.000387340  0.650735577
     0.999901573  0.000186798  0.549799584
     0.250055055  0.750189924  0.549792876
     0.000000000  0.250000000  0.450535089
     0.250000000  0.500000000  0.450535089
     0.000000000  0.500000000  0.351605267
     0.250000000  0.250000000  0.351605267
     0.000511198  0.250392239  0.650807820
     0.249443187  0.500388743  0.650733295
     0.999899343  0.500186069  0.549807694
     0.250055253  0.250179260  0.549793858
     0.500000000  0.750000000  0.450535089
     0.750000000  0.000000000  0.450535089
     0.500000000  0.000000000  0.351605267
     0.750000000  0.750000000  0.351605267
     0.499671077  0.750406080  0.650994824
     0.750241535  0.000412774  0.650991113
     0.499994468  0.000212142  0.550033471
     0.749993981  0.750211421  0.550040891
     0.500000000  0.250000000  0.450535089
     0.750000000  0.500000000  0.450535089
     0.500000000  0.500000000  0.351605267
     0.750000000  0.250000000  0.351605267
     0.499670325  0.250412997  0.650996074
     0.750239036  0.500414114  0.650995932
     0.499999865  0.500212082  0.550026094
     0.749993748  0.250213015  0.550041623

  ion indices of the primitive-cell ions
   primitive index   ion index
                 1           1
                 2           2
                 3           3
                 4           4
                 5           5
                 6           6
                 7           7
                 8           8
                 9           9
                10          10
                11          11
                12          12
                13          13
                14          14
                15          15
                16          16
                17          17
                18          18
                19          19
                20          20
                21          21
                22          22
                23          23
                24          24
                25          25
                26          26
                27          27
                28          28
                29          29
                30          30
                31          31
                32          32
                33          33
                34          34
                35          35
                36          36
                37          37
                38          38
                39          39
                40          40
                41          41
                42          42
                43          43
                44          44
                45          45
                46          46
                47          47
                48          48
                49          49
                50          50
                51          51
                52          52
                53          53
                54          54
                55          55
                56          56
                57          57
                58          58
                59          59
                60          60
                61          61
                62          62
                63          63
                64          64
                65          65
                66          66
                67          67
                68          68
                69          69
                70          70
                71          71
                72          72
                73          73
                74          74
                75          75
                76          76
                77          77
                78          78
                79          79
                80          80
                81          81
                82          82
                83          83
                84          84
                85          85
                86          86
                87          87
                88          88
                89          89
                90          90
                91          91
                92          92
                93          93
                94          94
                95          95
                96          96

----------------------------------------------------------------------------------------



 KPOINTS: pymatgen v2020.8.13 with grid density = 

Automatic generation of k-mesh.
 Grid dimensions read from file:
 generate k-points for:    2    2    1

 Generating k-lattice:

  Cartesian coordinates                     Fractional coordinates (reciprocal lattice)
     0.059234796  0.000000000  0.000000000     0.500000000  0.000000000  0.000000000
     0.000000000  0.059234796  0.000000000     0.000000000  0.500000000  0.000000000
     0.000000000  0.000000000  0.046880702     0.000000000  0.000000000  1.000000000

  Length of vectors
     0.059234796  0.059234796  0.046880702

  Shift w.r.t. Gamma in fractional coordinates (k-lattice)
     0.000000000  0.000000000  0.000000000

 
 Subroutine IBZKPT returns following result:
 ===========================================
 
 Found      4 irreducible k-points:
 
 Following reciprocal coordinates:
            Coordinates               Weight
  0.000000  0.000000  0.000000      1.000000
  0.500000  0.000000  0.000000      1.000000
  0.000000  0.500000  0.000000      1.000000
  0.500000  0.500000  0.000000      1.000000
 
 Following cartesian coordinates:
            Coordinates               Weight
  0.000000  0.000000  0.000000      1.000000
  0.059235  0.000000  0.000000      1.000000
  0.000000  0.059235  0.000000      1.000000
  0.059235  0.059235  0.000000      1.000000
 
 
 Subroutine IBZKPT_HF returns following result:
 ==============================================
 
 Found      4 k-points in 1st BZ
 the following      4 k-points will be used (e.g. in the exchange kernel)
 Following reciprocal coordinates:   # in IRBZ
  0.000000  0.000000  0.000000    0.25000000   1 t-inv F
  0.500000  0.000000  0.000000    0.25000000   2 t-inv F
  0.000000  0.500000  0.000000    0.25000000   3 t-inv F
  0.500000  0.500000  0.000000    0.25000000   4 t-inv F


--------------------------------------------------------------------------------------------------------




 Dimension of arrays:
   k-points           NKPTS =      4   k-points in BZ     NKDIM =      4   number of bands    NBANDS=    320
   number of dos      NEDOS =    301   number of ions     NIONS =     96
   non local maximal  LDIM  =      5   non local SUM 2l+1 LMDIM =     13
   total plane-waves  NPLWV = 882000
   max r-space proj   IRMAX =      1   max aug-charges    IRDMAX=  11635
   dimension x,y,z NGX =    70 NGY =   70 NGZ =  180
   dimension x,y,z NGXF=   140 NGYF=  140 NGZF=  360
   support grid    NGXF=   140 NGYF=  140 NGZF=  360
   ions per type =               8  24  32  32
   NGX,Y,Z   is equivalent  to a cutoff of  13.79, 13.79, 14.03 a.u.
   NGXF,Y,Z  is equivalent  to a cutoff of  27.57, 27.57, 28.06 a.u.

 SYSTEM =  MgO-rocksalt                            
 POSCAR =   C  H Mg  O                             

--------------------------------------------------------------------------------------------------------


  energy-cutoff  :      600.00
  volume of cell :     1519.82
      direct lattice vectors                 reciprocal lattice vectors
     8.440984654  0.000000000  0.000000000     0.118469591  0.000000000  0.000000000
     0.000000000  8.440984654  0.000000000     0.000000000  0.118469591  0.000000000
     0.000000000  0.000000000 21.330738491     0.000000000  0.000000000  0.046880702

  length of vectors
     8.440984654  8.440984654 21.330738491     0.118469591  0.118469591  0.046880702



 k-points in units of 2pi/SCALE and weight: pymatgen v2020.8.13 with grid density = 
   0.00000000  0.00000000  0.00000000       0.250
   0.05923480  0.00000000  0.00000000       0.250
   0.00000000  0.05923480  0.00000000       0.250
   0.05923480  0.05923480  0.00000000       0.250

 k-points in reciprocal lattice and weights: pymatgen v2020.8.13 with grid density = 
   0.00000000  0.00000000  0.00000000       0.250
   0.50000000  0.00000000  0.00000000       0.250
   0.00000000  0.50000000  0.00000000       0.250
   0.50000000  0.50000000  0.00000000       0.250

 position of ions in fractional coordinates (direct lattice) 
   0.45028795  0.49795611  0.79529206
   0.29562258  0.42518402  0.81872671
   0.45029005  0.99795918  0.79529444
   0.29562121  0.92518384  0.81872591
   0.79204472  0.74798010  0.79496268
   0.94602149  0.67525873  0.81911372
   0.79204499  0.24797989  0.79496300
   0.94602204  0.17525921  0.81911396
   0.42954379  0.60852954  0.76935861
   0.51308130  0.41483016  0.76427402
   0.53124134  0.52579214  0.83405506
   0.21450121  0.40199357  0.77953847
   0.23404135  0.50464826  0.85141755
   0.31670745  0.31263587  0.84317777
   0.42953387  0.10854333  0.76937038
   0.51307567  0.91480865  0.76428333
   0.53127382  0.02580951  0.83404666
   0.21448442  0.90197588  0.77954407
   0.23403628  0.00466895  0.85140835
   0.31671609  0.81262556  0.84316682
   0.72981451  0.66455442  0.76389652
   0.81361191  0.85827021  0.76892208
   0.71017700  0.77648435  0.83333969
   0.02822858  0.65196055  0.78029681
   0.92419421  0.56276924  0.84351005
   0.00668950  0.75482186  0.85203663
   0.72981997  0.16455293  0.76389531
   0.81361070  0.35826789  0.76892089
   0.71017926  0.27648773  0.83334019
   0.02822103  0.15196321  0.78029421
   0.92419518  0.06277002  0.84351050
   0.00669262  0.25481650  0.85203857
   0.00000000  0.75000000  0.35160527
   0.25000000  0.00000000  0.35160527
   0.00000000  0.00000000  0.45053509
   0.25000000  0.75000000  0.45053509
   0.99983513  0.75016708  0.55008338
   0.25013300  0.00018172  0.55007280
   0.00009985  0.00033567  0.64844096
   0.24986758  0.75031030  0.64842445
   0.00000000  0.25000000  0.35160527
   0.25000000  0.50000000  0.35160527
   0.00000000  0.50000000  0.45053509
   0.25000000  0.25000000  0.45053509
   0.99983523  0.25020108  0.55008378
   0.25014534  0.50018223  0.55006949
   0.00011037  0.50033742  0.64843609
   0.24986724  0.25035161  0.64842469
   0.50000000  0.75000000  0.35160527
   0.75000000  0.00000000  0.35160527
   0.50000000  0.00000000  0.45053509
   0.75000000  0.75000000  0.45053509
   0.50019882  0.75020679  0.55028304
   0.74978136  0.00022266  0.55029126
   0.49968732  0.00054332  0.64926129
   0.75023372  0.75053556  0.64930946
   0.50000000  0.25000000  0.35160527
   0.75000000  0.50000000  0.35160527
   0.50000000  0.50000000  0.45053509
   0.75000000  0.25000000  0.45053509
   0.50019876  0.25023811  0.55028358
   0.74977320  0.50022179  0.55028481
   0.49967771  0.50054503  0.64928378
   0.75023328  0.25055041  0.64930993
   0.00000000  0.75000000  0.45053509
   0.25000000  0.00000000  0.45053509
   0.00000000  0.00000000  0.35160527
   0.25000000  0.75000000  0.35160527
   0.00051085  0.75038980  0.65080674
   0.24944186  0.00038734  0.65073558
   0.99990157  0.00018680  0.54979958
   0.25005505  0.75018992  0.54979288
   0.00000000  0.25000000  0.45053509
   0.25000000  0.50000000  0.45053509
   0.00000000  0.50000000  0.35160527
   0.25000000  0.25000000  0.35160527
   0.00051120  0.25039224  0.65080782
   0.24944319  0.50038874  0.65073330
   0.99989934  0.50018607  0.54980769
   0.25005525  0.25017926  0.54979386
   0.50000000  0.75000000  0.45053509
   0.75000000  0.00000000  0.45053509
   0.50000000  0.00000000  0.35160527
   0.75000000  0.75000000  0.35160527
   0.49967108  0.75040608  0.65099482
   0.75024153  0.00041277  0.65099111
   0.49999447  0.00021214  0.55003347
   0.74999398  0.75021142  0.55004089
   0.50000000  0.25000000  0.45053509
   0.75000000  0.50000000  0.45053509
   0.50000000  0.50000000  0.35160527
   0.75000000  0.25000000  0.35160527
   0.49967033  0.25041300  0.65099607
   0.75023904  0.50041411  0.65099593
   0.49999986  0.50021208  0.55002609
   0.74999375  0.25021302  0.55004162

 position of ions in cartesian coordinates  (Angst):
   3.80087368  4.20323984 16.96416703
   2.49534567  3.58897180 17.46404525
   3.80089140  8.42375813 16.96421778
   2.49533407  7.80946259 17.46402829
   6.68563732  6.31368854 16.95714103
   7.98535291  5.69984857 17.47230048
   6.68563957  2.09319443 16.95714789
   7.98535756  1.47936031 17.47230559
   3.62577255  5.13658853 16.41098738
   4.33091136  3.50157503 16.30252931
   4.48419997  4.43820341 17.79101046
   1.81060143  3.39322155 16.62813131
   1.97553941  4.25972820 18.16136508
   2.67332271  2.63895455 17.98560457
   3.62568884  0.91621261 16.41123844
   4.33086384  7.72188575 16.30272780
   4.48447416  0.21785769 17.79083112
   1.81045966  7.61356457 16.62825062
   1.97549667  0.03941052 18.16116886
   2.67339568  6.85935984 17.98537092
   6.16035311  5.60949364 16.29447693
   6.86768565  7.24464569 16.40167577
   5.99459317  6.55429252 17.77575092
   0.23827702  5.50318901 16.64430726
   7.80110918  4.75032653 17.99269225
   0.05646600  6.37143971 18.17457044
   6.16039916  1.38898875 16.29445099
   6.86767545  3.02413377 16.40165036
   5.99461225  2.33382871 17.77576175
   0.23821332  1.28271908 16.64425170
   7.80111734  0.52984076 17.99270188
   0.05649234  2.15090219 18.17461184
   0.00000000  6.33073849  7.50000000
   2.11024616  0.00000000  7.50000000
   0.00000000  0.00000000  9.61024616
   2.11024616  6.33073849  9.61024616
   8.43959298  6.33214878 11.73368483
   2.11136879  0.00153393 11.73345908
   0.00084283  0.00283336 13.83172449
   2.10912843  6.33335777 13.83137239
   0.00000000  2.11024616  7.50000000
   2.11024616  4.22049233  7.50000000
   0.00000000  4.22049233  9.61024616
   2.11024616  2.11024616  9.61024616
   8.43959380  2.11194345 11.73369322
   2.11147296  4.22203054 11.73338849
   0.00093164  4.22334051 13.83162060
   2.10912556  2.11321411 13.83137740
   4.22049233  6.33073849  7.50000000
   6.33073849  0.00000000  7.50000000
   4.22049233  0.00000000  9.61024616
   6.33073849  6.33073849  9.61024616
   4.22217054  6.33248398 11.73794371
   6.32889298  0.00187947 11.73811905
   4.21785301  0.00458618 13.84922282
   6.33271135  6.33525913 13.85025031
   4.22049233  2.11024616  7.50000000
   6.33073849  4.22049233  7.50000000
   4.22049233  4.22049233  9.61024616
   6.33073849  2.11024616  9.61024616
   4.22217003  2.11225608 11.73795522
   6.32882408  4.22236449 11.73798131
   4.21777191  4.22509290 13.84970255
   6.33270760  2.11489220 13.85026030
   0.00000000  6.33073849  9.61024616
   2.11024616  0.00000000  9.61024616
   0.00000000  0.00000000  7.50000000
   2.11024616  6.33073849  7.50000000
   0.00431210  6.33402877 13.88218834
   2.10553489  0.00326953 13.88067041
   8.44015383  0.00157676 11.72763114
   2.11071088  6.33234164 11.72748807
   0.00000000  2.11024616  9.61024616
   2.11024616  4.22049233  9.61024616
   0.00000000  4.22049233  7.50000000
   2.11024616  2.11024616  7.50000000
   0.00431502  2.11355705 13.88221141
   2.10554612  4.22377370 13.88062175
   8.44013501  4.22206293 11.72780414
   2.11071255  2.11175930 11.72750901
   4.22049233  6.33073849  9.61024616
   6.33073849  0.00000000  9.61024616
   4.22049233  0.00000000  7.50000000
   6.33073849  6.33073849  7.50000000
   4.21771590  6.33416620 13.88620036
   6.33277728  0.00348422 13.88612120
   4.22044563  0.00179069 11.73262013
   6.33068769  6.33252310 11.73277841
   4.22049233  2.11024616  9.61024616
   6.33073849  4.22049233  9.61024616
   4.22049233  4.22049233  7.50000000
   6.33073849  2.11024616  7.50000000
   4.21770955  2.11373227 13.88622702
   6.33275619  4.22398786 13.88622398
   4.22049119  4.22228250 11.73246277
   6.33068572  2.11204422 11.73279402



--------------------------------------------------------------------------------------------------------

--------------------------------------- Iteration      FINAL  ---------------------------------------


--------------------OUTCAR has been truncated-------------------------


--------------------OUTCAR has been truncated-------------------------


--------------------OUTCAR has been truncated-------------------------


--------------------OUTCAR has been truncated-------------------------


--------------------OUTCAR has been truncated-------------------------


--------------------OUTCAR has been truncated-------------------------


--------------------OUTCAR has been truncated-------------------------


--------------------OUTCAR has been truncated-------------------------


--------------------OUTCAR has been truncated-------------------------


--------------------OUTCAR has been truncated-------------------------



  FORCE on cell =-STRESS in cart. coord.  units (eV):
  Direction    XX          YY          ZZ          XY          YZ          ZX
  --------------------------------------------------------------------------------------
  Alpha Z  1058.53846  1058.53846  1058.53846
  Ewald  144253.80883144074.64427************     0.26782   -45.00227     0.92201
  Hartree155204.12950155088.38790************     0.09242   -29.89624     0.65182
  E(xc)   -2661.49558 -2661.72479 -2669.08751    -0.00359    -0.09250     0.00040
  Local  ************************308981.79447    -0.30020    78.07751    -1.63434
  n-local -2893.17023 -2896.06666 -2917.26740    -0.00082    -0.60489     0.00288
  augment  1046.84198  1046.69486  1037.24839    -0.00047    -0.02227     0.00037
  Kinetic  8059.37525  8047.48018  8085.35096    -0.03078    -2.87017     0.19763
  Fock        0.00000     0.00000     0.00000     0.00000     0.00000     0.00000
  vdW       -25.05596   -25.00939   -20.57347    -0.00098     0.00702    -0.00217
  -------------------------------------------------------------------------------------
  Total     -25.16580   -26.02732    -2.28686     0.02342    -0.40381     0.13859
  in kB     -26.52951   -27.43771    -2.41078     0.02469    -0.42569     0.14610
  external pressure =      -18.79 kB  Pullay stress =        0.00 kB


 VOLUME and BASIS-vectors are now :
 -----------------------------------------------------------------------------
  energy-cutoff  :      600.00
  volume of cell :     1519.82
      direct lattice vectors                 reciprocal lattice vectors
     8.440984654  0.000000000  0.000000000     0.118469591  0.000000000  0.000000000
     0.000000000  8.440984654  0.000000000     0.000000000  0.118469591  0.000000000
     0.000000000  0.000000000 21.330738491     0.000000000  0.000000000  0.046880702

  length of vectors
     8.440984654  8.440984654 21.330738491     0.118469591  0.118469591  0.046880702


 FORCES acting on ions:
    Electron-Ion                     Ewald-Force                    Non-Local-Force
 -----------------------------------------------------------------------------------------------
   -.365E+02 -.196E+02 -.892E+03   0.364E+02 0.197E+02 0.892E+03   0.649E-01 -.166E+00 -.803E-01
   0.407E+02 0.194E+02 -.870E+03   -.410E+02 -.195E+02 0.870E+03   0.294E+00 0.735E-01 0.137E+00
   -.365E+02 -.196E+02 -.891E+03   0.364E+02 0.197E+02 0.892E+03   0.669E-01 -.166E+00 -.796E-01
   0.407E+02 0.194E+02 -.870E+03   -.410E+02 -.195E+02 0.870E+03   0.297E+00 0.753E-01 0.137E+00
   0.363E+02 -.195E+02 -.892E+03   -.362E+02 0.197E+02 0.892E+03   -.562E-01 -.155E+00 -.918E-01
   -.405E+02 0.194E+02 -.870E+03   0.408E+02 -.194E+02 0.870E+03   -.299E+00 0.775E-01 0.140E+00
   0.364E+02 -.195E+02 -.892E+03   -.363E+02 0.197E+02 0.892E+03   -.628E-01 -.152E+00 -.965E-01
   -.402E+02 0.198E+02 -.870E+03   0.404E+02 -.200E+02 0.870E+03   -.314E+00 0.508E-01 0.508E-01
   0.604E+01 -.395E+02 -.214E+03   -.689E+01 0.442E+02 0.211E+03   0.848E+00 -.471E+01 0.275E+01
   -.230E+02 0.271E+02 -.213E+03   0.256E+02 -.306E+02 0.210E+03   -.267E+01 0.356E+01 0.319E+01
   -.310E+02 -.110E+02 -.243E+03   0.345E+02 0.122E+02 0.248E+03   -.345E+01 -.120E+01 -.411E+01
   0.322E+02 0.963E+01 -.197E+03   -.356E+02 -.106E+02 0.193E+03   0.346E+01 0.946E+00 0.419E+01
   0.235E+02 -.260E+02 -.228E+03   -.262E+02 0.293E+02 0.231E+03   0.264E+01 -.334E+01 -.348E+01
   -.482E+01 0.401E+02 -.226E+03   0.568E+01 -.449E+02 0.228E+03   -.853E+00 0.476E+01 -.261E+01
   0.604E+01 -.395E+02 -.214E+03   -.689E+01 0.442E+02 0.211E+03   0.848E+00 -.471E+01 0.275E+01
   -.230E+02 0.271E+02 -.213E+03   0.256E+02 -.306E+02 0.210E+03   -.267E+01 0.356E+01 0.319E+01
   -.310E+02 -.110E+02 -.243E+03   0.345E+02 0.122E+02 0.248E+03   -.345E+01 -.120E+01 -.411E+01
   0.322E+02 0.964E+01 -.197E+03   -.356E+02 -.106E+02 0.193E+03   0.346E+01 0.947E+00 0.419E+01
   0.235E+02 -.260E+02 -.228E+03   -.262E+02 0.293E+02 0.231E+03   0.264E+01 -.334E+01 -.348E+01
   -.483E+01 0.401E+02 -.226E+03   0.568E+01 -.449E+02 0.228E+03   -.853E+00 0.476E+01 -.261E+01
   0.229E+02 0.273E+02 -.213E+03   -.255E+02 -.308E+02 0.210E+03   0.265E+01 0.357E+01 0.319E+01
   -.635E+01 -.394E+02 -.214E+03   0.724E+01 0.441E+02 0.211E+03   -.882E+00 -.470E+01 0.275E+01
   0.313E+02 -.112E+02 -.243E+03   -.348E+02 0.124E+02 0.248E+03   0.349E+01 -.122E+01 -.407E+01
   -.325E+02 0.965E+01 -.197E+03   0.360E+02 -.106E+02 0.193E+03   -.351E+01 0.951E+00 0.415E+01
   0.510E+01 0.401E+02 -.225E+03   -.599E+01 -.449E+02 0.228E+03   0.885E+00 0.476E+01 -.261E+01
   -.233E+02 -.260E+02 -.227E+03   0.258E+02 0.294E+02 0.231E+03   -.260E+01 -.334E+01 -.351E+01
   0.229E+02 0.273E+02 -.213E+03   -.255E+02 -.308E+02 0.210E+03   0.265E+01 0.357E+01 0.319E+01
   -.634E+01 -.394E+02 -.214E+03   0.723E+01 0.441E+02 0.211E+03   -.882E+00 -.470E+01 0.275E+01
   0.313E+02 -.112E+02 -.243E+03   -.348E+02 0.124E+02 0.248E+03   0.349E+01 -.122E+01 -.407E+01
   -.325E+02 0.968E+01 -.197E+03   0.360E+02 -.106E+02 0.193E+03   -.351E+01 0.947E+00 0.415E+01
   0.511E+01 0.401E+02 -.225E+03   -.599E+01 -.449E+02 0.228E+03   0.886E+00 0.476E+01 -.260E+01
   -.236E+02 -.264E+02 -.228E+03   0.263E+02 0.299E+02 0.231E+03   -.266E+01 -.342E+01 -.353E+01
   0.596E-01 -.229E-02 0.212E+04   -.617E-01 0.283E-02 -.211E+04   0.159E-02 -.412E-03 -.716E+01
   -.483E-01 0.149E-03 0.212E+04   0.502E-01 0.269E-03 -.211E+04   -.140E-02 -.334E-03 -.716E+01
   0.166E+00 0.183E-01 0.847E+03   -.187E+00 -.110E-01 -.847E+03   0.149E-01 -.486E-02 0.503E+00
   -.111E+00 0.671E-02 0.847E+03   0.129E+00 0.177E-02 -.847E+03   -.125E-01 -.573E-02 0.502E+00
   -.924E+00 -.735E-01 -.414E+03   0.871E+00 0.775E-01 0.414E+03   0.520E-01 -.867E-03 -.224E+00
   0.107E+01 -.139E-01 -.413E+03   -.103E+01 0.165E-01 0.414E+03   -.478E-01 -.142E-02 -.248E+00
   -.740E+01 0.989E+00 -.167E+04   0.753E+01 -.101E+01 0.167E+04   -.120E+00 0.194E-01 0.633E+01
   0.784E+01 0.997E+00 -.167E+04   -.795E+01 -.101E+01 0.166E+04   0.107E+00 0.210E-01 0.633E+01
   0.595E-01 0.331E-02 0.212E+04   -.616E-01 -.301E-02 -.211E+04   0.159E-02 -.259E-03 -.716E+01
   -.467E-01 0.821E-03 0.212E+04   0.485E-01 -.412E-03 -.211E+04   -.137E-02 -.328E-03 -.715E+01
   0.160E+00 0.199E-01 0.847E+03   -.181E+00 -.127E-01 -.847E+03   0.149E-01 -.482E-02 0.508E+00
   -.111E+00 0.319E-01 0.847E+03   0.129E+00 -.261E-01 -.847E+03   -.125E-01 -.383E-02 0.502E+00
   -.924E+00 0.536E-01 -.414E+03   0.871E+00 -.529E-01 0.414E+03   0.519E-01 -.175E-02 -.224E+00
   0.108E+01 -.116E-01 -.413E+03   -.103E+01 0.139E-01 0.414E+03   -.508E-01 -.136E-02 -.244E+00
   -.735E+01 0.975E+00 -.167E+04   0.747E+01 -.994E+00 0.167E+04   -.118E+00 0.205E-01 0.633E+01
   0.783E+01 0.118E+01 -.167E+04   -.795E+01 -.120E+01 0.166E+04   0.108E+00 0.208E-01 0.633E+01
   -.598E-01 -.356E-02 0.212E+04   0.622E-01 0.425E-02 -.211E+04   -.174E-02 -.534E-03 -.716E+01
   0.484E-01 0.539E-03 0.212E+04   -.506E-01 -.195E-04 -.211E+04   0.165E-02 -.414E-03 -.716E+01
   -.189E+00 0.148E-01 0.846E+03   0.205E+00 -.600E-02 -.846E+03   -.114E-01 -.579E-02 0.563E+00
   0.129E+00 -.274E-02 0.846E+03   -.143E+00 0.128E-01 -.846E+03   0.104E-01 -.663E-02 0.566E+00
   0.644E+00 -.538E-01 -.413E+03   -.593E+00 0.566E-01 0.413E+03   -.496E-01 -.646E-03 -.269E+00
   -.793E+00 0.276E-02 -.413E+03   0.747E+00 0.141E-03 0.413E+03   0.458E-01 -.224E-02 -.275E+00
   0.184E+01 -.650E+00 -.165E+04   -.190E+01 0.675E+00 0.165E+04   0.580E-01 -.226E-01 0.610E+01
   -.238E+01 -.723E+00 -.165E+04   0.244E+01 0.745E+00 0.165E+04   -.512E-01 -.202E-01 0.609E+01
   -.598E-01 0.520E-02 0.212E+04   0.621E-01 -.486E-02 -.211E+04   -.174E-02 -.285E-03 -.716E+01
   0.468E-01 0.109E-02 0.212E+04   -.490E-01 -.584E-03 -.211E+04   0.161E-02 -.405E-03 -.716E+01
   -.183E+00 0.172E-01 0.846E+03   0.199E+00 -.847E-02 -.847E+03   -.115E-01 -.574E-02 0.563E+00
   0.129E+00 0.349E-01 0.846E+03   -.144E+00 -.275E-01 -.846E+03   0.105E-01 -.489E-02 0.566E+00
   0.644E+00 0.532E-01 -.413E+03   -.594E+00 -.504E-01 0.413E+03   -.494E-01 -.362E-02 -.270E+00
   -.802E+00 0.178E-02 -.413E+03   0.752E+00 0.102E-02 0.413E+03   0.490E-01 -.211E-02 -.272E+00
   0.179E+01 -.651E+00 -.165E+04   -.185E+01 0.675E+00 0.165E+04   0.559E-01 -.224E-01 0.610E+01
   -.237E+01 -.655E+00 -.165E+04   0.243E+01 0.679E+00 0.165E+04   -.515E-01 -.229E-01 0.608E+01
   0.106E+00 0.444E-02 0.634E+03   -.100E+00 -.120E-01 -.634E+03   -.783E-02 0.100E-01 -.840E-01
   -.680E-01 0.127E-01 0.635E+03   0.636E-01 -.217E-01 -.634E+03   0.607E-02 0.120E-01 -.830E-01
   0.451E-01 -.499E-03 0.159E+04   -.474E-01 0.233E-03 -.159E+04   0.317E-02 0.394E-03 0.341E+01
   -.359E-01 -.259E-02 0.159E+04   0.379E-01 0.254E-02 -.159E+04   -.287E-02 0.906E-04 0.341E+01
   -.851E+01 -.922E+00 -.127E+04   0.840E+01 0.913E+00 0.127E+04   0.126E+00 0.120E-01 -.496E+01
   0.873E+01 -.967E+00 -.127E+04   -.862E+01 0.955E+00 0.127E+04   -.126E+00 0.157E-01 -.496E+01
   -.636E+00 0.112E-01 -.304E+03   0.640E+00 -.135E-01 0.304E+03   -.284E-02 0.305E-02 0.344E+00
   0.738E+00 -.924E-02 -.304E+03   -.739E+00 0.976E-02 0.304E+03   -.568E-03 -.103E-02 0.343E+00
   0.105E+00 0.239E-01 0.634E+03   -.997E-01 -.347E-01 -.634E+03   -.784E-02 0.143E-01 -.841E-01
   -.553E-01 0.149E-01 0.635E+03   0.513E-01 -.240E-01 -.634E+03   0.541E-02 0.120E-01 -.803E-01
   0.446E-01 -.667E-04 0.159E+04   -.469E-01 -.209E-03 -.159E+04   0.319E-02 0.408E-03 0.341E+01
   -.359E-01 0.206E-02 0.159E+04   0.380E-01 -.254E-02 -.159E+04   -.287E-02 0.695E-03 0.341E+01
   -.851E+01 -.854E+00 -.127E+04   0.840E+01 0.839E+00 0.127E+04   0.127E+00 0.200E-01 -.496E+01
   0.874E+01 -.973E+00 -.127E+04   -.863E+01 0.960E+00 0.127E+04   -.125E+00 0.167E-01 -.496E+01
   -.638E+00 0.106E-01 -.304E+03   0.641E+00 -.132E-01 0.304E+03   -.160E-02 0.351E-02 0.344E+00
   0.737E+00 0.371E-01 -.304E+03   -.738E+00 -.430E-01 0.304E+03   -.444E-03 0.826E-02 0.343E+00
   -.116E+00 0.429E-03 0.634E+03   0.106E+00 -.108E-01 -.634E+03   0.134E-01 0.138E-01 -.126E+00
   0.746E-01 0.195E-01 0.634E+03   -.634E-01 -.307E-01 -.634E+03   -.153E-01 0.148E-01 -.129E+00
   -.452E-01 -.753E-03 0.159E+04   0.477E-01 0.411E-03 -.159E+04   -.363E-02 0.501E-03 0.341E+01
   0.360E-01 -.333E-02 0.159E+04   -.383E-01 0.319E-02 -.159E+04   0.320E-02 0.221E-03 0.341E+01
   0.399E+01 0.297E+00 -.126E+04   -.389E+01 -.264E+00 0.127E+04   -.107E+00 -.323E-01 -.489E+01
   -.417E+01 0.372E+00 -.126E+04   0.408E+01 -.343E+00 0.127E+04   0.962E-01 -.282E-01 -.488E+01
   0.464E+00 -.861E-03 -.305E+03   -.468E+00 0.861E-03 0.305E+03   0.264E-02 0.615E-03 0.181E+00
   -.569E+00 -.272E-01 -.305E+03   0.571E+00 0.291E-01 0.305E+03   -.104E-02 -.175E-02 0.173E+00
   -.116E+00 0.400E-01 0.634E+03   0.106E+00 -.520E-01 -.634E+03   0.134E-01 0.158E-01 -.126E+00
   0.626E-01 0.208E-01 0.634E+03   -.520E-01 -.319E-01 -.634E+03   -.144E-01 0.147E-01 -.126E+00
   -.447E-01 -.282E-03 0.159E+04   0.473E-01 -.710E-04 -.159E+04   -.364E-02 0.518E-03 0.341E+01
   0.360E-01 0.230E-02 0.159E+04   -.383E-01 -.286E-02 -.159E+04   0.320E-02 0.795E-03 0.341E+01
   0.399E+01 0.377E+00 -.126E+04   -.389E+01 -.352E+00 0.127E+04   -.107E+00 -.234E-01 -.489E+01
   -.418E+01 0.366E+00 -.126E+04   0.409E+01 -.338E+00 0.127E+04   0.950E-01 -.267E-01 -.488E+01
   0.462E+00 0.840E-03 -.305E+03   -.465E+00 -.931E-03 0.305E+03   0.241E-03 0.749E-03 0.176E+00
   -.569E+00 0.242E-01 -.305E+03   0.571E+00 -.267E-01 0.305E+03   -.121E-02 0.370E-02 0.173E+00
 -----------------------------------------------------------------------------------------------
   0.904E-01 0.364E+00 0.165E+02   -.171E-12 -.853E-13 0.387E-11   -.907E-01 -.358E+00 -.165E+02


 POSITION                                       TOTAL-FORCE (eV/Angst)
 -----------------------------------------------------------------------------------
      3.80087      4.20324     16.96417         0.000447     -0.001026     -0.000475
      2.49535      3.58897     17.46405         0.002182     -0.002452     -0.001932
      3.80089      8.42376     16.96422         0.000391     -0.001679     -0.001091
      2.49533      7.80946     17.46403         0.003204     -0.001569     -0.001905
      6.68564      6.31369     16.95714         0.001511      0.000351      0.000032
      7.98535      5.69985     17.47230        -0.001974     -0.003340     -0.002740
      6.68564      2.09319     16.95715        -0.002833     -0.005335     -0.007020
      7.98536      1.47936     17.47231        -0.074551     -0.102465     -0.145388
      3.62577      5.13659     16.41099        -0.006384     -0.002941      0.002170
      4.33091      3.50158     16.30253         0.000589     -0.004123      0.002726
      4.48420      4.43820     17.79101         0.001603     -0.001474     -0.002868
      1.81060      3.39322     16.62813         0.001143     -0.005240      0.000589
      1.97554      4.25973     18.16137         0.003214     -0.000153     -0.003242
      2.67332      2.63895     17.98560         0.001671     -0.004352     -0.003467
      3.62569      0.91621     16.41124        -0.005544     -0.003994      0.000141
      4.33086      7.72189     16.30273         0.000379     -0.001953      0.001139
      4.48447      0.21786     17.79083         0.000015     -0.002390     -0.001419
      1.81046      7.61356     16.62825         0.002293     -0.004258      0.000019
      1.97550      0.03941     18.16117         0.003226     -0.002051     -0.002063
      2.67340      6.85936     17.98537         0.000911     -0.003619     -0.001486
      6.16035      5.60949     16.29448        -0.000621     -0.002079     -0.000233
      6.86769      7.24465     16.40168         0.005709     -0.004154      0.001318
      5.99459      6.55429     17.77575         0.000386     -0.003886     -0.000736
      0.23828      5.50319     16.64431        -0.001946     -0.004545      0.000640
      7.80111      4.75033     17.99269        -0.000164     -0.002577     -0.002541
      0.05647      6.37144     18.17457        -0.001554     -0.000230     -0.003311
      6.16040      1.38899     16.29445        -0.002476     -0.000709      0.000478
      6.86768      3.02413     16.40165         0.006050     -0.004039      0.001367
      5.99461      2.33383     17.77576         0.000277     -0.003608     -0.000094
      0.23821      1.28272     16.64425        -0.012479     -0.019481     -0.013742
      7.80112      0.52984     17.99270         0.007155      0.006467      0.006672
      0.05649      2.15090     18.16461         0.080456      0.108638      0.149737
      0.00000      6.33074      7.50000        -0.000533      0.000070      0.335096
      2.11025      0.00000      7.50000         0.000484      0.000033      0.335111
      0.00000      0.00000      9.61025        -0.006281      0.002295      0.077050
      2.11025      6.33074      9.61025         0.005311      0.002629      0.076147
      8.43959      6.33215     11.73368        -0.001249      0.002927     -0.001359
      2.11137      0.00153     11.73346         0.000001      0.001006     -0.000325
      0.00084      0.00283     13.83172        -0.001467      0.002103     -0.002505
      2.10913      6.33336     13.83137         0.000961      0.004466     -0.002496
      0.00000      2.11025      7.50000        -0.000534     -0.000009      0.335096
      2.11025      4.22049      7.50000         0.000477      0.000031      0.334914
      0.00000      4.22049      9.61025        -0.006240      0.002274      0.076253
      2.11025      2.11025      9.61025         0.005316      0.001854      0.076220
      8.43959      2.11194     11.73369        -0.001217     -0.001148     -0.001166
      2.11147      4.22203     11.73339        -0.000195      0.000875     -0.000879
      0.00093      4.22334     13.83162        -0.003624      0.001253     -0.001778
      2.10913      2.11321     13.83138         0.000791     -0.001093     -0.002337
      4.22049      6.33074      7.50000         0.000572      0.000082      0.336394
      6.33074      0.00000      7.50000        -0.000535      0.000030      0.336582
      4.22049      0.00000      9.61025         0.004298      0.002867      0.087753
      6.33074      6.33074      9.61025        -0.004029      0.003233      0.087886
      4.22217      6.33248     11.73794         0.001845      0.002063     -0.003996
      6.32889      0.00188     11.73812        -0.001159      0.000645     -0.004625
      4.21785      0.00459     13.84922        -0.000246      0.001727      0.000287
      6.33271      6.33526     13.85025        -0.001108      0.002153     -0.000589
      4.22049      2.11025      7.50000         0.000573     -0.000017      0.336398
      6.33074      4.22049      7.50000        -0.000525      0.000027      0.336408
      4.22049      4.22049      9.61025         0.004321      0.002839      0.086581
      6.33074      2.11025      9.61025        -0.004034      0.002461      0.087914
      4.22217      2.11226     11.73796         0.001800     -0.000844     -0.003946
      6.32882      4.22236     11.73798        -0.001221      0.000673     -0.003015
      4.21777      4.22509     13.84970         0.001784      0.001444     -0.003082
      6.33271      2.11489     13.85026        -0.000909      0.001098      0.000134
      0.00000      6.33074      9.61025        -0.001959      0.002406      0.078926
      2.11025      0.00000      9.61025         0.001521      0.002920      0.078160
      0.00000      0.00000      7.50000         0.000918      0.000060     -0.497205
      2.11025      6.33074      7.50000        -0.000827     -0.000026     -0.497108
      0.00431      6.33403     13.88219         0.001073      0.000852      0.001918
      2.10553      0.00327     13.88067        -0.001887      0.001471      0.001506
      8.44015      0.00158     11.72763         0.001399      0.000710      0.002750
      2.11071      6.33234     11.72749        -0.001462     -0.000555      0.001874
      0.00000      2.11025      9.61025        -0.001961      0.003505      0.078948
      2.11025      4.22049      9.61025         0.001238      0.002908      0.078604
      0.00000      4.22049      7.50000         0.000923      0.000065     -0.497104
      2.11025      2.11025      7.50000        -0.000828      0.000146     -0.497109
      0.00432      2.11356     13.88221         0.001118      0.002490      0.001211
      2.10555      4.22377     13.88062        -0.001733      0.001632      0.002307
      8.44014      4.22206     11.72780         0.002038      0.000899      0.000713
      2.11071      2.11176     11.72751        -0.001431      0.002315      0.001622
      4.22049      6.33074      9.61025         0.003516      0.003396      0.087727
      6.33074      0.00000      9.61025        -0.003990      0.003583      0.087622
      4.22049      0.00000      7.50000        -0.001053      0.000092     -0.498317
      6.33074      6.33074      7.50000         0.000932      0.000012     -0.498314
      4.21772      6.33417     13.88620        -0.000742      0.000694      0.002923
      6.33278      0.00348     13.88612        -0.000019      0.001192      0.003020
      4.22045      0.00179     11.73262        -0.001582      0.000515      0.001187
      6.33069      6.33252     11.73278         0.001292      0.000078      0.002531
      4.22049      2.11025      9.61025         0.003519      0.003753      0.087751
      6.33074      4.22049      9.61025        -0.003641      0.003559      0.087717
      4.22049      4.22049      7.50000        -0.001055      0.000098     -0.498198
      6.33074      2.11025      7.50000         0.000933      0.000176     -0.498316
      4.21771      2.11373     13.88623        -0.000782      0.002099      0.002612
      6.33276      4.22399     13.88622         0.000007      0.001502      0.002757
      4.22049      4.22228     11.73246        -0.002450      0.000559      0.003496
      6.33069      2.11204     11.73279         0.001256      0.001111      0.002386
 -----------------------------------------------------------------------------------
    total drift:                               -0.000257      0.006425      0.004110


--------------------------------------------------------------------------------------------------------



  FREE ENERGIE OF THE ION-ELECTRON SYSTEM (eV)
  ---------------------------------------------------
  free  energy   TOTEN  =      -534.87495012 eV

  energy  without entropy=     -534.87495012  energy(sigma->0) =     -534.87495012

 d Force = 0.4845463E-04[-0.299E-02, 0.309E-02]  d Energy = 0.6594202E-04-0.175E-04
 d Force =-0.4618304E+01[-0.463E+01,-0.461E+01]  d Ewald  =-0.4618361E+01 0.569E-04


--------------------------------------------------------------------------------------------------------


    POTLOK:  cpu time      0.6999: real time      0.6999


--------------------------------------------------------------------------------------------------------


 Finite differences progress:
  Degree of freedom:  96/ 96
  Displacement:        2/  2
  Total:             192/192

 SECOND DERIVATIVES (NOT SYMMETRIZED)
 ------------------------------------
               1X          1Y          1Z          2X          2Y          2Z          3X          3Y          3Z          4X          4Y          4Z          5X          5Y          5Z          6X          6Y          6Z          7X          7Y          7Z          8X          8Y          8Z          9X          9Y          9Z         10X         10Y         10Z         11X         11Y         11Z         12X         12Y         12Z         13X         13Y         13Z         14X         14Y         14Z         15X         15Y         15Z         16X         16Y         16Z         17X         17Y         17Z         18X         18Y         18Z         19X         19Y         19Z         20X         20Y         20Z         21X         21Y         21Z         22X         22Y         22Z         23X         23Y         23Z         24X         24Y         24Z         25X         25Y         25Z         26X         26Y         26Z         27X         27Y         27Z         28X         28Y         28Z         29X         29Y         29Z         30X         30Y         30Z         31X         31Y         31Z         32X         32Y         32Z 
  1X   -46.217268    2.414544   -2.570116   15.668276    4.066542   -3.275921    0.024925   -0.004520   -0.032576    0.017052    0.017995   -0.004664    0.060901   -0.028352   -0.081420   -0.004167    0.041779   -0.000917    0.057787   -0.005939    0.033427   -0.031391   -0.001215   -0.015869    4.891062   -3.790340    2.099245    9.284673   -7.492822   -6.572835   13.257335    3.119480   11.469996    1.826862    0.841333   -0.714961    1.384465    0.695999   -0.427432   -0.401143   -0.150937    0.145191   -0.020580   -0.013563    0.026237   -0.003404   -0.013874    0.008291   -0.003623    0.008043   -0.000099   -0.002240   -0.007247   -0.000926    0.007362   -0.001064   -0.006598   -0.011940   -0.026913   -0.004729    0.049765    0.091738    0.048290    0.016739    0.014403    0.026485   -0.007347    0.012092   -0.011529   -0.001119    0.000390    0.012848    0.003187   -0.014413    0.003897    0.012853   -0.008607    0.003035   -0.012792   -0.007646   -0.001329   -0.004696   -0.013088    0.017616    0.052895   -0.043861   -0.018216    0.003189   -0.003874    0.007568    0.005629   -0.003593   -0.000851    0.019468    0.001128   -0.006154
  1Y     2.420301  -50.703927   -0.862832    4.054776    8.872159   -1.558231   -0.003603   -0.024869   -0.000131    0.017079   -0.027542    0.014195    0.003385    0.063583   -0.023951   -0.038530    0.008244   -0.015974    0.032444    0.061805   -0.086193    0.002774   -0.026651    0.052411   -3.792793   21.762035  -10.133298   -7.380272   14.444910    8.990913    3.113612    5.183046    3.898335    0.549345    0.338586   -0.193883   -1.658594   -0.880506    0.554543    2.508571    1.035414   -0.820820    0.008720    0.014451   -0.006094    0.017311    0.018370   -0.001339    0.001016   -0.010647   -0.005118   -0.014039    0.008044   -0.003924   -0.010860   -0.011431   -0.002236   -0.024752    0.062617    0.020998    0.054892   -0.001231    0.006317    0.014283    0.009359    0.001818    0.019922   -0.000754   -0.017551   -0.007410   -0.012881    0.012720    0.025577    0.011422   -0.008430    0.000151   -0.010135    0.004864   -0.000918    0.010246    0.011968   -0.021492   -0.021896    0.004588   -0.051243    0.004621    0.046021   -0.015811   -0.000266   -0.017039    0.007600   -0.006879   -0.002374    0.001031    0.024980    0.006582
  1Z    -2.574014   -0.869301  -50.552757   -3.222446   -1.578899    8.342471   -0.033430    0.001048   -0.008866   -0.008434    0.011156    0.080223   -0.028968   -0.085705    0.050583    0.002223   -0.008877    0.020321    0.084657   -0.023168    0.054851    0.013392    0.041763   -0.004489    2.104712  -10.248148   10.267134   -6.773528    9.343328   12.743911   11.539772    3.926634   18.566749    2.033582    0.980319   -0.903179   -1.740182   -0.950769    0.669696   -1.414863   -0.563844    0.559612    0.024219    0.035507    0.017991   -0.022925   -0.031924    0.013915    0.002075    0.015603    0.004366    0.011324   -0.021812    0.004311    0.002879    0.041157   -0.004721   -0.006609    0.023000   -0.061837   -0.037339   -0.030119   -0.057001   -0.046216   -0.020143    0.009320   -0.003794    0.052389    0.023892    0.003345    0.011244    0.002127    0.016389   -0.001952    0.007616    0.004700   -0.012333   -0.009333   -0.026681    0.042080    0.026941   -0.030570   -0.009278   -0.000824    0.013407   -0.039014   -0.043726    0.012135   -0.030132   -0.012060    0.023628    0.002762   -0.001072    0.010004   -0.006994    0.024107
  2X    15.668332    4.059190   -3.227542  -46.134028    2.936116   -2.167383    0.019156    0.016375   -0.007192    0.033821   -0.007278   -0.035407   -0.033122   -0.005585   -0.013004    0.050591    0.005713    0.024960   -0.006629    0.038969   -0.001834    0.052822   -0.035148   -0.066882   -0.422723   -0.109219    0.126564    1.448432    0.707809   -0.567928    1.711600    0.762856   -0.809806   13.300422    2.452892   11.594382    9.265262   -7.057794   -7.109821    4.934562   -3.828323    2.095833   -0.008359   -0.018239   -0.005731    0.004069    0.001635   -0.002924   -0.002499   -0.004885   -0.000643   -0.002576    0.008449   -0.000954   -0.007904   -0.009702    0.018565   -0.025006   -0.006797    0.026962    0.020797    0.005278   -0.006706    0.004737   -0.003283   -0.002308    0.002440   -0.002702    0.005893    0.040926   -0.030328   -0.013816   -0.004508   -0.014768    0.019815   -0.011285   -0.011976   -0.002528    0.013509   -0.008830    0.006201    0.001745   -0.010673    0.003534    0.000761    0.000126    0.011830   -0.001856    0.011024   -0.017159    0.014587    0.013234    0.019039    0.040485    0.083404    0.061052
  2Y     4.061951    8.871459   -1.581067    2.941595  -50.673900   -0.878927    0.018461   -0.025543    0.011639   -0.008042   -0.020206    0.004010   -0.000655   -0.027267    0.042931    0.038121    0.057996   -0.069188   -0.039902    0.008100   -0.009730   -0.005996    0.059902   -0.019509    2.456106    0.999366   -0.840919   -1.679487   -0.899043    0.625207    0.536190    0.340621   -0.269940    2.536106    4.942394    3.345889   -7.026827   13.741342    9.606607   -3.866348   22.486045   -9.882572   -0.022539    0.052892    0.029250   -0.008162   -0.018648   -0.010246   -0.023275    0.011289   -0.005102   -0.001399   -0.013806   -0.009136    0.027101    0.019086   -0.008123    0.009867    0.013393   -0.007829    0.003085    0.029818    0.008771    0.009250   -0.006830    0.000879   -0.011816   -0.000891   -0.016804   -0.037249    0.000329    0.040786   -0.022446   -0.033073    0.005233   -0.000362    0.014904    0.004913   -0.001880   -0.005832    0.004079    0.025408    0.010002   -0.014095   -0.009542   -0.016370    0.011987    0.020478    0.000744   -0.011308    0.013270    0.014406    0.002192    0.047593   -0.005969    0.013457
  2Z    -3.270327   -1.555846    8.339955   -2.172304   -0.892932  -51.189558   -0.005702    0.014576    0.078619   -0.037261    0.004339    0.000533    0.016110    0.050865   -0.006668    0.071533   -0.021183    0.039205   -0.000067   -0.014319    0.018977   -0.019953   -0.069851    0.034412   -1.421535   -0.531431    0.551809   -1.696238   -0.909548    0.724604    2.008799    0.947114   -0.938777   11.630399    3.263993   18.683970   -7.169864    9.729331   14.019668    2.145697  -10.011585    9.674031   -0.007317    0.022217   -0.056448   -0.000035    0.036112   -0.003114    0.011962   -0.018148    0.001973    0.001770    0.013175    0.006578   -0.022690   -0.019176    0.010958    0.027683    0.027536    0.008122    0.008131   -0.003341    0.035414    0.026584    0.005178   -0.001120    0.009460   -0.032380   -0.016831    0.010523   -0.032109   -0.031009   -0.027927   -0.011797   -0.007986   -0.022421    0.045697    0.024927    0.004538   -0.011243   -0.008017    0.014265   -0.000386    0.011033    0.001815    0.016655   -0.003206    0.002429    0.049793    0.023303   -0.042700   -0.022353    0.010085   -0.024238   -0.019884   -0.050687
[...]
      0.000843  0.002833 13.831724            0           0           0  
      2.109128  6.333358 13.831372            0           0           0  
      0.000000  2.110246  7.500000            0           0           0  
      2.110246  4.220492  7.500000            0           0           0  
      0.000000  4.220492  9.610246            0           0           0  
      2.110246  2.110246  9.610246            0           0           0  
      8.439594  2.111943 11.733693            0           0           0  
      2.111473  4.222031 11.733388            0           0           0  
      0.000932  4.223341 13.831621            0           0           0  
      2.109126  2.113214 13.831377            0           0           0  
      4.220492  6.330738  7.500000            0           0           0  
      6.330738  0.000000  7.500000            0           0           0  
      4.220492  0.000000  9.610246            0           0           0  
      6.330738  6.330738  9.610246            0           0           0  
      4.222171  6.332484 11.737944            0           0           0  
      6.328893  0.001879 11.738119            0           0           0  
      4.217853  0.004586 13.849223            0           0           0  
      6.332711  6.335259 13.850250            0           0           0  
      4.220492  2.110246  7.500000            0           0           0  
      6.330738  4.220492  7.500000            0           0           0  
      4.220492  4.220492  9.610246            0           0           0  
      6.330738  2.110246  9.610246            0           0           0  
      4.222170  2.112256 11.737955            0           0           0  
      6.328824  4.222364 11.737981            0           0           0  
      4.217772  4.225093 13.849703            0           0           0  
      6.332708  2.114892 13.850260            0           0           0  
      0.000000  6.330738  9.610246            0           0           0  
      2.110246  0.000000  9.610246            0           0           0  
      0.000000  0.000000  7.500000            0           0           0  
      2.110246  6.330738  7.500000            0           0           0  
      0.004312  6.334029 13.882188            0           0           0  
      2.105535  0.003270 13.880670            0           0           0  
      8.440154  0.001577 11.727631            0           0           0  
      2.110711  6.332342 11.727488            0           0           0  
      0.000000  2.110246  9.610246            0           0           0  
      2.110246  4.220492  9.610246            0           0           0  
      0.000000  4.220492  7.500000            0           0           0  
      2.110246  2.110246  7.500000            0           0           0  
      0.004315  2.113557 13.882211            0           0           0  
      2.105546  4.223774 13.880622            0           0           0  
      8.440135  4.222063 11.727804            0           0           0  
      2.110713  2.111759 11.727509            0           0           0  
      4.220492  6.330738  9.610246            0           0           0  
      6.330738  0.000000  9.610246            0           0           0  
      4.220492  0.000000  7.500000            0           0           0  
      6.330738  6.330738  7.500000            0           0           0  
      4.217716  6.334166 13.886200            0           0           0  
      6.332777  0.003484 13.886121            0           0           0  
      4.220446  0.001791 11.732620            0           0           0  
      6.330688  6.332523 11.732778            0           0           0  
      4.220492  2.110246  9.610246            0           0           0  
      6.330738  4.220492  9.610246            0           0           0  
      4.220492  4.220492  7.500000            0           0           0  
      6.330738  2.110246  7.500000            0           0           0  
      4.217710  2.113732 13.886227            0           0           0  
      6.332756  4.223988 13.886224            0           0           0  
      4.220491  4.222283 11.732463            0           0           0  
      6.330686  2.112044 11.732794            0           0           0  

  95 f  =    0.903573 THz     5.677314 2PiTHz   30.139939 cm-1     3.736874 meV
             X         Y         Z           dx          dy          dz
      3.800874  4.203240 16.964167     0.046299   -0.297340   -0.032195  
      2.495346  3.588972 17.464045     0.054970   -0.317956   -0.033615  
      3.800891  8.423758 16.964218     0.048492   -0.299960   -0.033408  
      2.495334  7.809463 17.464028     0.055376   -0.315942   -0.033745  
      6.685637  6.313689 16.957141     0.058547   -0.300473   -0.025351  
      7.985353  5.699849 17.472300     0.057510   -0.320251   -0.044870  
      6.685640  2.093194 16.957148     0.058360   -0.300880   -0.026070  
      7.985358  1.479360 17.472306     0.057121   -0.319376   -0.043552  
      3.625773  5.136589 16.410987     0.008164   -0.079259    0.002980  
      4.330911  3.501575 16.302529     0.009640   -0.077979   -0.020332  
      4.484200  4.438203 17.791010     0.016854   -0.093646   -0.009997  
      1.810601  3.393222 16.628131     0.011398   -0.083877   -0.008017  
      1.975539  4.259728 18.161365     0.018008   -0.098840   -0.001157  
      2.673323  2.638955 17.985605     0.018656   -0.096550   -0.019598  
      3.625689  0.916213 16.411238     0.009633   -0.079818    0.002686  
      4.330864  7.721886 16.302728     0.009388   -0.079290   -0.020799  
      4.484474  0.217858 17.790831     0.017904   -0.095088   -0.010502  
      1.810460  7.613565 16.628251     0.011202   -0.082792   -0.007918  
      1.975497  0.039411 18.161169     0.018872   -0.097656   -0.001212  
      2.673396  6.859360 17.985371     0.017962   -0.096051   -0.019511  
      6.160353  5.609494 16.294477     0.019562   -0.078534   -0.017856  
      6.867686  7.244646 16.401676     0.019365   -0.079294    0.005679  
      5.994593  6.554293 17.775751     0.015864   -0.096453   -0.005337  
      0.238277  5.503189 16.644307     0.018405   -0.083056   -0.013828  
      7.801109  4.750327 17.992692     0.016380   -0.098091   -0.023601  
      0.056466  6.371440 18.174570     0.016208   -0.100190   -0.005144  
      6.160399  1.388989 16.294451     0.020013   -0.078873   -0.018225  
      6.867675  3.024134 16.401650     0.019318   -0.079415    0.005465  
      5.994612  2.333829 17.775762     0.015387   -0.096684   -0.005865  
      0.238213  1.282719 16.644252     0.018633   -0.082769   -0.013165  
      7.801117  0.529841 17.992702     0.016288   -0.097816   -0.023167  
      0.056492  2.150902 18.174612     0.015691   -0.099737   -0.004661  
      0.000000  6.330738  7.500000            0           0           0  
      2.110246  0.000000  7.500000            0           0           0  
      0.000000  0.000000  9.610246            0           0           0  
      2.110246  6.330738  9.610246            0           0           0  
      8.439593  6.332149 11.733685            0           0           0  
      2.111369  0.001534 11.733459            0           0           0  
      0.000843  0.002833 13.831724            0           0           0  
      2.109128  6.333358 13.831372            0           0           0  
      0.000000  2.110246  7.500000            0           0           0  
      2.110246  4.220492  7.500000            0           0           0  
      0.000000  4.220492  9.610246            0           0           0  
      2.110246  2.110246  9.610246            0           0           0  
      8.439594  2.111943 11.733693            0           0           0  
      2.111473  4.222031 11.733388            0           0           0  
      0.000932  4.223341 13.831621            0           0           0  
      2.109126  2.113214 13.831377            0           0           0  
      4.220492  6.330738  7.500000            0           0           0  
      6.330738  0.000000  7.500000            0           0           0  
      4.220492  0.000000  9.610246            0           0           0  
      6.330738  6.330738  9.610246            0           0           0  
      4.222171  6.332484 11.737944            0           0           0  
      6.328893  0.001879 11.738119            0           0           0  
      4.217853  0.004586 13.849223            0           0           0  
      6.332711  6.335259 13.850250            0           0           0  
      4.220492  2.110246  7.500000            0           0           0  
      6.330738  4.220492  7.500000            0           0           0  
      4.220492  4.220492  9.610246            0           0           0  
      6.330738  2.110246  9.610246            0           0           0  
      4.222170  2.112256 11.737955            0           0           0  
      6.328824  4.222364 11.737981            0           0           0  
      4.217772  4.225093 13.849703            0           0           0  
      6.332708  2.114892 13.850260            0           0           0  
      0.000000  6.330738  9.610246            0           0           0  
      2.110246  0.000000  9.610246            0           0           0  
      0.000000  0.000000  7.500000            0           0           0  
      2.110246  6.330738  7.500000            0           0           0  
      0.004312  6.334029 13.882188            0           0           0  
      2.105535  0.003270 13.880670            0           0           0  
      8.440154  0.001577 11.727631            0           0           0  
      2.110711  6.332342 11.727488            0           0           0  
      0.000000  2.110246  9.610246            0           0           0  
      2.110246  4.220492  9.610246            0           0           0  
      0.000000  4.220492  7.500000            0           0           0  
      2.110246  2.110246  7.500000            0           0           0  
      0.004315  2.113557 13.882211            0           0           0  
      2.105546  4.223774 13.880622            0           0           0  
      8.440135  4.222063 11.727804            0           0           0  
      2.110713  2.111759 11.727509            0           0           0  
      4.220492  6.330738  9.610246            0           0           0  
      6.330738  0.000000  9.610246            0           0           0  
      4.220492  0.000000  7.500000            0           0           0  
      6.330738  6.330738  7.500000            0           0           0  
      4.217716  6.334166 13.886200            0           0           0  
      6.332777  0.003484 13.886121            0           0           0  
      4.220446  0.001791 11.732620            0           0           0  
      6.330688  6.332523 11.732778            0           0           0  
      4.220492  2.110246  9.610246            0           0           0  
      6.330738  4.220492  9.610246            0           0           0  
      4.220492  4.220492  7.500000            0           0           0  
      6.330738  2.110246  7.500000            0           0           0  
      4.217710  2.113732 13.886227            0           0           0  
      6.332756  4.223988 13.886224            0           0           0  
      4.220491  4.222283 11.732463            0           0           0  
      6.330686  2.112044 11.732794            0           0           0  

  96 f  =    0.588377 THz     3.696885 2PiTHz   19.626160 cm-1     2.433333 meV
             X         Y         Z           dx          dy          dz
      3.800874  4.203240 16.964167     0.306268    0.060400   -0.037981  
      2.495346  3.588972 17.464045     0.314556    0.072331   -0.002830  
      3.800891  8.423758 16.964218     0.301048    0.060629   -0.036279  
      2.495334  7.809463 17.464028     0.312862    0.066440    0.000448  
      6.685637  6.313689 16.957141     0.300911    0.046945    0.041753  
      7.985353  5.699849 17.472300     0.315903    0.045875    0.003304  
      6.685640  2.093194 16.957148     0.303832    0.040226    0.040852  
      7.985358  1.479360 17.472306     0.320726    0.045096    0.004720  
      3.625773  5.136589 16.410987     0.086559    0.016348   -0.012780  
      4.330911  3.501575 16.302529     0.084743    0.014560   -0.010907  
      4.484200  4.438203 17.791010     0.093753    0.019699   -0.016213  
      1.810601  3.393222 16.628131     0.084218    0.023084    0.004129  
      1.975539  4.259728 18.161365     0.097863    0.022467    0.002968  
      2.673323  2.638955 17.985605     0.092358    0.020542   -0.001973  
      3.625689  0.916213 16.411238     0.083660    0.016192   -0.012198  
      4.330864  7.721886 16.302728     0.083875    0.015343   -0.010660  
      4.484474  0.217858 17.790831     0.092226    0.020584   -0.015950  
      1.810460  7.613565 16.628251     0.083572    0.020628    0.005384  
      1.975497  0.039411 18.161169     0.096847    0.019977    0.004274  
      2.673396  6.859360 17.985371     0.093328    0.018983   -0.001279  
      6.160353  5.609494 16.294477     0.081849    0.013220    0.016234  
      6.867686  7.244646 16.401676     0.081981    0.012669    0.009623  
      5.994593  6.554293 17.775751     0.093711    0.013287    0.018104  
      0.238277  5.503189 16.644307     0.083171    0.010794   -0.005216  
      7.801109  4.750327 17.992692     0.095147    0.014226    0.004217  
      0.056466  6.371440 18.174570     0.098256    0.013831   -0.004870  
      6.160399  1.388989 16.294451     0.083835    0.010480    0.015916  
      6.867675  3.024134 16.401650     0.081982    0.010838    0.009240  
      5.994612  2.333829 17.775762     0.093989    0.010750    0.017540  
      0.238213  1.282719 16.644252     0.085055    0.010953   -0.004488  
      7.801117  0.529841 17.992702     0.097426    0.014032    0.004998  
      0.056492  2.150902 18.174612     0.098667    0.014503   -0.004595  
      0.000000  6.330738  7.500000            0           0           0  
      2.110246  0.000000  7.500000            0           0           0  
      0.000000  0.000000  9.610246            0           0           0  
      2.110246  6.330738  9.610246            0           0           0  
      8.439593  6.332149 11.733685            0           0           0  
      2.111369  0.001534 11.733459            0           0           0  
      0.000843  0.002833 13.831724            0           0           0  
      2.109128  6.333358 13.831372            0           0           0  
      0.000000  2.110246  7.500000            0           0           0  
      2.110246  4.220492  7.500000            0           0           0  
      0.000000  4.220492  9.610246            0           0           0  
      2.110246  2.110246  9.610246            0           0           0  
      8.439594  2.111943 11.733693            0           0           0  
      2.111473  4.222031 11.733388            0           0           0  
      0.000932  4.223341 13.831621            0           0           0  
      2.109126  2.113214 13.831377            0           0           0  
      4.220492  6.330738  7.500000            0           0           0  
      6.330738  0.000000  7.500000            0           0           0  
      4.220492  0.000000  9.610246            0           0           0  
      6.330738  6.330738  9.610246            0           0           0  
      4.222171  6.332484 11.737944            0           0           0  
      6.328893  0.001879 11.738119            0           0           0  
      4.217853  0.004586 13.849223            0           0           0  
      6.332711  6.335259 13.850250            0           0           0  
      4.220492  2.110246  7.500000            0           0           0  
      6.330738  4.220492  7.500000            0           0           0  
      4.220492  4.220492  9.610246            0           0           0  
      6.330738  2.110246  9.610246            0           0           0  
      4.222170  2.112256 11.737955            0           0           0  
      6.328824  4.222364 11.737981            0           0           0  
      4.217772  4.225093 13.849703            0           0           0  
      6.332708  2.114892 13.850260            0           0           0  
      0.000000  6.330738  9.610246            0           0           0  
      2.110246  0.000000  9.610246            0           0           0  
      0.000000  0.000000  7.500000            0           0           0  
      2.110246  6.330738  7.500000            0           0           0  
      0.004312  6.334029 13.882188            0           0           0  
      2.105535  0.003270 13.880670            0           0           0  
      8.440154  0.001577 11.727631            0           0           0  
      2.110711  6.332342 11.727488            0           0           0  
      0.000000  2.110246  9.610246            0           0           0  
      2.110246  4.220492  9.610246            0           0           0  
      0.000000  4.220492  7.500000            0           0           0  
      2.110246  2.110246  7.500000            0           0           0  
      0.004315  2.113557 13.882211            0           0           0  
      2.105546  4.223774 13.880622            0           0           0  
      8.440135  4.222063 11.727804            0           0           0  
      2.110713  2.111759 11.727509            0           0           0  
      4.220492  6.330738  9.610246            0           0           0  
      6.330738  0.000000  9.610246            0           0           0  
      4.220492  0.000000  7.500000            0           0           0  
      6.330738  6.330738  7.500000            0           0           0  
      4.217716  6.334166 13.886200            0           0           0  
      6.332777  0.003484 13.886121            0           0           0  
      4.220446  0.001791 11.732620            0           0           0  
      6.330688  6.332523 11.732778            0           0           0  
      4.220492  2.110246  9.610246            0           0           0  
      6.330738  4.220492  9.610246            0           0           0  
      4.220492  4.220492  7.500000            0           0           0  
      6.330738  2.110246  7.500000            0           0           0  
      4.217710  2.113732 13.886227            0           0           0  
      6.332756  4.223988 13.886224            0           0           0  
      4.220491  4.222283 11.732463            0           0           0  
      6.330686  2.112044 11.732794            0           0           0  

 Finite differences POTIM=   1.0000000000000000E-002
     LOOP+:  cpu time     52.6553: real time     52.7727
    4ORBIT:  cpu time      0.0000: real time      0.0000

 total amount of memory used by VASP MPI-rank0    69954. kBytes
=======================================================================

   base      :      30000. kBytes
   nonl-proj :      20480. kBytes
   fftplans  :       4923. kBytes
   grid      :       8190. kBytes
   one-center:         97. kBytes
   wavefun   :       6264. kBytes

  
  
 General timing and accounting informations for this job:
 ========================================================
  
                  Total CPU time used (sec):    10644.406
                            User time (sec):    10630.404
                          System time (sec):       14.002
                         Elapsed time (sec):    10696.137
  
                   Maximum memory used (kb):      170376.
                   Average memory used (kb):          N/A
  
                          Minor page faults:        44374
                          Major page faults:           56
                 Voluntary context switches:       101608
