 vasp.6.3.0 20Jan22 (build Apr  1 2022 16:44:48) complex                         
 executed on        HPECrayEX_GCC date 2023.02.21  23:06:05
 running  512 mpi-ranks, with    1 threads/rank
 distrk:  each k-point on  512 cores,    1 groups
 distr:  one band on NCORE=   8 cores,   64 groups


--------------------------------------------------------------------------------------------------------


 INCAR:
   SYSTEM = MgO-rocksalt
   ISMEAR = 0
   SIGMA = 0.05
   EDIFF = 1E-8
   ALGO = ALL
   ISTART = 0
   IBRION = 5
   POTIM = 0.01
   NFREE = 2
   ISYM = 0
   DIPOL = 0.5 0.5 0.5
   IDIPOL = 3
   LDIPOL = .TRUE.
   GGA = RE
   IVDW = 13
   VDW_S8 = 1.7468
   VDW_A1 = 0.5363
   VDW_A2 = 3.0726
   ENCUT = 520
   PREC = Accurate
   LASPH = .TRUE.
   LREAL = Auto
   ISPIN = 1
   NELM = 200
   NELMIN = 8
   NCORE = 8
   KPAR = 1
   LWAVE = .FALSE.
   LCHARG = .FALSE.

 POTCAR:    PAW_PBE C 08Apr2002                   
 POTCAR:    PAW_PBE O 08Apr2002                   
 POTCAR:    PAW_PBE H 15Jun2001                   
 POTCAR:    PAW_PBE Mg_pv 13Apr2007               
 POTCAR:    PAW_PBE O 08Apr2002                   
 POTCAR:    PAW_PBE C 08Apr2002                   
   SHA256 =  253f7b50bb8d59471dbedb8285d89021f4a42ed1a2c5d38a03a736e69125dd95 C/POTCAR              
   COPYR  = (c) Copyright 08Apr2002 Georg Kresse                                                    
   COPYR  = This file is part of the software VASP. Any use, copying, and all other rights are regul
   COPYR  = If you do not have a valid VASP license, you may not use, copy or distribute this file. 
   VRHFIN =C: s2p2                                                                                  
   LEXCH  = PE                                                                                      
   EATOM  =   147.1560 eV,   10.8157 Ry                                                             
                                                                                                    
   TITEL  = PAW_PBE C 08Apr2002                                                                     
   LULTRA =        F    use ultrasoft PP ?                                                          
   IUNSCR =        1    unscreen: 0-lin 1-nonlin 2-no                                               
   RPACOR =    1.200    partial core radius                                                         
   POMASS =   12.011; ZVAL   =    4.000    mass and valenz                                          
   RCORE  =    1.500    outmost cutoff radius                                                       
   RWIGS  =    1.630; RWIGS  =    0.863    wigner-seitz radius (au A)                               
   ENMAX  =  400.000; ENMIN  =  300.000 eV                                                          
   ICORE  =        2    local potential                                                             
   LCOR   =        T    correct aug charges                                                         
   LPAW   =        T    paw PP                                                                      
   EAUG   =  644.873                                                                                
   DEXC   =    0.000                                                                                
   RMAX   =    1.529    core radius for proj-oper                                                   
   RAUG   =    1.300    factor for augmentation sphere                                              
   RDEP   =    1.501    radius for radial grids                                                     
   RDEPT  =    1.300    core radius for aug-charge                                                  
                                                                                                    
   Atomic configuration                                                                             
    4 entries                                                                                       
     n  l   j            E        occ.                                                              
     1  0  0.50      -273.3789   2.0000                                                             
     2  0  0.50       -13.7508   2.0000                                                             
     2  1  0.50        -5.2854   2.0000                                                             
     3  2  1.50        -5.4423   0.0000                                                             
   Description                                                                                      
     l       E           TYP  RCUT    TYP  RCUT                                                     
     0    -13.7508458     23  1.200                                                                 
     0     -8.2022199     23  1.200                                                                 
     1     -5.2854383     23  1.500                                                                 
     1     34.0145650     23  1.500                                                                 
     2     -5.4423304      7  1.500                                                                 
  local pseudopotential read in
  partial core-charges read in
  partial kinetic energy density read in
  atomic valenz-charges read in
  non local Contribution for L=           0  read in
    real space projection operators read in
  non local Contribution for L=           0  read in
    real space projection operators read in
  non local Contribution for L=           1  read in
    real space projection operators read in
  non local Contribution for L=           1  read in
    real space projection operators read in
    PAW grid and wavefunctions read in

   number of l-projection  operators is LMAX  =           4
   number of lm-projection operators is LMMAX =           8

 POTCAR:    PAW_PBE O 08Apr2002                   
   SHA256 =  818f92134a0a090dccd8ba1447fa70422a3b330e708bb4f08108d8ae51209ddf O/POTCAR              
   COPYR  = (c) Copyright 08Apr2002 Georg Kresse                                                    
   COPYR  = This file is part of the software VASP. Any use, copying, and all other rights are regul
   COPYR  = If you do not have a valid VASP license, you may not use, copy or distribute this file. 
   VRHFIN =O: s2p4                                                                                  
   LEXCH  = PE                                                                                      
   EATOM  =   432.3788 eV,   31.7789 Ry                                                             
                                                                                                    
   TITEL  = PAW_PBE O 08Apr2002                                                                     
   LULTRA =        F    use ultrasoft PP ?                                                          
   IUNSCR =        1    unscreen: 0-lin 1-nonlin 2-no                                               
   RPACOR =    1.200    partial core radius                                                         
   POMASS =   16.000; ZVAL   =    6.000    mass and valenz                                          
   RCORE  =    1.520    outmost cutoff radius                                                       
   RWIGS  =    1.550; RWIGS  =    0.820    wigner-seitz radius (au A)                               
   ENMAX  =  400.000; ENMIN  =  300.000 eV                                                          
   ICORE  =        2    local potential                                                             
   LCOR   =        T    correct aug charges                                                         
   LPAW   =        T    paw PP                                                                      
   EAUG   =  605.392                                                                                
   DEXC   =    0.000                                                                                
   RMAX   =    1.553    core radius for proj-oper                                                   
   RAUG   =    1.300    factor for augmentation sphere                                              
   RDEP   =    1.550    radius for radial grids                                                     
   RDEPT  =    1.329    core radius for aug-charge                                                  
                                                                                                    
   Atomic configuration                                                                             
    4 entries                                                                                       
     n  l   j            E        occ.                                                              
     1  0  0.50      -514.6923   2.0000                                                             
     2  0  0.50       -23.9615   2.0000                                                             
     2  1  0.50        -9.0305   4.0000                                                             
     3  2  1.50        -9.5241   0.0000                                                             
   Description                                                                                      
     l       E           TYP  RCUT    TYP  RCUT                                                     
     0    -23.9615318     23  1.200                                                                 
     0     -9.5240782     23  1.200                                                                 
     1     -9.0304911     23  1.520                                                                 
     1      8.1634956     23  1.520                                                                 
     2     -9.5240782      7  1.500                                                                 
  local pseudopotential read in
  partial core-charges read in
  partial kinetic energy density read in
  kinetic energy density of atom read in
  atomic valenz-charges read in
  non local Contribution for L=           0  read in
    real space projection operators read in
  non local Contribution for L=           0  read in
    real space projection operators read in
  non local Contribution for L=           1  read in
    real space projection operators read in
  non local Contribution for L=           1  read in
    real space projection operators read in
    PAW grid and wavefunctions read in

   number of l-projection  operators is LMAX  =           4
   number of lm-projection operators is LMMAX =           8

 POTCAR:    PAW_PBE H 15Jun2001                   
   SHA256 =  030f79b5d3ab3cf0e668861823c8fb652ff669f3e15e46930bd03bfd63a607b6 H/POTCAR              
   COPYR  = (c) Copyright 15Jun2001 Georg Kresse                                                    
   COPYR  = This file is part of the software VASP. Any use, copying, and all other rights are regul
   COPYR  = If you do not have a valid VASP license, you may not use, copy or distribute this file. 
   VRHFIN =H: ultrasoft test                                                                        
   LEXCH  = PE                                                                                      
   EATOM  =    12.4884 eV,    0.9179 Ry                                                             
                                                                                                    
   TITEL  = PAW_PBE H 15Jun2001                                                                     
   LULTRA =        F    use ultrasoft PP ?                                                          
   IUNSCR =        0    unscreen: 0-lin 1-nonlin 2-no                                               
   RPACOR =    0.000    partial core radius                                                         
   POMASS =    1.000; ZVAL   =    1.000    mass and valenz                                          
   RCORE  =    1.100    outmost cutoff radius                                                       
   RWIGS  =    0.700; RWIGS  =    0.370    wigner-seitz radius (au A)                               
   ENMAX  =  250.000; ENMIN  =  200.000 eV                                                          
   RCLOC  =    0.701    cutoff for local pot                                                        
   LCOR   =        T    correct aug charges                                                         
   LPAW   =        T    paw PP                                                                      
   EAUG   =  400.000                                                                                
   RMAX   =    1.123    core radius for proj-oper                                                   
   RAUG   =    1.200    factor for augmentation sphere                                              
   RDEP   =    1.112    radius for radial grids                                                     
   RDEPT  =    0.926    core radius for aug-charge                                                  
                                                                                                    
   Atomic configuration                                                                             
    2 entries                                                                                       
     n  l   j            E        occ.                                                              
     1  0  0.50        -6.4927   1.0000                                                             
     2  1  0.50        -3.4015   0.0000                                                             
   Description                                                                                      
     l       E           TYP  RCUT    TYP  RCUT                                                     
     0     -6.4927494     23  1.100                                                                 
     0      6.8029130     23  1.100                                                                 
     1     -4.0817478     23  1.100                                                                 
  local pseudopotential read in
  atomic valenz-charges read in
  non local Contribution for L=           0  read in
    real space projection operators read in
  non local Contribution for L=           0  read in
    real space projection operators read in
  non local Contribution for L=           1  read in
    real space projection operators read in
    PAW grid and wavefunctions read in

   number of l-projection  operators is LMAX  =           3
   number of lm-projection operators is LMMAX =           5

 POTCAR:    PAW_PBE Mg_pv 13Apr2007               
   SHA256 =  f474ac0dd33840b9ae76c01d57fea79fdf77cdfbb07d5ade72c65f83c709b62b Mg_pv/POTCAR          
   COPYR  = (c) Copyright 13Apr2007 Georg Kresse                                                    
   COPYR  = This file is part of the software VASP. Any use, copying, and all other rights are regul
   COPYR  = If you do not have a valid VASP license, you may not use, copy or distribute this file. 
   VRHFIN =Mg: p6s2                                                                                 
   LEXCH  = PE                                                                                      
   EATOM  =  1056.7344 eV,   77.6678 Ry                                                             
                                                                                                    
   TITEL  = PAW_PBE Mg_pv 13Apr2007                                                                 
   LULTRA =        F    use ultrasoft PP ?                                                          
   IUNSCR =        1    unscreen: 0-lin 1-nonlin 2-no                                               
   RPACOR =    1.500    partial core radius                                                         
   POMASS =   24.305; ZVAL   =    8.000    mass and valenz                                          
   RCORE  =    2.000    outmost cutoff radius                                                       
   RWIGS  =    2.000; RWIGS  =    1.058    wigner-seitz radius (au A)                               
   ENMAX  =  403.929; ENMIN  =  302.947 eV                                                          
   RCLOC  =    1.506    cutoff for local pot                                                        
   LCOR   =        T    correct aug charges                                                         
   LPAW   =        T    paw PP                                                                      
   EAUG   =  758.780                                                                                
   DEXC   =    0.000                                                                                
   RMAX   =    2.045    core radius for proj-oper                                                   
   RAUG   =    1.300    factor for augmentation sphere                                              
   RDEP   =    2.025    radius for radial grids                                                     
   RDEPT  =    1.557    core radius for aug-charge                                                  
                                                                                                    
   Atomic configuration                                                                             
    5 entries                                                                                       
     n  l   j            E        occ.                                                              
     1  0  0.50     -1259.6230   2.0000                                                             
     2  0  0.50       -79.8442   2.0000                                                             
     2  1  1.50       -46.6121   6.0000                                                             
     3  0  0.50        -4.7055   2.0000                                                             
     3  2  1.50        -1.3606   0.0000                                                             
   Description                                                                                      
     l       E           TYP  RCUT    TYP  RCUT                                                     
     1    -46.6121073     23  1.600                                                                 
     1      2.7211652     23  1.600                                                                 
     0     -4.7054661     23  2.000                                                                 
     0     61.2262170     23  2.000                                                                 
     2     -1.3605826     23  2.000                                                                 
  local pseudopotential read in
  partial core-charges read in
  partial kinetic energy density read in
  atomic valenz-charges read in
  non local Contribution for L=           1  read in
    real space projection operators read in
  non local Contribution for L=           1  read in
    real space projection operators read in
  non local Contribution for L=           0  read in
    real space projection operators read in
  non local Contribution for L=           0  read in
    real space projection operators read in
  non local Contribution for L=           2  read in
    real space projection operators read in
    PAW grid and wavefunctions read in

   number of l-projection  operators is LMAX  =           5
   number of lm-projection operators is LMMAX =          13

 POTCAR:    PAW_PBE O 08Apr2002                   
   SHA256 =  818f92134a0a090dccd8ba1447fa70422a3b330e708bb4f08108d8ae51209ddf O/POTCAR              
   COPYR  = (c) Copyright 08Apr2002 Georg Kresse                                                    
   COPYR  = This file is part of the software VASP. Any use, copying, and all other rights are regul
   COPYR  = If you do not have a valid VASP license, you may not use, copy or distribute this file. 
   VRHFIN =O: s2p4                                                                                  
   LEXCH  = PE                                                                                      
   EATOM  =   432.3788 eV,   31.7789 Ry                                                             
                                                                                                    
   TITEL  = PAW_PBE O 08Apr2002                                                                     
   LULTRA =        F    use ultrasoft PP ?                                                          
   IUNSCR =        1    unscreen: 0-lin 1-nonlin 2-no                                               
   RPACOR =    1.200    partial core radius                                                         
   POMASS =   16.000; ZVAL   =    6.000    mass and valenz                                          
   RCORE  =    1.520    outmost cutoff radius                                                       
   RWIGS  =    1.550; RWIGS  =    0.820    wigner-seitz radius (au A)                               
   ENMAX  =  400.000; ENMIN  =  300.000 eV                                                          
   ICORE  =        2    local potential                                                             
   LCOR   =        T    correct aug charges                                                         
   LPAW   =        T    paw PP                                                                      
   EAUG   =  605.392                                                                                
   DEXC   =    0.000                                                                                
   RMAX   =    1.553    core radius for proj-oper                                                   
   RAUG   =    1.300    factor for augmentation sphere                                              
   RDEP   =    1.550    radius for radial grids                                                     
   RDEPT  =    1.329    core radius for aug-charge                                                  
                                                                                                    
   Atomic configuration                                                                             
    4 entries                                                                                       
     n  l   j            E        occ.                                                              
     1  0  0.50      -514.6923   2.0000                                                             
     2  0  0.50       -23.9615   2.0000                                                             
     2  1  0.50        -9.0305   4.0000                                                             
     3  2  1.50        -9.5241   0.0000                                                             
   Description                                                                                      
     l       E           TYP  RCUT    TYP  RCUT                                                     
     0    -23.9615318     23  1.200                                                                 
     0     -9.5240782     23  1.200                                                                 
     1     -9.0304911     23  1.520                                                                 
     1      8.1634956     23  1.520                                                                 
     2     -9.5240782      7  1.500                                                                 
  local pseudopotential read in
  partial core-charges read in
  partial kinetic energy density read in
  kinetic energy density of atom read in
  atomic valenz-charges read in
  non local Contribution for L=           0  read in
    real space projection operators read in
  non local Contribution for L=           0  read in
    real space projection operators read in
  non local Contribution for L=           1  read in
    real space projection operators read in
  non local Contribution for L=           1  read in
    real space projection operators read in
    PAW grid and wavefunctions read in

   number of l-projection  operators is LMAX  =           4
   number of lm-projection operators is LMMAX =           8

 Optimization of the real space projectors (new method)

 maximal supplied QI-value         = 25.13
 optimisation between [QCUT,QGAM] = [ 11.56, 23.12] = [ 37.43,149.72] Ry 
 Optimized for a Real-space Cutoff    1.04 Angstroem

   l    n(q)    QCUT    max X(q) W(low)/X(q) W(high)/X(q)  e(spline) 
   0      7    11.561   115.676    0.20E-03    0.60E-03    0.21E-06
   0      7    11.561    87.132    0.20E-03    0.59E-03    0.21E-06
   1      7    11.561     4.429    0.23E-03    0.35E-03    0.15E-06
   1      7    11.561     2.733    0.18E-03    0.25E-03    0.12E-06
 Optimization of the real space projectors (new method)

 maximal supplied QI-value         = 24.76
 optimisation between [QCUT,QGAM] = [ 11.64, 23.27] = [ 37.91,151.63] Ry 
 Optimized for a Real-space Cutoff    1.14 Angstroem

   l    n(q)    QCUT    max X(q) W(low)/X(q) W(high)/X(q)  e(spline) 
   0      8    11.635    20.381    0.10E-03    0.33E-03    0.24E-06
   0      8    11.635    15.268    0.11E-03    0.35E-03    0.26E-06
   1      7    11.635     5.964    0.24E-03    0.31E-03    0.30E-06
   1      7    11.635     5.382    0.22E-03    0.25E-03    0.26E-06
 Optimization of the real space projectors (new method)

 maximal supplied QI-value         = 34.20
 optimisation between [QCUT,QGAM] = [ 11.63, 23.26] = [ 37.87,151.49] Ry 
 Optimized for a Real-space Cutoff    1.21 Angstroem

   l    n(q)    QCUT    max X(q) W(low)/X(q) W(high)/X(q)  e(spline) 
   0      8    11.629    19.460    0.17E-03    0.34E-03    0.21E-06
   0      8    11.629    12.209    0.16E-03    0.33E-03    0.21E-06
   1      8    11.629     4.655    0.18E-03    0.16E-03    0.26E-06
 Optimization of the real space projectors (new method)

 maximal supplied QI-value         = 18.90
 optimisation between [QCUT,QGAM] = [ 11.53, 23.24] = [ 37.21,151.29] Ry 
 Optimized for a Real-space Cutoff    1.28 Angstroem

   l    n(q)    QCUT    max X(q) W(low)/X(q) W(high)/X(q)  e(spline) 
   1      8    11.527     2.974    0.44E-04    0.56E-04    0.12E-06
   1      8    11.527     4.279    0.12E-03    0.12E-03    0.26E-06
   0      9    11.527    16.381    0.46E-04    0.64E-04    0.78E-07
   0      9    11.527     5.611    0.26E-04    0.43E-04    0.55E-07
   2      8    11.527     4.652    0.22E-03    0.72E-04    0.47E-07
 Optimization of the real space projectors (new method)

 maximal supplied QI-value         = 24.76
 optimisation between [QCUT,QGAM] = [ 11.64, 23.27] = [ 37.91,151.63] Ry 
 Optimized for a Real-space Cutoff    1.14 Angstroem

   l    n(q)    QCUT    max X(q) W(low)/X(q) W(high)/X(q)  e(spline) 
   0      8    11.635    20.381    0.10E-03    0.33E-03    0.24E-06
   0      8    11.635    15.268    0.11E-03    0.35E-03    0.26E-06
   1      7    11.635     5.964    0.24E-03    0.31E-03    0.30E-06
   1      7    11.635     5.382    0.22E-03    0.25E-03    0.26E-06
 -----------------------------------------------------------------------------
|                                                                             |
|               ----> ADVICE to this user running VASP <----                  |
|                                                                             |
|     You enforced a specific xc type in the INCAR file but a different       |
|     type was found in the POTCAR file.                                      |
|     I HOPE YOU KNOW WHAT YOU ARE DOING!                                     |
|                                                                             |
 -----------------------------------------------------------------------------

  PAW_PBE C 08Apr2002                   :
 energy of atom  1       EATOM= -147.1560
 kinetic energy error for atom=    0.0071 (will be added to EATOM!!)
  PAW_PBE O 08Apr2002                   :
 energy of atom  2       EATOM= -432.3788
 kinetic energy error for atom=    0.0208 (will be added to EATOM!!)
  PAW_PBE H 15Jun2001                   :
 energy of atom  3       EATOM=  -12.4884
 kinetic energy error for atom=    0.0014 (will be added to EATOM!!)
  PAW_PBE Mg_pv 13Apr2007               :
 energy of atom  4       EATOM=-1056.7344
 kinetic energy error for atom=    0.0340 (will be added to EATOM!!)
  PAW_PBE O 08Apr2002                   :
 energy of atom  5       EATOM= -432.3788
 kinetic energy error for atom=    0.0208 (will be added to EATOM!!)


 POSCAR:  C  O  H Mg  O
  positions in direct lattice
  No initial velocities read in
 -----------------------------------------------------------------------------
|                                                                             |
|           W    W    AA    RRRRR   N    N  II  N    N   GGGG   !!!           |
|           W    W   A  A   R    R  NN   N  II  NN   N  G    G  !!!           |
|           W    W  A    A  R    R  N N  N  II  N N  N  G       !!!           |
|           W WW W  AAAAAA  RRRRR   N  N N  II  N  N N  G  GGG   !            |
|           WW  WW  A    A  R   R   N   NN  II  N   NN  G    G                |
|           W    W  A    A  R    R  N    N  II  N    N   GGGG   !!!           |
|                                                                             |
|     Specifying the vdW parameters                                           |
|     VDW_S8 = 1.747                                                          |
|     VDW_A1 = 0.536                                                          |
|     VDW_A2 = 3.073                                                          |
|     in the INCAR file will overwrite the defaults for revpbe. Please        |
|     make sure that is what you intended.                                    |
|                                                                             |
 -----------------------------------------------------------------------------

 exchange correlation table for  LEXCH =       40
   RHO(1)=    0.500       N(1)  =     2000
   RHO(2)=  100.500       N(2)  =     4000



--------------------------------------------------------------------------------------------------------


 ion  position               nearest neighbor table
   1  0.528  0.556  0.794-  12 1.10  11 1.10   9 1.10   5 1.44
   2  0.319  0.401  0.795-  16 1.10  15 1.10  13 1.10   6 1.44
   3  0.474  0.194  0.795-  20 1.10  19 1.10  17 1.10   7 1.44
   4  0.681  0.347  0.794-  24 1.10  23 1.10  21 1.10   8 1.44
   5  0.508  0.488  0.757-  10 1.00   1 1.44
   6  0.387  0.383  0.757-  14 1.00   2 1.44
   7  0.492  0.262  0.757-  18 1.00   3 1.44
   8  0.613  0.367  0.757-  22 1.00   4 1.44
   9  0.520  0.543  0.845-   1 1.10
  10  0.552  0.449  0.759-   5 1.00
  11  0.590  0.574  0.786-   1 1.10
  12  0.489  0.605  0.780-   1 1.10
  13  0.333  0.392  0.845-   2 1.10
  14  0.426  0.427  0.760-   6 1.00
  15  0.301  0.463  0.788-   2 1.10
  16  0.271  0.362  0.781-   2 1.10
  17  0.484  0.208  0.845-   3 1.10
  18  0.448  0.301  0.759-   7 1.00
  19  0.412  0.176  0.788-   3 1.10
  20  0.513  0.146  0.781-   3 1.10
  21  0.669  0.355  0.844-   4 1.10
  22  0.574  0.323  0.759-   8 1.00
  23  0.699  0.285  0.786-   4 1.10
  24  0.730  0.385  0.779-   4 1.10
  25  0.000  0.375  0.352- 153 2.11 156 2.11 163 2.11 187 2.11 236 2.11
  26  0.125  0.000  0.352- 154 2.11 155 2.11 164 2.11 171 2.11 188 2.11
  27  0.000  0.000  0.451- 155 2.11 154 2.11 161 2.11 185 2.11 234 2.11 159 2.11
  28  0.125  0.375  0.451- 160 2.11 156 2.11 153 2.11 162 2.11 169 2.11 186 2.11
  29  0.000  0.375  0.550- 240 2.11 160 2.11 191 2.11 167 2.11 153 2.11 157 2.15
  30  0.125  1.000  0.550- 168 2.11 175 2.11 159 2.11 192 2.11 154 2.11 158 2.15
  31  0.000  1.000  0.648- 159 2.10 158 2.11 238 2.11 189 2.11 165 2.11
  32  0.125  0.375  0.647- 173 2.09 160 2.09 157 2.11 190 2.11 166 2.11
  33  0.000  0.125  0.352- 161 2.11 155 2.11 163 2.11 164 2.11 244 2.11
  34  0.125  0.250  0.352- 162 2.11 156 2.11 163 2.11 164 2.11 179 2.11
  35  0.000  0.250  0.451- 167 2.11 163 2.11 162 2.11 153 2.11 161 2.11 242 2.11
  36  0.125  0.125  0.451- 168 2.11 164 2.11 162 2.11 154 2.11 161 2.11 177 2.11
  37  0.000  0.125  0.550- 248 2.11 168 2.11 167 2.11 159 2.11 161 2.11 165 2.15
  38  0.125  0.250  0.550- 183 2.10 167 2.11 160 2.11 162 2.11 168 2.11 166 2.15
  39  0.000  0.250  0.648- 167 2.10 246 2.11 166 2.11 165 2.11 157 2.11
  40  0.125  0.125  0.648- 168 2.10 181 2.10 165 2.11 166 2.11 158 2.11
  41  0.250  0.375  0.352- 169 2.11 156 2.11 172 2.11 179 2.11 203 2.11
  42  0.375  0.000  0.352- 170 2.11 171 2.11 180 2.11 204 2.11 219 2.11
  43  0.250  0.000  0.451- 175 2.11 171 2.11 154 2.11 170 2.11 177 2.11 201 2.11
  44  0.375  0.375  0.451- 172 2.11 169 2.11 178 2.11 202 2.11 217 2.11 176 2.12
  45  0.250  0.375  0.550- 176 2.10 183 2.11 207 2.11 169 2.12 160 2.12 173 2.14
  46  0.375  1.000  0.550- 184 2.10 208 2.11 223 2.11 170 2.11 175 2.11 174 2.15
  47  0.250  1.000  0.648- 175 2.10 181 2.10 205 2.11 174 2.11 158 2.11
  48  0.375  0.375  0.651- 221 2.12 173 2.12 182 2.13 206 2.14 176 2.16
  49  0.250  0.125  0.352- 177 2.11 171 2.11 164 2.11 179 2.11 180 2.11
  50  0.375  0.250  0.352- 178 2.11 172 2.11 179 2.11 180 2.11 227 2.11
  51  0.250  0.250  0.451- 183 2.11 179 2.11 177 2.11 178 2.11 162 2.11 169 2.11
  52  0.375  0.125  0.451- 184 2.11 180 2.11 178 2.11 170 2.11 177 2.11 225 2.11
  53  0.250  0.125  0.549- 183 2.11 184 2.11 177 2.11 168 2.11 175 2.11 181 2.15
  54  0.375  0.251  0.550- 231 2.10 176 2.10 182 2.12 183 2.13 184 2.13 178 2.13
  55  0.250  0.250  0.647- 182 2.09 183 2.09 166 2.11 173 2.11 181 2.12
  56  0.375  0.125  0.647- 184 2.08 182 2.09 174 2.11 229 2.12 181 2.12
  57  0.000  0.875  0.352- 185 2.11 155 2.11 188 2.11 195 2.11 268 2.11
  58  0.125  0.500  0.352- 186 2.11 156 2.11 187 2.11 196 2.11 203 2.11
  59  0.000  0.500  0.451- 187 2.11 186 2.11 153 2.11 193 2.11 266 2.11 191 2.11
  60  0.125  0.875  0.451- 192 2.11 188 2.11 154 2.11 185 2.11 194 2.11 201 2.11
  61  0.000  0.875  0.550- 199 2.11 159 2.11 272 2.11 192 2.11 185 2.11 189 2.15
  62  0.125  0.500  0.550- 207 2.10 160 2.11 191 2.11 186 2.11 200 2.11 190 2.15
  63  0.000  0.500  0.648- 191 2.10 190 2.11 270 2.11 197 2.11 157 2.11
  64  0.125  0.875  0.648- 192 2.10 198 2.11 158 2.11 189 2.11 205 2.11
  65  0.000  0.625  0.352- 193 2.11 187 2.11 195 2.11 196 2.11 276 2.11
  66  0.125  0.750  0.352- 194 2.11 188 2.11 195 2.11 196 2.11 211 2.11
  67  0.000  0.750  0.451- 199 2.11 195 2.11 194 2.11 185 2.11 193 2.11 274 2.11
  68  0.125  0.625  0.451- 200 2.11 196 2.11 194 2.11 186 2.11 193 2.11 209 2.11
  69  0.000  0.625  0.550- 280 2.11 200 2.11 191 2.11 199 2.11 193 2.11 197 2.15
  70  0.125  0.750  0.550- 215 2.11 200 2.11 199 2.11 192 2.11 194 2.11 198 2.15
  71  0.000  0.750  0.648- 199 2.10 198 2.11 278 2.11 189 2.11 197 2.11
  72  0.125  0.625  0.648- 200 2.10 213 2.10 190 2.11 197 2.11 198 2.11
  73  0.250  0.875  0.352- 201 2.11 188 2.11 171 2.11 204 2.11 211 2.11
  74  0.375  0.500  0.352- 202 2.11 172 2.11 203 2.11 212 2.11 251 2.11
  75  0.250  0.500  0.451- 207 2.11 203 2.11 202 2.11 169 2.11 186 2.11 209 2.11
  76  0.375  0.875  0.451- 208 2.11 204 2.11 170 2.11 201 2.11 210 2.11 249 2.11
  77  0.250  0.875  0.550- 215 2.11 175 2.11 208 2.11 192 2.11 201 2.11 205 2.15
  78  0.376  0.499  0.550- 176 2.10 255 2.10 206 2.12 216 2.13 207 2.13 202 2.13
  79  0.250  0.500  0.647- 207 2.09 206 2.09 190 2.11 173 2.11 213 2.12
  80  0.375  0.875  0.648- 208 2.10 174 2.11 214 2.11 205 2.11 253 2.11
  81  0.250  0.625  0.352- 209 2.11 203 2.11 196 2.11 211 2.11 212 2.11
  82  0.375  0.750  0.352- 210 2.11 204 2.11 211 2.11 212 2.11 259 2.11
  83  0.250  0.750  0.451- 215 2.11 211 2.11 209 2.11 210 2.11 194 2.11 201 2.11
  84  0.375  0.625  0.451- 216 2.11 212 2.11 210 2.11 202 2.11 209 2.11 257 2.11
  85  0.250  0.625  0.550- 216 2.11 207 2.11 209 2.11 200 2.11 215 2.11 213 2.15
  86  0.375  0.750  0.550- 216 2.10 263 2.11 208 2.11 210 2.11 215 2.11 214 2.15
  87  0.250  0.750  0.648- 215 2.10 213 2.11 214 2.11 205 2.11 198 2.11
  88  0.375  0.625  0.647- 206 2.09 216 2.09 214 2.11 261 2.11 213 2.12
  89  0.500  0.375  0.352- 217 2.11 172 2.11 220 2.11 227 2.11 251 2.11
  90  0.625  0.000  0.352- 218 2.11 219 2.11 228 2.11 235 2.11 252 2.11
  91  0.500  0.000  0.451- 223 2.11 219 2.11 170 2.11 218 2.11 225 2.11 249 2.11
  92  0.625  0.375  0.451- 220 2.11 217 2.11 226 2.11 233 2.11 250 2.11 224 2.12
  93  0.500  0.375  0.551- 221 2.09 255 2.12 231 2.12 176 2.12 224 2.12 217 2.15
  94  0.625  1.000  0.550- 232 2.10 256 2.11 223 2.11 218 2.11 239 2.11 222 2.15
  95  0.500  1.000  0.647- 229 2.09 223 2.09 253 2.11 174 2.11 222 2.11
  96  0.625  0.375  0.651- 221 2.12 237 2.12 254 2.13 230 2.14 224 2.16
  97  0.500  0.125  0.352- 225 2.11 219 2.11 180 2.11 227 2.11 228 2.11
  98  0.625  0.250  0.352- 226 2.11 220 2.11 227 2.11 228 2.11 243 2.11
  99  0.500  0.250  0.451- 227 2.11 217 2.11 225 2.11 226 2.11 178 2.11 231 2.12
 100  0.625  0.125  0.451- 232 2.10 228 2.11 226 2.11 218 2.11 225 2.11 241 2.11
 101  0.500  0.125  0.550- 231 2.10 232 2.11 184 2.11 225 2.12 223 2.12 229 2.14
 102  0.624  0.250  0.550- 224 2.10 231 2.10 230 2.12 232 2.13 247 2.13 226 2.13
 103  0.500  0.250  0.651- 221 2.12 229 2.12 230 2.13 182 2.14 231 2.16
 104  0.625  0.125  0.647- 230 2.09 232 2.09 222 2.11 229 2.11 245 2.12
 105  0.750  0.375  0.352- 233 2.11 220 2.11 236 2.11 243 2.11 267 2.11
 106  0.875  0.000  0.352- 234 2.11 155 2.11 235 2.11 244 2.11 268 2.11
 107  0.750  0.000  0.451- 239 2.11 235 2.11 218 2.11 234 2.11 241 2.11 265 2.11
 108  0.875  0.375  0.451- 240 2.11 236 2.11 153 2.11 233 2.11 242 2.11 266 2.11
 109  0.750  0.375  0.550- 224 2.10 271 2.11 247 2.11 233 2.12 240 2.12 237 2.14
 110  0.875  1.000  0.550- 239 2.11 248 2.11 159 2.11 272 2.11 234 2.11 238 2.15
 111  0.750  1.000  0.648- 239 2.10 245 2.11 269 2.11 222 2.11 238 2.11
 112  0.875  0.375  0.647- 237 2.09 240 2.09 157 2.11 246 2.11 270 2.11
 113  0.750  0.125  0.352- 241 2.11 235 2.11 228 2.11 243 2.11 244 2.11
 114  0.875  0.250  0.352- 242 2.11 236 2.11 163 2.11 243 2.11 244 2.11
 115  0.750  0.250  0.451- 247 2.11 243 2.11 241 2.11 242 2.11 226 2.11 233 2.11
 116  0.875  0.125  0.451- 248 2.11 244 2.11 241 2.11 242 2.11 161 2.11 234 2.11
 117  0.750  0.125  0.549- 232 2.11 247 2.11 241 2.11 239 2.11 248 2.11 245 2.15
 118  0.875  0.250  0.550- 247 2.10 167 2.11 240 2.11 242 2.11 248 2.11 246 2.15
 119  0.750  0.250  0.647- 247 2.08 230 2.09 246 2.11 237 2.12 245 2.12
 120  0.875  0.125  0.648- 248 2.10 245 2.10 165 2.11 246 2.11 238 2.11
 121  0.500  0.875  0.352- 249 2.11 219 2.11 204 2.11 252 2.11 259 2.11
 122  0.625  0.500  0.352- 250 2.11 220 2.11 251 2.11 260 2.11 267 2.11
 123  0.500  0.500  0.451- 251 2.11 217 2.11 250 2.11 202 2.11 257 2.11 255 2.12
 124  0.625  0.875  0.451- 256 2.11 252 2.11 218 2.11 249 2.11 258 2.11 265 2.11
 125  0.500  0.875  0.550- 223 2.11 263 2.11 208 2.11 256 2.11 249 2.11 253 2.15
 126  0.625  0.499  0.550- 255 2.10 224 2.10 254 2.12 271 2.13 264 2.13 250 2.13
 127  0.500  0.500  0.651- 221 2.12 261 2.13 206 2.13 254 2.14 255 2.16
 128  0.625  0.875  0.648- 256 2.10 222 2.11 262 2.11 269 2.11 253 2.11
 129  0.500  0.625  0.352- 257 2.11 251 2.11 212 2.11 259 2.11 260 2.11
 130  0.625  0.750  0.352- 258 2.11 252 2.11 259 2.11 260 2.11 275 2.11
 131  0.500  0.750  0.451- 263 2.11 259 2.11 257 2.11 258 2.11 210 2.11 249 2.11
 132  0.625  0.625  0.451- 264 2.11 260 2.11 258 2.11 250 2.11 257 2.11 273 2.11
 133  0.500  0.625  0.550- 255 2.10 216 2.11 264 2.11 257 2.12 263 2.12 261 2.14
 134  0.625  0.750  0.550- 264 2.10 256 2.11 263 2.11 258 2.11 279 2.11 262 2.15
 135  0.500  0.750  0.647- 261 2.09 263 2.09 253 2.11 262 2.11 214 2.11
 136  0.625  0.625  0.647- 264 2.08 254 2.09 262 2.11 277 2.11 261 2.11
 137  0.750  0.875  0.352- 265 2.11 252 2.11 235 2.11 268 2.11 275 2.11
 138  0.875  0.500  0.352- 266 2.11 236 2.11 187 2.11 267 2.11 276 2.11
 139  0.750  0.500  0.451- 271 2.11 267 2.11 266 2.11 233 2.11 250 2.11 273 2.11
 140  0.875  0.875  0.451- 272 2.11 268 2.11 265 2.11 185 2.11 234 2.11 274 2.11
 141  0.750  0.875  0.550- 239 2.11 279 2.11 256 2.11 272 2.11 265 2.11 269 2.15
 142  0.875  0.500  0.550- 271 2.10 191 2.11 240 2.11 266 2.11 280 2.11 270 2.15
 143  0.750  0.500  0.647- 254 2.09 271 2.09 270 2.11 237 2.11 277 2.12
 144  0.875  0.875  0.648- 272 2.10 278 2.11 238 2.11 189 2.11 269 2.11
 145  0.750  0.625  0.352- 273 2.11 267 2.11 260 2.11 275 2.11 276 2.11
 146  0.875  0.750  0.352- 274 2.11 268 2.11 195 2.11 275 2.11 276 2.11
 147  0.750  0.750  0.451- 279 2.11 275 2.11 273 2.11 274 2.11 258 2.11 265 2.11
 148  0.875  0.625  0.451- 280 2.11 276 2.11 273 2.11 274 2.11 193 2.11 266 2.11
 149  0.750  0.625  0.549- 271 2.11 264 2.11 273 2.11 279 2.11 280 2.11 277 2.15
 150  0.875  0.750  0.550- 280 2.11 279 2.11 272 2.11 199 2.11 274 2.11 278 2.15
 151  0.750  0.750  0.648- 279 2.10 277 2.10 269 2.11 262 2.11 278 2.11
 152  0.875  0.625  0.648- 280 2.10 277 2.11 270 2.11 197 2.11 278 2.11
 153  0.000  0.375  0.451-  25 2.11  28 2.11  35 2.11  59 2.11 108 2.11  29 2.11
 154  0.125  0.000  0.451-  26 2.11  27 2.11  36 2.11  43 2.11  60 2.11  30 2.11
 155  0.000  0.000  0.352-  27 2.11  26 2.11  33 2.11  57 2.11 106 2.11
 156  0.125  0.375  0.352-  28 2.11  25 2.11  34 2.11  41 2.11  58 2.11
 157  0.000  0.375  0.650- 112 2.11  32 2.11  39 2.11  63 2.11  29 2.15
 158  0.125  1.000  0.650-  64 2.11  31 2.11  47 2.11  40 2.11  30 2.15
 159  0.000  1.000  0.549-  31 2.10  61 2.11  30 2.11 110 2.11  27 2.11  37 2.11
 160  0.125  0.375  0.549-  32 2.09  29 2.11  28 2.11  62 2.11  38 2.11  45 2.12
 161  0.000  0.125  0.451-  33 2.11  27 2.11  35 2.11  36 2.11 116 2.11  37 2.11
 162  0.125  0.250  0.451-  34 2.11  28 2.11  35 2.11  36 2.11  51 2.11  38 2.11
 163  0.000  0.250  0.352-  35 2.11  33 2.11  34 2.11  25 2.11 114 2.11
 164  0.125  0.125  0.352-  36 2.11  33 2.11  34 2.11  26 2.11  49 2.11
 165  0.000  0.125  0.650- 120 2.11  40 2.11  31 2.11  39 2.11  37 2.15
 166  0.125  0.250  0.650-  39 2.11  40 2.11  55 2.11  32 2.11  38 2.15
 167  0.000  0.250  0.549-  39 2.10  35 2.11  38 2.11 118 2.11  37 2.11  29 2.11
 168  0.125  0.125  0.549-  40 2.10  37 2.11  30 2.11  36 2.11  53 2.11  38 2.11
 169  0.250  0.375  0.451-  41 2.11  28 2.11  44 2.11  51 2.11  75 2.11  45 2.12
 170  0.375  0.000  0.451-  42 2.11  43 2.11  52 2.11  76 2.11  91 2.11  46 2.11
 171  0.250  0.000  0.352-  43 2.11  42 2.11  26 2.11  49 2.11  73 2.11
 172  0.375  0.375  0.352-  44 2.11  41 2.11  50 2.11  74 2.11  89 2.11
 173  0.249  0.375  0.650-  32 2.09  79 2.11  55 2.11  48 2.12  45 2.14
 174  0.375  1.000  0.650-  80 2.11  47 2.11  56 2.11  95 2.11  46 2.15
 175  0.250  1.000  0.549-  47 2.10  77 2.11  43 2.11  30 2.11  53 2.11  46 2.11
 176  0.375  0.375  0.550-  45 2.10  78 2.10  54 2.10  93 2.12  44 2.12  48 2.16
 177  0.250  0.125  0.451-  49 2.11  43 2.11  36 2.11  51 2.11  52 2.11  53 2.11
 178  0.375  0.250  0.451-  50 2.11  44 2.11  51 2.11  52 2.11  99 2.11  54 2.13
 179  0.250  0.250  0.352-  51 2.11  41 2.11  49 2.11  50 2.11  34 2.11
 180  0.375  0.125  0.352-  52 2.11  49 2.11  50 2.11  42 2.11  97 2.11
 181  0.250  0.125  0.650-  47 2.10  40 2.10  56 2.12  55 2.12  53 2.15
 182  0.373  0.249  0.650-  55 2.09  56 2.09  54 2.12  48 2.13 103 2.14
 183  0.250  0.250  0.549-  55 2.09  38 2.10  51 2.11  53 2.11  45 2.11  54 2.13
 184  0.375  0.125  0.549-  56 2.08  46 2.10  52 2.11  53 2.11 101 2.11  54 2.13
 185  0.000  0.875  0.451-  57 2.11  27 2.11  60 2.11  67 2.11 140 2.11  61 2.11
 186  0.125  0.500  0.451-  58 2.11  28 2.11  59 2.11  68 2.11  75 2.11  62 2.11
 187  0.000  0.500  0.352-  59 2.11  58 2.11  25 2.11  65 2.11 138 2.11
 188  0.125  0.875  0.352-  60 2.11  57 2.11  26 2.11  66 2.11  73 2.11
 189  1.000  0.875  0.650-  71 2.11 144 2.11  64 2.11  31 2.11  61 2.15
 190  0.125  0.500  0.650-  63 2.11  72 2.11  79 2.11  32 2.11  62 2.15
 191  0.000  0.500  0.549-  63 2.10  69 2.11 142 2.11  62 2.11  59 2.11  29 2.11
 192  0.125  0.875  0.549-  64 2.10  60 2.11  61 2.11  30 2.11  70 2.11  77 2.11
 193  0.000  0.625  0.451-  65 2.11  59 2.11  67 2.11  68 2.11 148 2.11  69 2.11
 194  0.125  0.750  0.451-  66 2.11  60 2.11  67 2.11  68 2.11  83 2.11  70 2.11
 195  0.000  0.750  0.352-  67 2.11  65 2.11  66 2.11  57 2.11 146 2.11
 196  0.125  0.625  0.352-  68 2.11  65 2.11  66 2.11  58 2.11  81 2.11
 197  0.000  0.625  0.650-  71 2.11  72 2.11 152 2.11  63 2.11  69 2.15
 198  0.125  0.750  0.650-  71 2.11  64 2.11  87 2.11  72 2.11  70 2.15
 199  0.000  0.750  0.549-  71 2.10  61 2.11  67 2.11  70 2.11 150 2.11  69 2.11
 200  0.125  0.625  0.549-  72 2.10  69 2.11  70 2.11  68 2.11  62 2.11  85 2.11
 201  0.250  0.875  0.451-  73 2.11  60 2.11  43 2.11  76 2.11  83 2.11  77 2.11
 202  0.375  0.500  0.451-  74 2.11  44 2.11  75 2.11  84 2.11 123 2.11  78 2.13
 203  0.250  0.500  0.352-  75 2.11  58 2.11  74 2.11  41 2.11  81 2.11
 204  0.375  0.875  0.352-  76 2.11  73 2.11  42 2.11  82 2.11 121 2.11
 205  0.250  0.875  0.650-  47 2.11  64 2.11  87 2.11  80 2.11  77 2.15
 206  0.374  0.502  0.650-  88 2.09  79 2.09  78 2.12 127 2.13  48 2.14
 207  0.250  0.500  0.549-  79 2.09  62 2.10  75 2.11  85 2.11  45 2.11  78 2.13
 208  0.375  0.875  0.549-  80 2.10  76 2.11  46 2.11  77 2.11  86 2.11 125 2.11
 209  0.250  0.625  0.451-  81 2.11  75 2.11  68 2.11  83 2.11  84 2.11  85 2.11
 210  0.375  0.750  0.451-  82 2.11  76 2.11  83 2.11  84 2.11 131 2.11  86 2.11
 211  0.250  0.750  0.352-  83 2.11  73 2.11  81 2.11  82 2.11  66 2.11
 212  0.375  0.625  0.352-  84 2.11  81 2.11  82 2.11  74 2.11 129 2.11
 213  0.250  0.625  0.650-  72 2.10  87 2.11  79 2.12  88 2.12  85 2.15
 214  0.375  0.750  0.650-  80 2.11  87 2.11  88 2.11 135 2.11  86 2.15
 215  0.250  0.750  0.549-  87 2.10  77 2.11  70 2.11  83 2.11  86 2.11  85 2.11
 216  0.375  0.625  0.549-  88 2.09  86 2.10  84 2.11  85 2.11 133 2.11  78 2.13
 217  0.500  0.375  0.451-  89 2.11  44 2.11  92 2.11  99 2.11 123 2.11  93 2.15
 218  0.625  0.000  0.451-  90 2.11  91 2.11 100 2.11 107 2.11 124 2.11  94 2.11
 219  0.500  0.000  0.352-  91 2.11  90 2.11  42 2.11  97 2.11 121 2.11
 220  0.625  0.375  0.352-  92 2.11  89 2.11  98 2.11 105 2.11 122 2.11
 221  0.500  0.375  0.649-  93 2.09  48 2.12  96 2.12 103 2.12 127 2.12
 222  0.625  1.000  0.650- 128 2.11 111 2.11 104 2.11  95 2.11  94 2.15
 223  0.500  1.000  0.549-  95 2.09 125 2.11  91 2.11  46 2.11  94 2.11 101 2.12
 224  0.625  0.375  0.550- 109 2.10 102 2.10 126 2.10  93 2.12  92 2.12  96 2.16
 225  0.500  0.125  0.451-  97 2.11  91 2.11  52 2.11  99 2.11 100 2.11 101 2.12
 226  0.625  0.250  0.451-  98 2.11  92 2.11  99 2.11 100 2.11 115 2.11 102 2.13
 227  0.500  0.250  0.352-  99 2.11  89 2.11  97 2.11  98 2.11  50 2.11
 228  0.625  0.125  0.352- 100 2.11  97 2.11  98 2.11  90 2.11 113 2.11
 229  0.500  0.124  0.650-  95 2.09 104 2.11  56 2.12 103 2.12 101 2.14
 230  0.626  0.248  0.650- 104 2.09 119 2.09 102 2.12 103 2.13  96 2.14
 231  0.500  0.250  0.550- 101 2.10  54 2.10 102 2.10  93 2.12  99 2.12 103 2.16
 232  0.625  0.125  0.549- 104 2.09  94 2.10 100 2.10 117 2.11 101 2.11 102 2.13
 233  0.750  0.375  0.451- 105 2.11  92 2.11 108 2.11 115 2.11 139 2.11 109 2.12
 234  0.875  0.000  0.451- 106 2.11  27 2.11 107 2.11 116 2.11 140 2.11 110 2.11
 235  0.750  0.000  0.352- 107 2.11 106 2.11  90 2.11 113 2.11 137 2.11
 236  0.875  0.375  0.352- 108 2.11 105 2.11  25 2.11 114 2.11 138 2.11
 237  0.751  0.375  0.650- 112 2.09 143 2.11 119 2.12  96 2.12 109 2.14
 238  0.875  1.000  0.650- 144 2.11  31 2.11 111 2.11 120 2.11 110 2.15
 239  0.750  1.000  0.549- 111 2.10 141 2.11 107 2.11 110 2.11 117 2.11  94 2.11
 240  0.875  0.375  0.549- 112 2.09  29 2.11 108 2.11 142 2.11 118 2.11 109 2.12
 241  0.750  0.125  0.451- 113 2.11 107 2.11 100 2.11 115 2.11 116 2.11 117 2.11
 242  0.875  0.250  0.451- 114 2.11 108 2.11  35 2.11 115 2.11 116 2.11 118 2.11
 243  0.750  0.250  0.352- 115 2.11 105 2.11 113 2.11 114 2.11  98 2.11
 244  0.875  0.125  0.352- 116 2.11 106 2.11 113 2.11 114 2.11  33 2.11
 245  0.750  0.125  0.650- 120 2.10 111 2.11 119 2.12 104 2.12 117 2.15
 246  0.875  0.250  0.650-  39 2.11 120 2.11 119 2.11 112 2.11 118 2.15
 247  0.750  0.250  0.549- 119 2.08 118 2.10 115 2.11 117 2.11 109 2.11 102 2.13
 248  0.875  0.125  0.549- 120 2.10  37 2.11 116 2.11 110 2.11 117 2.11 118 2.11
 249  0.500  0.875  0.451- 121 2.11  91 2.11  76 2.11 124 2.11 131 2.11 125 2.11
 250  0.625  0.500  0.451- 122 2.11  92 2.11 123 2.11 132 2.11 139 2.11 126 2.13
 251  0.500  0.500  0.352- 123 2.11  89 2.11 122 2.11  74 2.11 129 2.11
 252  0.625  0.875  0.352- 124 2.11 121 2.11  90 2.11 130 2.11 137 2.11
 253  0.500  0.875  0.650- 135 2.11  95 2.11 128 2.11  80 2.11 125 2.15
 254  0.627  0.501  0.650- 143 2.09 136 2.09 126 2.12  96 2.13 127 2.14
 255  0.500  0.500  0.550- 133 2.10 126 2.10  78 2.10  93 2.12 123 2.12 127 2.16
 256  0.625  0.875  0.549- 128 2.10 124 2.11  94 2.11 134 2.11 141 2.11 125 2.11
 257  0.500  0.625  0.451- 129 2.11 123 2.11  84 2.11 131 2.11 132 2.11 133 2.12
 258  0.625  0.750  0.451- 130 2.11 124 2.11 131 2.11 132 2.11 147 2.11 134 2.11
 259  0.500  0.750  0.352- 131 2.11 121 2.11 129 2.11 130 2.11  82 2.11
 260  0.625  0.625  0.352- 132 2.11 129 2.11 130 2.11 122 2.11 145 2.11
 261  0.500  0.626  0.650- 135 2.09  88 2.11 136 2.11 127 2.13 133 2.14
 262  0.625  0.750  0.650- 128 2.11 151 2.11 136 2.11 135 2.11 134 2.15
 263  0.500  0.750  0.549- 135 2.09 125 2.11 131 2.11 134 2.11  86 2.11 133 2.12
 264  0.625  0.625  0.549- 136 2.08 134 2.10 132 2.11 149 2.11 133 2.11 126 2.13
 265  0.750  0.875  0.451- 137 2.11 124 2.11 107 2.11 140 2.11 147 2.11 141 2.11
 266  0.875  0.500  0.451- 138 2.11 108 2.11  59 2.11 139 2.11 148 2.11 142 2.11
 267  0.750  0.500  0.352- 139 2.11 122 2.11 138 2.11 105 2.11 145 2.11
 268  0.875  0.875  0.352- 140 2.11 106 2.11 137 2.11  57 2.11 146 2.11
 269  0.750  0.875  0.650- 111 2.11 151 2.11 144 2.11 128 2.11 141 2.15
 270  0.875  0.500  0.650-  63 2.11 152 2.11 143 2.11 112 2.11 142 2.15
 271  0.750  0.500  0.549- 143 2.09 142 2.10 139 2.11 149 2.11 109 2.11 126 2.13
 272  0.875  0.875  0.549- 144 2.10 140 2.11  61 2.11 110 2.11 150 2.11 141 2.11
 273  0.750  0.625  0.451- 145 2.11 139 2.11 132 2.11 147 2.11 148 2.11 149 2.11
 274  0.875  0.750  0.451- 146 2.11 140 2.11  67 2.11 147 2.11 148 2.11 150 2.11
 275  0.750  0.750  0.352- 147 2.11 137 2.11 145 2.11 146 2.11 130 2.11
 276  0.875  0.625  0.352- 148 2.11 138 2.11 145 2.11 146 2.11  65 2.11
 277  0.750  0.625  0.650- 151 2.10 152 2.11 136 2.11 143 2.12 149 2.15
 278  0.875  0.750  0.650- 144 2.11  71 2.11 152 2.11 151 2.11 150 2.15
 279  0.750  0.750  0.549- 151 2.10 141 2.11 150 2.11 147 2.11 149 2.11 134 2.11
 280  0.875  0.625  0.549- 152 2.10  69 2.11 150 2.11 148 2.11 142 2.11 149 2.11


IMPORTANT INFORMATION: All symmetrisations will be switched off!
NOSYMM: (Re-)initialisation of all symmetry stuff for point group C_1.


----------------------------------------------------------------------------------------

                                     Primitive cell                                     

  volume of cell :    6079.2794

  direct lattice vectors                    reciprocal lattice vectors
    16.881969308  0.000000000  0.000000000     0.059234796  0.000000000  0.000000000
     0.000000000 16.881969308  0.000000000     0.000000000  0.059234796  0.000000000
     0.000000000  0.000000000 21.330738491     0.000000000  0.000000000  0.046880702

  length of vectors
    16.881969308 16.881969308 21.330738491     0.059234796  0.059234796  0.046880702

  position of ions in fractional coordinates (direct lattice)
     0.528222681  0.556132492  0.794340469
     0.319301119  0.401045437  0.795271378
     0.474238084  0.194175506  0.795401519
     0.681254642  0.346584835  0.794092045
     0.508242562  0.487837687  0.756771032
     0.387157520  0.382643661  0.756737555
     0.492196414  0.261853267  0.756566724
     0.613019269  0.366623831  0.756507484
     0.520044209  0.543441352  0.844589678
     0.552349315  0.448679195  0.759487494
     0.590049919  0.573673351  0.785699544
     0.489407581  0.604710593  0.779693838
     0.332961680  0.391879586  0.845252345
     0.426056281  0.426945773  0.759692949
     0.300841607  0.462820698  0.787703868
     0.270934155  0.361966174  0.780625921
     0.483807297  0.208086506  0.845291735
     0.447841908  0.300744467  0.759499169
     0.412433735  0.175546937  0.788196765
     0.513330454  0.145840181  0.780702366
     0.668657795  0.355176649  0.844320077
     0.573712673  0.322605410  0.759220498
     0.698548975  0.284636958  0.785697791
     0.729951644  0.385142120  0.779236018
     0.000000000  0.375000000  0.351605267
     0.125000000  0.000000000  0.351605267
     0.000000000  0.000000000  0.450535089
     0.125000000  0.375000000  0.450535089
     0.000008808  0.375018536  0.549586802
     0.124971452  0.999978444  0.549628335
     0.000003672  0.999919490  0.647797068
     0.124936914  0.375003271  0.647492343
     0.000000000  0.125000000  0.351605267
     0.125000000  0.250000000  0.351605267
     0.000000000  0.250000000  0.450535089
     0.125000000  0.125000000  0.450535089
     0.000003937  0.124963571  0.549627352
     0.124977474  0.250014811  0.549537325
     0.000002242  0.249910598  0.647727262
     0.124929818  0.124861943  0.647718410
     0.250000000  0.375000000  0.351605267
     0.375000000  0.000000000  0.351605267
     0.250000000  0.000000000  0.450535089
     0.375000000  0.375000000  0.450535089
     0.250440342  0.374965528  0.549845172
     0.375019519  0.999961109  0.549533980
     0.249870332  0.999916080  0.647705923
     0.374644803  0.374925636  0.651017521
     0.250000000  0.125000000  0.351605267
     0.375000000  0.250000000  0.351605267
     0.250000000  0.250000000  0.450535089
     0.375000000  0.125000000  0.450535089
     0.249995424  0.124995930  0.549492924
     0.375479403  0.250503784  0.550239935
     0.249915991  0.249768240  0.647050138
     0.374810520  0.124885232  0.646989309
     0.000000000  0.875000000  0.351605267
     0.125000000  0.500000000  0.351605267
     0.000000000  0.500000000  0.450535089
     0.125000000  0.875000000  0.450535089
     0.000002489  0.874994080  0.549640776
     0.124976772  0.499978421  0.549544962
     0.000014135  0.500106097  0.647752864
     0.124923381  0.874989408  0.647795667
     0.000000000  0.625000000  0.351605267
     0.125000000  0.750000000  0.351605267
     0.000000000  0.750000000  0.450535089
     0.125000000  0.625000000  0.450535089
     0.000003410  0.625027957  0.549634230
     0.124988039  0.750004761  0.549634049
     0.000007010  0.750070696  0.647795661
     0.124944917  0.625111807  0.647720460
     0.250000000  0.875000000  0.351605267
     0.375000000  0.500000000  0.351605267
     0.250000000  0.500000000  0.450535089
     0.375000000  0.875000000  0.450535089
     0.249959004  0.874994318  0.549636888
     0.375545568  0.499499421  0.550265443
     0.249941980  0.500169749  0.647015663
     0.374900474  0.875001848  0.647742345
     0.250000000  0.625000000  0.351605267
     0.375000000  0.750000000  0.351605267
     0.250000000  0.750000000  0.450535089
     0.375000000  0.625000000  0.450535089
     0.250021162  0.624983530  0.549504499
     0.375015819  0.750017988  0.549546183
     0.249864794  0.750058941  0.647730044
     0.374794404  0.625067905  0.647077665
     0.500000000  0.375000000  0.351605267
     0.625000000  0.000000000  0.351605267
     0.500000000  0.000000000  0.450535089
     0.625000000  0.375000000  0.450535089
     0.499999875  0.374969956  0.551160015
     0.624991375  0.999960089  0.549534061
     0.500005515  0.999908789  0.647486628
     0.625353811  0.374975048  0.650988412
     0.500000000  0.125000000  0.351605267
     0.625000000  0.250000000  0.351605267
     0.500000000  0.250000000  0.450535089
     0.625000000  0.125000000  0.450535089
     0.500028907  0.125414159  0.549832277
     0.624484765  0.250445801  0.550228435
     0.500032734  0.249543362  0.650974468
     0.625239282  0.124870506  0.647033102
     0.750000000  0.375000000  0.351605267
     0.875000000  0.000000000  0.351605267
     0.750000000  0.000000000  0.450535089
     0.875000000  0.375000000  0.450535089
     0.749575600  0.375025438  0.549833122
     0.875032791  0.999969480  0.549628921
     0.750154310  0.999902603  0.647712904
     0.875089856  0.375004168  0.647479329
     0.750000000  0.125000000  0.351605267
     0.875000000  0.250000000  0.351605267
     0.750000000  0.250000000  0.450535089
     0.875000000  0.125000000  0.450535089
     0.750006107  0.124980211  0.549486646
     0.875042084  0.250017522  0.549534942
     0.750111270  0.249790698  0.646960802
     0.875082210  0.124865917  0.647711766
     0.500000000  0.875000000  0.351605267
     0.625000000  0.500000000  0.351605267
     0.500000000  0.500000000  0.450535089
     0.625000000  0.875000000  0.450535089
     0.499996587  0.875008215  0.549574190
     0.624519060  0.499440786  0.550246159
     0.499983108  0.500300316  0.651066349
     0.625093194  0.874986533  0.647723720
     0.500000000  0.625000000  0.351605267
     0.625000000  0.750000000  0.351605267
     0.500000000  0.750000000  0.450535089
     0.625000000  0.625000000  0.450535089
     0.499971823  0.624532846  0.549848546
     0.624970316  0.750026667  0.549541464
     0.500005840  0.750075509  0.647460798
     0.625188122  0.625068416  0.646970608
     0.750000000  0.875000000  0.351605267
     0.875000000  0.500000000  0.351605267
     0.750000000  0.500000000  0.450535089
     0.875000000  0.875000000  0.450535089
     0.750041722  0.874987491  0.549635617
     0.875032327  0.499992674  0.549543044
     0.750085044  0.500204035  0.647063523
     0.875083616  0.874982539  0.647792298
     0.750000000  0.625000000  0.351605267
     0.875000000  0.750000000  0.351605267
     0.750000000  0.750000000  0.450535089
     0.875000000  0.625000000  0.450535089
     0.749988963  0.624984943  0.549494734
     0.875015082  0.750009539  0.549635229
     0.750114030  0.750064750  0.647705993
     0.875063763  0.625146023  0.647729831
     0.000000000  0.375000000  0.450535089
     0.125000000  0.000000000  0.450535089
     0.000000000  0.000000000  0.351605267
     0.125000000  0.375000000  0.351605267
     0.000006396  0.374991535  0.650286369
     0.124861029  0.999843086  0.650235404
     0.000005566  0.999938211  0.549467404
     0.124797438  0.375006601  0.549350775
     0.000000000  0.125000000  0.450535089
     0.125000000  0.250000000  0.450535089
     0.000000000  0.250000000  0.351605267
     0.125000000  0.125000000  0.351605267
     0.000002043  0.124886291  0.650244481
     0.124818378  0.249804343  0.650304637
     0.000010832  0.249938970  0.549435587
     0.124881834  0.124881787  0.549392446
     0.250000000  0.375000000  0.450535089
     0.375000000  0.000000000  0.450535089
     0.250000000  0.000000000  0.351605267
     0.375000000  0.375000000  0.351605267
     0.248833192  0.374974188  0.650345750
     0.374795546  0.999819346  0.650296305
     0.249886480  0.999882272  0.549388987
     0.374581784  0.375015067  0.549956322
     0.250000000  0.125000000  0.450535089
     0.375000000  0.250000000  0.450535089
     0.250000000  0.250000000  0.351605267
     0.375000000  0.125000000  0.351605267
     0.249575004  0.124524703  0.650241238
     0.373426231  0.248704921  0.649696968
     0.249595461  0.249815180  0.549229012
     0.374851064  0.124601799  0.549245983
     0.000000000  0.875000000  0.450535089
     0.125000000  0.500000000  0.450535089
     0.000000000  0.500000000  0.351605267
     0.125000000  0.875000000  0.351605267
     0.999999681  0.874975547  0.650225403
     0.124853073  0.500188700  0.650310112
     0.000002431  0.500062871  0.549470303
     0.124952540  0.874997208  0.549418599
     0.000000000  0.625000000  0.450535089
     0.125000000  0.750000000  0.450535089
     0.000000000  0.750000000  0.351605267
     0.125000000  0.625000000  0.351605267
     0.000010137  0.625160318  0.650231116
     0.124855513  0.750138494  0.650248526
     0.000010987  0.750055531  0.549432889
     0.124902821  0.625093795  0.549395429
     0.250000000  0.875000000  0.450535089
     0.375000000  0.500000000  0.450535089
     0.250000000  0.500000000  0.351605267
     0.375000000  0.875000000  0.351605267
     0.249858637  0.875009203  0.650251967
     0.373773802  0.501538908  0.649762209
     0.249652259  0.500150387  0.549257927
     0.374933301  0.875001952  0.549423229
     0.250000000  0.625000000  0.450535089
     0.375000000  0.750000000  0.450535089
     0.250000000  0.750000000  0.351605267
     0.375000000  0.625000000  0.351605267
     0.249568883  0.625391104  0.650268219
     0.374811901  0.750177094  0.650320507
     0.249891509  0.750111139  0.549413835
     0.374834092  0.625386180  0.549245947
     0.500000000  0.375000000  0.450535089
     0.625000000  0.000000000  0.450535089
     0.500000000  0.000000000  0.351605267
     0.625000000  0.375000000  0.351605267
     0.499995200  0.374918001  0.649362851
     0.625217233  0.999798765  0.650300088
     0.500003849  0.999802402  0.549399222
     0.625424663  0.374942491  0.549944347
     0.500000000  0.125000000  0.450535089
     0.625000000  0.250000000  0.450535089
     0.500000000  0.250000000  0.351605267
     0.625000000  0.125000000  0.351605267
     0.500033074  0.123775331  0.650303981
     0.626282778  0.248343460  0.649676222
     0.499973758  0.249561459  0.549940925
     0.625183276  0.124558493  0.549210199
     0.750000000  0.375000000  0.450535089
     0.875000000  0.000000000  0.450535089
     0.750000000  0.000000000  0.351605267
     0.875000000  0.375000000  0.351605267
     0.751193410  0.375009548  0.650301830
     0.875140450  0.999833970  0.650246066
     0.750121614  0.999873936  0.549394787
     0.875221154  0.375010701  0.549341763
     0.750000000  0.125000000  0.450535089
     0.875000000  0.250000000  0.450535089
     0.750000000  0.250000000  0.351605267
     0.875000000  0.125000000  0.351605267
     0.750484949  0.124558644  0.650242681
     0.875187623  0.249823319  0.650288833
     0.750385454  0.249835289  0.549243485
     0.875126574  0.124881966  0.549390923
     0.500000000  0.875000000  0.450535089
     0.625000000  0.500000000  0.450535089
     0.500000000  0.500000000  0.351605267
     0.625000000  0.875000000  0.351605267
     0.499998129  0.874982134  0.650270406
     0.626597532  0.501192640  0.649739743
     0.500037338  0.500362570  0.549970286
     0.625063678  0.874997672  0.549414230
     0.500000000  0.625000000  0.450535089
     0.625000000  0.750000000  0.450535089
     0.500000000  0.750000000  0.351605267
     0.625000000  0.625000000  0.351605267
     0.499987944  0.626195823  0.650304795
     0.625169484  0.750160970  0.650275552
     0.499995781  0.750197023  0.549340260
     0.625144638  0.625346139  0.549261146
     0.750000000  0.875000000  0.450535089
     0.875000000  0.500000000  0.450535089
     0.750000000  0.500000000  0.351605267
     0.875000000  0.875000000  0.351605267
     0.750131606  0.874992923  0.650241603
     0.875172313  0.500212636  0.650322465
     0.750395255  0.500180891  0.549221739
     0.875054456  0.874991174  0.549416094
     0.750000000  0.625000000  0.450535089
     0.875000000  0.750000000  0.450535089
     0.750000000  0.750000000  0.351605267
     0.875000000  0.625000000  0.351605267
     0.750394322  0.625443502  0.650263753
     0.875152181  0.750146106  0.650249707
     0.750099783  0.750100395  0.549401005
     0.875107488  0.625108571  0.549400590

  ion indices of the primitive-cell ions
   primitive index   ion index
                 1           1
                 2           2
                 3           3
                 4           4
                 5           5
                 6           6
                 7           7
                 8           8
                 9           9
                10          10
                11          11
                12          12
                13          13
                14          14
                15          15
                16          16
                17          17
                18          18
                19          19
                20          20
                21          21
                22          22
                23          23
                24          24
                25          25
                26          26
                27          27
                28          28
                29          29
                30          30
                31          31
                32          32
                33          33
                34          34
                35          35
                36          36
                37          37
                38          38
                39          39
                40          40
                41          41
                42          42
                43          43
                44          44
                45          45
                46          46
                47          47
                48          48
                49          49
                50          50
                51          51
                52          52
                53          53
                54          54
                55          55
                56          56
                57          57
                58          58
                59          59
                60          60
                61          61
                62          62
                63          63
                64          64
                65          65
                66          66
                67          67
                68          68
                69          69
                70          70
                71          71
                72          72
                73          73
                74          74
                75          75
                76          76
                77          77
                78          78
                79          79
                80          80
                81          81
                82          82
                83          83
                84          84
                85          85
                86          86
                87          87
                88          88
                89          89
                90          90
                91          91
                92          92
                93          93
                94          94
                95          95
                96          96
                97          97
                98          98
                99          99
               100         100
               101         101
               102         102
               103         103
               104         104
               105         105
               106         106
               107         107
               108         108
               109         109
               110         110
               111         111
               112         112
               113         113
               114         114
               115         115
               116         116
               117         117
               118         118
               119         119
               120         120
               121         121
               122         122
               123         123
               124         124
               125         125
               126         126
               127         127
               128         128
               129         129
               130         130
               131         131
               132         132
               133         133
               134         134
               135         135
               136         136
               137         137
               138         138
               139         139
               140         140
               141         141
               142         142
               143         143
               144         144
               145         145
               146         146
               147         147
               148         148
               149         149
               150         150
               151         151
               152         152
               153         153
               154         154
               155         155
               156         156
               157         157
               158         158
               159         159
               160         160
               161         161
               162         162
               163         163
               164         164
               165         165
               166         166
               167         167
               168         168
               169         169
               170         170
               171         171
               172         172
               173         173
               174         174
               175         175
               176         176
               177         177
               178         178
               179         179
               180         180
               181         181
               182         182
               183         183
               184         184
               185         185
               186         186
               187         187
               188         188
               189         189
               190         190
               191         191
               192         192
               193         193
               194         194
               195         195
               196         196
               197         197
               198         198
               199         199
               200         200
               201         201
               202         202
               203         203
               204         204
               205         205
               206         206
               207         207
               208         208
               209         209
               210         210
               211         211
               212         212
               213         213
               214         214
               215         215
               216         216
               217         217
               218         218
               219         219
               220         220
               221         221
               222         222
               223         223
               224         224
               225         225
               226         226
               227         227
               228         228
               229         229
               230         230
               231         231
               232         232
               233         233
               234         234
               235         235
               236         236
               237         237
               238         238
               239         239
               240         240
               241         241
               242         242
               243         243
               244         244
               245         245
               246         246
               247         247
               248         248
               249         249
               250         250
               251         251
               252         252
               253         253
               254         254
               255         255
               256         256
               257         257
               258         258
               259         259
               260         260
               261         261
               262         262
               263         263
               264         264
               265         265
               266         266
               267         267
               268         268
               269         269
               270         270
               271         271
               272         272
               273         273
               274         274
               275         275
               276         276
               277         277
               278         278
               279         279
               280         280

----------------------------------------------------------------------------------------



 KPOINTS: pymatgen v2020.8.13 with grid density = 

Automatic generation of k-mesh.
 Grid dimensions read from file:
 generate k-points for:    1    1    1

 Generating k-lattice:

  Cartesian coordinates                     Fractional coordinates (reciprocal lattice)
     0.059234796  0.000000000  0.000000000     1.000000000  0.000000000  0.000000000
     0.000000000  0.059234796  0.000000000     0.000000000  1.000000000  0.000000000
     0.000000000  0.000000000  0.046880702     0.000000000  0.000000000  1.000000000

  Length of vectors
     0.059234796  0.059234796  0.046880702

  Shift w.r.t. Gamma in fractional coordinates (k-lattice)
     0.000000000  0.000000000  0.000000000

 
 Subroutine IBZKPT returns following result:
 ===========================================
 
 Found      1 irreducible k-points:
 
 Following reciprocal coordinates:
            Coordinates               Weight
  0.000000  0.000000  0.000000      1.000000
 
 Following cartesian coordinates:
            Coordinates               Weight
  0.000000  0.000000  0.000000      1.000000
 
 
 Subroutine IBZKPT_HF returns following result:
 ==============================================
 
 Found      1 k-points in 1st BZ
 the following      1 k-points will be used (e.g. in the exchange kernel)
 Following reciprocal coordinates:   # in IRBZ
  0.000000  0.000000  0.000000    1.00000000   1 t-inv F


--------------------------------------------------------------------------------------------------------




 Dimension of arrays:
   k-points           NKPTS =      1   k-points in BZ     NKDIM =      1   number of bands    NBANDS=   1152
   number of dos      NEDOS =    301   number of ions     NIONS =    280
   non local maximal  LDIM  =      5   non local SUM 2l+1 LMDIM =     13
   total plane-waves  NPLWV = ******
   max r-space proj   IRMAX =   3759   max aug-charges    IRDMAX=   8433
   dimension x,y,z NGX =   126 NGY =  126 NGZ =  160
   dimension x,y,z NGXF=   252 NGYF=  252 NGZF=  320
   support grid    NGXF=   252 NGYF=  252 NGZF=  320
   ions per type =               4   4  16 128 128
   NGX,Y,Z   is equivalent  to a cutoff of  12.41, 12.41, 12.47 a.u.
   NGXF,Y,Z  is equivalent  to a cutoff of  24.82, 24.82, 24.94 a.u.

 SYSTEM =  MgO-rocksalt                            
 POSCAR =   C  O  H Mg  O                          

--------------------------------------------------------------------------------------------------------


  energy-cutoff  :      520.00
  volume of cell :     6079.28
      direct lattice vectors                 reciprocal lattice vectors
    16.881969308  0.000000000  0.000000000     0.059234796  0.000000000  0.000000000
     0.000000000 16.881969308  0.000000000     0.000000000  0.059234796  0.000000000
     0.000000000  0.000000000 21.330738491     0.000000000  0.000000000  0.046880702

  length of vectors
    16.881969308 16.881969308 21.330738491     0.059234796  0.059234796  0.046880702



 k-points in units of 2pi/SCALE and weight: pymatgen v2020.8.13 with grid density = 
   0.00000000  0.00000000  0.00000000       1.000

 k-points in reciprocal lattice and weights: pymatgen v2020.8.13 with grid density = 
   0.00000000  0.00000000  0.00000000       1.000

 position of ions in fractional coordinates (direct lattice) 
   0.52822268  0.55613249  0.79434047
   0.31930112  0.40104544  0.79527138
   0.47423808  0.19417551  0.79540152
   0.68125464  0.34658484  0.79409205
   0.50824256  0.48783769  0.75677103
   0.38715752  0.38264366  0.75673755
   0.49219641  0.26185327  0.75656672
   0.61301927  0.36662383  0.75650748
   0.52004421  0.54344135  0.84458968
   0.55234932  0.44867920  0.75948749
   0.59004992  0.57367335  0.78569954
   0.48940758  0.60471059  0.77969384
   0.33296168  0.39187959  0.84525235
   0.42605628  0.42694577  0.75969295
   0.30084161  0.46282070  0.78770387
   0.27093416  0.36196617  0.78062592
   0.48380730  0.20808651  0.84529173
   0.44784191  0.30074447  0.75949917
   0.41243373  0.17554694  0.78819677
   0.51333045  0.14584018  0.78070237
   0.66865780  0.35517665  0.84432008
   0.57371267  0.32260541  0.75922050
   0.69854898  0.28463696  0.78569779
   0.72995164  0.38514212  0.77923602
   0.00000000  0.37500000  0.35160527
   0.12500000  0.00000000  0.35160527
   0.00000000  0.00000000  0.45053509
   0.12500000  0.37500000  0.45053509
   0.00000881  0.37501854  0.54958680
   0.12497145  0.99997844  0.54962833
   0.00000367  0.99991949  0.64779707
   0.12493691  0.37500327  0.64749234
   0.00000000  0.12500000  0.35160527
   0.12500000  0.25000000  0.35160527
   0.00000000  0.25000000  0.45053509
   0.12500000  0.12500000  0.45053509
   0.00000394  0.12496357  0.54962735
   0.12497747  0.25001481  0.54953732
   0.00000224  0.24991060  0.64772726
   0.12492982  0.12486194  0.64771841
   0.25000000  0.37500000  0.35160527
   0.37500000  0.00000000  0.35160527
   0.25000000  0.00000000  0.45053509
   0.37500000  0.37500000  0.45053509
   0.25044034  0.37496553  0.54984517
   0.37501952  0.99996111  0.54953398
   0.24987033  0.99991608  0.64770592
   0.37464480  0.37492564  0.65101752
   0.25000000  0.12500000  0.35160527
   0.37500000  0.25000000  0.35160527
   0.25000000  0.25000000  0.45053509
   0.37500000  0.12500000  0.45053509
   0.24999542  0.12499593  0.54949292
   0.37547940  0.25050378  0.55023994
   0.24991599  0.24976824  0.64705014
   0.37481052  0.12488523  0.64698931
   0.00000000  0.87500000  0.35160527
   0.12500000  0.50000000  0.35160527
   0.00000000  0.50000000  0.45053509
   0.12500000  0.87500000  0.45053509
   0.00000249  0.87499408  0.54964078
   0.12497677  0.49997842  0.54954496
   0.00001414  0.50010610  0.64775286
   0.12492338  0.87498941  0.64779567
   0.00000000  0.62500000  0.35160527
   0.12500000  0.75000000  0.35160527
   0.00000000  0.75000000  0.45053509
   0.12500000  0.62500000  0.45053509
   0.00000341  0.62502796  0.54963423
   0.12498804  0.75000476  0.54963405
   0.00000701  0.75007070  0.64779566
   0.12494492  0.62511181  0.64772046
   0.25000000  0.87500000  0.35160527
   0.37500000  0.50000000  0.35160527
   0.25000000  0.50000000  0.45053509
   0.37500000  0.87500000  0.45053509
   0.24995900  0.87499432  0.54963689
   0.37554557  0.49949942  0.55026544
   0.24994198  0.50016975  0.64701566
   0.37490047  0.87500185  0.64774235
   0.25000000  0.62500000  0.35160527
   0.37500000  0.75000000  0.35160527
   0.25000000  0.75000000  0.45053509
   0.37500000  0.62500000  0.45053509
   0.25002116  0.62498353  0.54950450
   0.37501582  0.75001799  0.54954618
   0.24986479  0.75005894  0.64773004
   0.37479440  0.62506791  0.64707767
   0.50000000  0.37500000  0.35160527
   0.62500000  0.00000000  0.35160527
   0.50000000  0.00000000  0.45053509
   0.62500000  0.37500000  0.45053509
   0.49999987  0.37496996  0.55116002
   0.62499137  0.99996009  0.54953406
   0.50000552  0.99990879  0.64748663
   0.62535381  0.37497505  0.65098841
   0.50000000  0.12500000  0.35160527
[...]
      0.000000  0.000000  9.610246            0           0           0  
      2.110246  6.330738  9.610246            0           0           0  
      0.000149  6.331051 11.723092            0           0           0  
      2.109764 16.881605 11.723978            0           0           0  
      0.000062 16.880610 13.817990            0           0           0  
      2.109181  6.330794 13.811490            0           0           0  
      0.000000  2.110246  7.500000            0           0           0  
      2.110246  4.220492  7.500000            0           0           0  
      0.000000  4.220492  9.610246            0           0           0  
      2.110246  2.110246  9.610246            0           0           0  
      0.000066  2.109631 11.723957            0           0           0  
      2.109866  4.220742 11.722037            0           0           0  
      0.000038  4.218983 13.816501            0           0           0  
      2.109061  2.107915 13.816312            0           0           0  
      4.220492  6.330738  7.500000            0           0           0  
      6.330738  0.000000  7.500000            0           0           0  
      4.220492  0.000000  9.610246            0           0           0  
      6.330738  6.330738  9.610246            0           0           0  
      4.227926  6.330157 11.728604            0           0           0  
      6.331068 16.881313 11.721966            0           0           0  
      4.218303 16.880553 13.816046            0           0           0  
      6.324742  6.329483 13.886684            0           0           0  
      4.220492  2.110246  7.500000            0           0           0  
      6.330738  4.220492  7.500000            0           0           0  
      4.220492  4.220492  9.610246            0           0           0  
      6.330738  2.110246  9.610246            0           0           0  
      4.220415  2.110177 11.721090            0           0           0  
      6.338832  4.228997 11.737024            0           0           0  
      4.219074  4.216580 13.802057            0           0           0  
      6.327540  2.108309 13.800760            0           0           0  
      0.000000 14.771723  7.500000            0           0           0  
      2.110246  8.440985  7.500000            0           0           0  
      0.000000  8.440985  9.610246            0           0           0  
      2.110246 14.771723  9.610246            0           0           0  
      0.000042 14.771623 11.724244            0           0           0  
      2.109854  8.440620 11.722200            0           0           0  
      0.000239  8.442776 13.817047            0           0           0  
      2.108953 14.771544 13.817960            0           0           0  
      0.000000 10.551231  7.500000            0           0           0  
      2.110246 12.661477  7.500000            0           0           0  
      0.000000 12.661477  9.610246            0           0           0  
      2.110246 10.551231  9.610246            0           0           0  
      0.000058 10.551703 11.724104            0           0           0  
      2.110044 12.661557 11.724100            0           0           0  
      0.000118 12.662670 13.817960            0           0           0  
      2.109316 10.553118 13.816356            0           0           0  
      4.220492 14.771723  7.500000            0           0           0  
      6.330738  8.440985  7.500000            0           0           0  
      4.220492  8.440985  9.610246            0           0           0  
      6.330738 14.771723  9.610246            0           0           0  
      4.219800 14.771627 11.724161            0           0           0  
      6.339949  8.432534 11.737568            0           0           0  
      4.219513  8.443850 13.801322            0           0           0  
      6.329058 14.771754 13.816823            0           0           0  
      4.220492 10.551231  7.500000            0           0           0  
      6.330738 12.661477  7.500000            0           0           0  
      4.220492 12.661477  9.610246            0           0           0  
      6.330738 10.551231  9.610246            0           0           0  
      4.220850 10.550953 11.721337            0           0           0  
      6.331006 12.661781 11.722226            0           0           0  
      4.218210 12.662472 13.816560            0           0           0  
      6.327268 10.552377 13.802644            0           0           0  
      8.440985  6.330738  7.500000            0           0           0  
     10.551231  0.000000  7.500000            0           0           0  
      8.440985  0.000000  9.610246            0           0           0  
     10.551231  6.330738  9.610246            0           0           0  
      8.440983  6.330231 11.756650            0           0           0  
     10.551085 16.881296 11.721967            0           0           0  
      8.441078 16.880429 13.811368            0           0           0  
     10.557204  6.330317 13.886064            0           0           0  
      8.440985  2.110246  7.500000            0           0           0  
     10.551231  4.220492  7.500000            0           0           0  
      8.440985  4.220492  9.610246            0           0           0  
     10.551231  2.110246  9.610246            0           0           0  
      8.441473  2.117238 11.728329            0           0           0  
     10.542533  4.228018 11.736779            0           0           0  
      8.441537  4.212783 13.885766            0           0           0  
     10.555270  2.108060 13.801694            0           0           0  
     12.661477  6.330738  7.500000            0           0           0  
     14.771723  0.000000  7.500000            0           0           0  
     12.661477  0.000000  9.610246            0           0           0  
     14.771723  6.330738  9.610246            0           0           0  
     12.654312  6.331168 11.728347            0           0           0  
     14.772277 16.881454 11.723991            0           0           0  
     12.664082 16.880325 13.816195            0           0           0  
     14.773240  6.330809 13.811212            0           0           0  
     12.661477  2.110246  7.500000            0           0           0  
     14.771723  4.220492  7.500000            0           0           0  
     12.661477  4.220492  9.610246            0           0           0  
     14.771723  2.110246  9.610246            0           0           0  
     12.661580  2.109912 11.720956            0           0           0  
     14.772434  4.220788 11.721986            0           0           0  
     12.663355  4.216959 13.800152            0           0           0  
     14.773111  2.107983 13.816170            0           0           0  
      8.440985 14.771723  7.500000            0           0           0  
     10.551231  8.440985  7.500000            0           0           0  
      8.440985  8.440985  9.610246            0           0           0  
     10.551231 14.771723  9.610246            0           0           0  
      8.440927 14.771862 11.722823            0           0           0  
     10.543112  8.431544 11.737157            0           0           0  
      8.440699  8.446055 13.887726            0           0           0  
     10.552804 14.771496 13.816425            0           0           0  
      8.440985 10.551231  7.500000            0           0           0  
     10.551231 12.661477  7.500000            0           0           0  
      8.440985 12.661477  9.610246            0           0           0  
     10.551231 10.551231  9.610246            0           0           0  
      8.440509 10.543344 11.728676            0           0           0  
     10.550730 12.661927 11.722125            0           0           0  
      8.441083 12.662752 13.810817            0           0           0  
     10.554407 10.552386 13.800361            0           0           0  
     12.661477 14.771723  7.500000            0           0           0  
     14.771723  8.440985  7.500000            0           0           0  
     12.661477  8.440985  9.610246            0           0           0  
     14.771723 14.771723  9.610246            0           0           0  
     12.662181 14.771512 11.724134            0           0           0  
     14.772269  8.440861 11.722159            0           0           0  
     12.662913  8.444429 13.802343            0           0           0  
     14.773135 14.771428 13.817888            0           0           0  
     12.661477 10.551231  7.500000            0           0           0  
     14.771723 12.661477  7.500000            0           0           0  
     12.661477 12.661477  9.610246            0           0           0  
     14.771723 10.551231  9.610246            0           0           0  
     12.661291 10.550977 11.721128            0           0           0  
     14.771978 12.661638 11.724125            0           0           0  
     12.663402 12.662570 13.816047            0           0           0  
     14.772800 10.553696 13.816556            0           0           0  
      0.000000  6.330738  9.610246            0           0           0  
      2.110246  0.000000  9.610246            0           0           0  
      0.000000  0.000000  7.500000            0           0           0  
      2.110246  6.330738  7.500000            0           0           0  
      0.000108  6.330596 13.871088            0           0           0  
      2.107900 16.879320 13.870001            0           0           0  
      0.000094 16.880926 11.720546            0           0           0  
      2.106827  6.330850 11.718058            0           0           0  
      0.000000  2.110246  9.610246            0           0           0  
      2.110246  4.220492  9.610246            0           0           0  
      0.000000  4.220492  7.500000            0           0           0  
      2.110246  2.110246  7.500000            0           0           0  
      0.000034  2.108327 13.870195            0           0           0  
      2.107180  4.217189 13.871478            0           0           0  
      0.000183  4.219462 11.719867            0           0           0  
      2.108251  2.108250 11.718947            0           0           0  
      4.220492  6.330738  9.610246            0           0           0  
      6.330738  0.000000  9.610246            0           0           0  
      4.220492  0.000000  7.500000            0           0           0  
      6.330738  6.330738  7.500000            0           0           0  
      4.200794  6.330303 13.872355            0           0           0  
      6.327287 16.878920 13.871300            0           0           0  
      4.218576 16.879982 11.718873            0           0           0  
      6.323678  6.330993 11.730974            0           0           0  
      4.220492  2.110246  9.610246            0           0           0  
      6.330738  4.220492  9.610246            0           0           0  
      4.220492  4.220492  7.500000            0           0           0  
      6.330738  2.110246  7.500000            0           0           0  
      4.213318  2.102222 13.870126            0           0           0  
      6.304170  4.198629 13.858516            0           0           0  
      4.213663  4.217372 11.715460            0           0           0  
      6.328224  2.103524 11.715822            0           0           0  
      0.000000 14.771723  9.610246            0           0           0  
      2.110246  8.440985  9.610246            0           0           0  
      0.000000  8.440985  7.500000            0           0           0  
      2.110246 14.771723  7.500000            0           0           0  
     16.881964 14.771310 13.869788            0           0           0  
      2.107766  8.444170 13.871595            0           0           0  
      0.000041  8.442046 11.720607            0           0           0  
      2.109445 14.771676 11.719504            0           0           0  
      0.000000 10.551231  9.610246            0           0           0  
      2.110246 12.661477  9.610246            0           0           0  
      0.000000 12.661477  7.500000            0           0           0  
      2.110246 10.551231  7.500000            0           0           0  
      0.000171 10.553937 13.869910            0           0           0  
      2.107807 12.663815 13.870281            0           0           0  
      0.000185 12.662414 11.719809            0           0           0  
      2.108606 10.552814 11.719010            0           0           0  
      4.220492 14.771723  9.610246            0           0           0  
      6.330738  8.440985  9.610246            0           0           0  
      4.220492  8.440985  7.500000            0           0           0  
      6.330738 14.771723  7.500000            0           0           0  
      4.218106 14.771879 13.870355            0           0           0  
      6.310038  8.466964 13.859908            0           0           0  
      4.214622  8.443523 11.716077            0           0           0  
      6.329612 14.771756 11.719603            0           0           0  
      4.220492 10.551231  9.610246            0           0           0  
      6.330738 12.661477  9.610246            0           0           0  
      4.220492 12.661477  7.500000            0           0           0  
      6.330738 10.551231  7.500000            0           0           0  
      4.213214 10.557833 13.870701            0           0           0  
      6.327563 12.664467 13.871817            0           0           0  
      4.218661 12.663353 11.719403            0           0           0  
      6.327938 10.557750 11.715822            0           0           0  
      8.440985  6.330738  9.610246            0           0           0  
     10.551231  0.000000  9.610246            0           0           0  
      8.440985  0.000000  7.500000            0           0           0  
     10.551231  6.330738  7.500000            0           0           0  
      8.440904  6.329354 13.851389            0           0           0  
     10.554898 16.878572 13.871381            0           0           0  
      8.441050 16.878633 11.719091            0           0           0  
     10.558400  6.329768 11.730719            0           0           0  
      8.440985  2.110246  9.610246            0           0           0  
     10.551231  4.220492  9.610246            0           0           0  
      8.440985  4.220492  7.500000            0           0           0  
     10.551231  2.110246  7.500000            0           0           0  
      8.441543  2.089571 13.871464            0           0           0  
     10.572887  4.192527 13.858074            0           0           0  
      8.440542  4.213089 11.730646            0           0           0  
     10.554325  2.102793 11.715059            0           0           0  
     12.661477  6.330738  9.610246            0           0           0  
     14.771723  0.000000  9.610246            0           0           0  
     12.661477  0.000000  7.500000            0           0           0  
     14.771723  6.330738  7.500000            0           0           0  
     12.681624  6.330900 13.871418            0           0           0  
     14.774094 16.879166 13.870229            0           0           0  
     12.663530 16.879841 11.718997            0           0           0  
     14.775457  6.330919 11.717865            0           0           0  
     12.661477  2.110246  9.610246            0           0           0  
     14.771723  4.220492  9.610246            0           0           0  
     12.661477  4.220492  7.500000            0           0           0  
     14.771723  2.110246  7.500000            0           0           0  
     12.669664  2.102795 13.870157            0           0           0  
     14.774891  4.217510 13.871141            0           0           0  
     12.667984  4.217712 11.715769            0           0           0  
     14.773860  2.108254 11.718914            0           0           0  
      8.440985 14.771723  9.610246            0           0           0  
     10.551231  8.440985  9.610246            0           0           0  
      8.440985  8.440985  7.500000            0           0           0  
     10.551231 14.771723  7.500000            0           0           0  
      8.440953 14.771422 13.870748            0           0           0  
     10.578200  8.461119 13.859429            0           0           0  
      8.441615  8.447106 11.731272            0           0           0  
     10.552306 14.771684 11.719411            0           0           0  
      8.440985 10.551231  9.610246            0           0           0  
     10.551231 12.661477  9.610246            0           0           0  
      8.440985 12.661477  7.500000            0           0           0  
     10.551231 10.551231  7.500000            0           0           0  
      8.440781 10.571419 13.871482            0           0           0  
     10.554092 12.664194 13.870858            0           0           0  
      8.440913 12.664803 11.717833            0           0           0  
     10.553673 10.557074 11.716146            0           0           0  
     12.661477 14.771723  9.610246            0           0           0  
     14.771723  8.440985  9.610246            0           0           0  
     12.661477  8.440985  7.500000            0           0           0  
     14.771723 14.771723  7.500000            0           0           0  
     12.663699 14.771604 13.870134            0           0           0  
     14.774632  8.444574 13.871858            0           0           0  
     12.668150  8.444038 11.715305            0           0           0  
     14.772642 14.771574 11.719451            0           0           0  
     12.661477 10.551231  9.610246            0           0           0  
     14.771723 12.661477  9.610246            0           0           0  
     12.661477 12.661477  7.500000            0           0           0  
     14.771723 10.551231  7.500000            0           0           0  
     12.668134 10.558718 13.870606            0           0           0  
     14.774292 12.663944 13.870306            0           0           0  
     12.663162 12.663172 11.719129            0           0           0  
     14.773538 10.553064 11.719120            0           0           0  

 Finite differences POTIM=   1.0000000000000000E-002
     LOOP+:  cpu time    122.6802: real time    122.9376
    4ORBIT:  cpu time      0.0001: real time      0.0028

 total amount of memory used by VASP MPI-rank0   108464. kBytes
=======================================================================

   base      :      30000. kBytes
   nonlr-proj:      28604. kBytes
   fftplans  :      12135. kBytes
   grid      :      19418. kBytes
   one-center:        283. kBytes
   wavefun   :      18024. kBytes

  
  
 General timing and accounting informations for this job:
 ========================================================
  
                  Total CPU time used (sec):    18771.414
                            User time (sec):    18158.363
                          System time (sec):      613.051
                         Elapsed time (sec):    18806.246
  
                   Maximum memory used (kb):      337480.
                   Average memory used (kb):          N/A
  
                          Minor page faults:     91290482
                          Major page faults:           62
                 Voluntary context switches:        92725
