 vasp.6.3.0 20Jan22 (build Aug 21 2024 11:13:42) complex                         
 executed on        HPECrayEX_GCC date 2024.08.22  14:16:54
 running  384 mpi-ranks, with    1 threads/rank
 distrk:  each k-point on  384 cores,    1 groups
 distr:  one band on NCORE=   8 cores,   48 groups


--------------------------------------------------------------------------------------------------------


 INCAR:
   SYSTEM = MgO-rocksalt
   ISMEAR = 0
   SIGMA = 0.05
   EDIFF = 1E-6
   ALGO = ALL
   ISTART = 0
   IBRION = -1
   NSW = 0
   ISYM = 0
   DIPOL = 0.5 0.5 0.5
   IDIPOL = 4
   LDIPOL = .TRUE.
   GGA = MK
   LUSE_VDW = .TRUE.
   PARAM1 = 0.1234
   PARAM2 = 0.711357
   ZAB_VDW = -1.8867
   AGGAC = 0.0
   ENCUT = 600
   PREC = Accurate
   LASPH = .TRUE.
   LREAL = .FALSE.
   ISPIN = 1
   NELM = 200
   NELMIN = 8
   NCORE = 8
   KPAR = 1
   LWAVE = .FALSE.
   LCHARG = .FALSE.

 POTCAR:    PAW_PBE C 08Apr2002                   
 POTCAR:    PAW_PBE H 15Jun2001                   
 -----------------------------------------------------------------------------
|                                                                             |
|               ----> ADVICE to this user running VASP <----                  |
|                                                                             |
|     You have switched on vdW-DFT.                                           |
|     This routine was written and supplied by Jiri Klimes. We recommend      |
|     that you carefully read and cite the following publications:            |
|       J. Klimes, D.R. Bowler, A. Michelides                                 |
|          J. Phys.: Cond Matt. 22 022201 (2010)                              |
|       J. Klimes, D.R. Bowler, A. Michelides                                 |
|          Phys. Rev. B. 83, 195131 (2011)                                    |
|     and references therein.                                                 |
|                                                                             |
 -----------------------------------------------------------------------------

 POTCAR:    PAW_PBE C 08Apr2002                   
   SHA256 =  253f7b50bb8d59471dbedb8285d89021f4a42ed1a2c5d38a03a736e69125dd95 C/POTCAR              
   COPYR  = (c) Copyright 08Apr2002 Georg Kresse                                                    
   COPYR  = This file is part of the software VASP. Any use, copying, and all other rights are regul
   COPYR  = If you do not have a valid VASP license, you may not use, copy or distribute this file. 
   VRHFIN =C: s2p2                                                                                  
   LEXCH  = PE                                                                                      
   EATOM  =   147.1560 eV,   10.8157 Ry                                                             
                                                                                                    
   TITEL  = PAW_PBE C 08Apr2002                                                                     
   LULTRA =        F    use ultrasoft PP ?                                                          
   IUNSCR =        1    unscreen: 0-lin 1-nonlin 2-no                                               
   RPACOR =    1.200    partial core radius                                                         
   POMASS =   12.011; ZVAL   =    4.000    mass and valenz                                          
   RCORE  =    1.500    outmost cutoff radius                                                       
   RWIGS  =    1.630; RWIGS  =    0.863    wigner-seitz radius (au A)                               
   ENMAX  =  400.000; ENMIN  =  300.000 eV                                                          
   ICORE  =        2    local potential                                                             
   LCOR   =        T    correct aug charges                                                         
   LPAW   =        T    paw PP                                                                      
   EAUG   =  644.873                                                                                
   DEXC   =    0.000                                                                                
   RMAX   =    1.529    core radius for proj-oper                                                   
   RAUG   =    1.300    factor for augmentation sphere                                              
   RDEP   =    1.501    radius for radial grids                                                     
   RDEPT  =    1.300    core radius for aug-charge                                                  
                                                                                                    
   Atomic configuration                                                                             
    4 entries                                                                                       
     n  l   j            E        occ.                                                              
     1  0  0.50      -273.3789   2.0000                                                             
     2  0  0.50       -13.7508   2.0000                                                             
     2  1  0.50        -5.2854   2.0000                                                             
     3  2  1.50        -5.4423   0.0000                                                             
   Description                                                                                      
     l       E           TYP  RCUT    TYP  RCUT                                                     
     0    -13.7508458     23  1.200                                                                 
     0     -8.2022199     23  1.200                                                                 
     1     -5.2854383     23  1.500                                                                 
     1     34.0145650     23  1.500                                                                 
     2     -5.4423304      7  1.500                                                                 
  local pseudopotential read in
  partial core-charges read in
  partial kinetic energy density read in
  atomic valenz-charges read in
  non local Contribution for L=           0  read in
    real space projection operators read in
  non local Contribution for L=           0  read in
    real space projection operators read in
  non local Contribution for L=           1  read in
    real space projection operators read in
  non local Contribution for L=           1  read in
    real space projection operators read in
    PAW grid and wavefunctions read in

   number of l-projection  operators is LMAX  =           4
   number of lm-projection operators is LMMAX =           8

 POTCAR:    PAW_PBE H 15Jun2001                   
   SHA256 =  030f79b5d3ab3cf0e668861823c8fb652ff669f3e15e46930bd03bfd63a607b6 H/POTCAR              
   COPYR  = (c) Copyright 15Jun2001 Georg Kresse                                                    
   COPYR  = This file is part of the software VASP. Any use, copying, and all other rights are regul
   COPYR  = If you do not have a valid VASP license, you may not use, copy or distribute this file. 
   VRHFIN =H: ultrasoft test                                                                        
   LEXCH  = PE                                                                                      
   EATOM  =    12.4884 eV,    0.9179 Ry                                                             
                                                                                                    
   TITEL  = PAW_PBE H 15Jun2001                                                                     
   LULTRA =        F    use ultrasoft PP ?                                                          
   IUNSCR =        0    unscreen: 0-lin 1-nonlin 2-no                                               
   RPACOR =    0.000    partial core radius                                                         
   POMASS =    1.000; ZVAL   =    1.000    mass and valenz                                          
   RCORE  =    1.100    outmost cutoff radius                                                       
   RWIGS  =    0.700; RWIGS  =    0.370    wigner-seitz radius (au A)                               
   ENMAX  =  250.000; ENMIN  =  200.000 eV                                                          
   RCLOC  =    0.701    cutoff for local pot                                                        
   LCOR   =        T    correct aug charges                                                         
   LPAW   =        T    paw PP                                                                      
   EAUG   =  400.000                                                                                
   RMAX   =    1.123    core radius for proj-oper                                                   
   RAUG   =    1.200    factor for augmentation sphere                                              
   RDEP   =    1.112    radius for radial grids                                                     
   RDEPT  =    0.926    core radius for aug-charge                                                  
                                                                                                    
   Atomic configuration                                                                             
    2 entries                                                                                       
     n  l   j            E        occ.                                                              
     1  0  0.50        -6.4927   1.0000                                                             
     2  1  0.50        -3.4015   0.0000                                                             
   Description                                                                                      
     l       E           TYP  RCUT    TYP  RCUT                                                     
     0     -6.4927494     23  1.100                                                                 
     0      6.8029130     23  1.100                                                                 
     1     -4.0817478     23  1.100                                                                 
  local pseudopotential read in
  atomic valenz-charges read in
  non local Contribution for L=           0  read in
    real space projection operators read in
  non local Contribution for L=           0  read in
    real space projection operators read in
  non local Contribution for L=           1  read in
    real space projection operators read in
    PAW grid and wavefunctions read in

   number of l-projection  operators is LMAX  =           3
   number of lm-projection operators is LMMAX =           5

 -----------------------------------------------------------------------------
|                                                                             |
|               ----> ADVICE to this user running VASP <----                  |
|                                                                             |
|     You enforced a specific xc type in the INCAR file but a different       |
|     type was found in the POTCAR file.                                      |
|     I HOPE YOU KNOW WHAT YOU ARE DOING!                                     |
|                                                                             |
 -----------------------------------------------------------------------------

  PAW_PBE C 08Apr2002                   :
 energy of atom  1       EATOM= -147.1560
 kinetic energy error for atom=    0.0057 (will be added to EATOM!!)
  PAW_PBE H 15Jun2001                   :
 energy of atom  2       EATOM=  -12.4884
 kinetic energy error for atom=    0.0004 (will be added to EATOM!!)


 POSCAR:  C  H
  positions in direct lattice
  No initial velocities read in
 exchange correlation table for  LEXCH =       43
   RHO(1)=    0.500       N(1)  =     2000
   RHO(2)=  100.500       N(2)  =     4000



--------------------------------------------------------------------------------------------------------


 ion  position               nearest neighbor table
   1  0.319  0.681  0.500-
   2  0.681  0.357  0.539-
   3  0.681  0.643  0.539-
   4  0.357  0.319  0.461-
   5  0.643  0.319  0.461-


IMPORTANT INFORMATION: All symmetrisations will be switched off!
NOSYMM: (Re-)initialisation of all symmetry stuff for point group C_1.


----------------------------------------------------------------------------------------

                                     Primitive cell                                     

  volume of cell :    9014.1499

  direct lattice vectors                    reciprocal lattice vectors
    23.546113363  0.000000000  0.000000000     0.042469854  0.000000000  0.000000000
     0.000000000 23.546065730  0.000000000     0.000000000  0.042469940  0.000000000
     0.000000000  0.000000000 16.258751438     0.000000000  0.000000000  0.061505338

  length of vectors
    23.546113363 23.546065730 16.258751438     0.042469854  0.042469940  0.061505338

  position of ions in fractional coordinates (direct lattice)
     0.318523906  0.681475450  0.499940616
     0.681476068  0.356558285  0.538709966
     0.681476094  0.643445313  0.538708145
     0.356651755  0.318524576  0.461290034
     0.643347991  0.318524550  0.461290137

  ion indices of the primitive-cell ions
   primitive index   ion index
                 1           1
                 2           2
                 3           3
                 4           4
                 5           5

----------------------------------------------------------------------------------------



 KPOINTS: pymatgen v2020.8.13 with grid density = 

Automatic generation of k-mesh.
 Grid dimensions read from file:
 generate k-points for:    1    1    1

 Generating k-lattice:

  Cartesian coordinates                     Fractional coordinates (reciprocal lattice)
     0.042469854  0.000000000  0.000000000     1.000000000  0.000000000  0.000000000
     0.000000000  0.042469940  0.000000000     0.000000000  1.000000000  0.000000000
     0.000000000  0.000000000  0.061505338     0.000000000  0.000000000  1.000000000

  Length of vectors
     0.042469854  0.042469940  0.061505338

  Shift w.r.t. Gamma in fractional coordinates (k-lattice)
     0.000000000  0.000000000  0.000000000

 
 Subroutine IBZKPT returns following result:
 ===========================================
 
 Found      1 irreducible k-points:
 
 Following reciprocal coordinates:
            Coordinates               Weight
  0.000000  0.000000  0.000000      1.000000
 
 Following cartesian coordinates:
            Coordinates               Weight
  0.000000  0.000000  0.000000      1.000000
 


--------------------------------------------------------------------------------------------------------




 Dimension of arrays:
   k-points           NKPTS =      1   k-points in BZ     NKDIM =      1   number of bands    NBANDS=     48
   number of dos      NEDOS =    301   number of ions     NIONS =      5
   non local maximal  LDIM  =      4   non local SUM 2l+1 LMDIM =      8
   total plane-waves  NPLWV = ******
   max r-space proj   IRMAX =      1   max aug-charges    IRDMAX=   6955
   dimension x,y,z NGX =   192 NGY =  192 NGZ =  140
   dimension x,y,z NGXF=   384 NGYF=  384 NGZF=  280
   support grid    NGXF=   384 NGYF=  384 NGZF=  280
   ions per type =               1   4
   NGX,Y,Z   is equivalent  to a cutoff of  13.56, 13.56, 14.32 a.u.
   NGXF,Y,Z  is equivalent  to a cutoff of  27.11, 27.11, 28.63 a.u.

 SYSTEM =  MgO-rocksalt                            
 POSCAR =   C  H                                   

--------------------------------------------------------------------------------------------------------


  energy-cutoff  :      600.00
  volume of cell :     9014.15
      direct lattice vectors                 reciprocal lattice vectors
    23.546113363  0.000000000  0.000000000     0.042469854  0.000000000  0.000000000
     0.000000000 23.546065730  0.000000000     0.000000000  0.042469940  0.000000000
     0.000000000  0.000000000 16.258751438     0.000000000  0.000000000  0.061505338

  length of vectors
    23.546113363 23.546065730 16.258751438     0.042469854  0.042469940  0.061505338



 k-points in units of 2pi/SCALE and weight: pymatgen v2020.8.13 with grid density = 
   0.00000000  0.00000000  0.00000000       1.000

 k-points in reciprocal lattice and weights: pymatgen v2020.8.13 with grid density = 
   0.00000000  0.00000000  0.00000000       1.000

 position of ions in fractional coordinates (direct lattice) 
   0.31852391  0.68147545  0.49994062
   0.68147607  0.35655828  0.53870997
   0.68147609  0.64344531  0.53870815
   0.35665176  0.31852458  0.46129003
   0.64334799  0.31852455  0.46129014

 position of ions in cartesian coordinates  (Angst):
   7.50000000 16.04606573  8.12841022
  16.04611274  8.39554481  8.75875144
  16.04611336 15.15060563  8.75872183
   8.39776266  7.50000060  7.50000000
  15.14834474  7.50000000  7.50000168



--------------------------------------------------------------------------------------------------------

--------------------------------------- Iteration      FINAL  ---------------------------------------


--------------------OUTCAR has been truncated-------------------------


--------------------OUTCAR has been truncated-------------------------


--------------------OUTCAR has been truncated-------------------------


--------------------OUTCAR has been truncated-------------------------


--------------------OUTCAR has been truncated-------------------------


--------------------OUTCAR has been truncated-------------------------


--------------------OUTCAR has been truncated-------------------------


--------------------OUTCAR has been truncated-------------------------


--------------------OUTCAR has been truncated-------------------------


--------------------OUTCAR has been truncated-------------------------


  FORCE on cell =-STRESS in cart. coord.  units (eV):
  Direction    XX          YY          ZZ          XY          YZ          ZX
  --------------------------------------------------------------------------------------
  Alpha Z     0.02687     0.02687     0.02687
  Ewald      -4.42507    -4.43480    -7.05384    -0.44304     3.31999     3.32842
  Hartree    45.62133    45.61679    41.96670    -1.30860     1.91252     1.91741
  E(xc)     -21.20199   -21.20243   -21.11553     0.08812     0.12342     0.12372
  Local     -99.14978   -99.13521   -92.99101     1.65274    -5.36048    -5.37414
  n-local    -1.23557    -1.23552    -1.27075    -0.02269    -0.02763    -0.02769
  augment     0.44543     0.44542     0.44568    -0.00005    -0.00020    -0.00020
  Kinetic    78.48425    78.49129    77.20505    -1.37014    -1.93942    -1.94422
  Fock        0.00000     0.00000     0.00000     0.00000     0.00000     0.00000
  -------------------------------------------------------------------------------------
  Total      -1.43453    -1.42758    -2.78682    -1.40366    -1.97180    -1.97670
  in kB      -0.25497    -0.25374    -0.49533    -0.24949    -0.35047    -0.35134
  external pressure =       -0.33 kB  Pullay stress =        0.00 kB


 VOLUME and BASIS-vectors are now :
 -----------------------------------------------------------------------------
  energy-cutoff  :      600.00
  volume of cell :     9014.15
      direct lattice vectors                 reciprocal lattice vectors
    23.546113363  0.000000000  0.000000000     0.042469854  0.000000000  0.000000000
     0.000000000 23.546065730  0.000000000     0.000000000  0.042469940  0.000000000
     0.000000000  0.000000000 16.258751438     0.000000000  0.000000000  0.061505338

  length of vectors
    23.546113363 23.546065730 16.258751438     0.042469854  0.042469940  0.061505338


 FORCES acting on ions:
    Electron-Ion                     Ewald-Force                    Non-Local-Force
 -----------------------------------------------------------------------------------------------
   0.108E+01 -.108E+01 0.131E-03   -.108E+01 0.108E+01 -.140E-03   0.133E-02 -.136E-02 -.149E-04
   -.392E+01 -.304E+01 -.496E+01   0.266E+01 0.179E+01 0.320E+01   -.311E+00 -.312E+00 -.437E+00
   -.663E+00 -.462E+00 -.711E-01   0.665E+00 0.461E+00 0.708E-01   -.193E-02 0.100E-02 0.266E-03
   0.462E+00 0.663E+00 0.710E-01   -.462E+00 -.665E+00 -.707E-01   -.101E-02 0.193E-02 -.271E-03
   0.305E+01 0.391E+01 0.496E+01   -.179E+01 -.266E+01 -.320E+01   0.313E+00 0.311E+00 0.437E+00
 -----------------------------------------------------------------------------------------------
   -.493E-03 -.108E-03 -.462E-03   -.222E-15 0.000E+00 0.000E+00   -.407E-04 -.247E-04 -.381E-04


 POSITION                                       TOTAL-FORCE (eV/Angst)
 -----------------------------------------------------------------------------------
      7.50000     16.04607      8.12841         0.000862     -0.000727      0.000076
     16.04611      8.39554      8.75875        -1.570474     -1.566438     -2.202538
     16.04611     15.15061      8.75872        -0.000459      0.000204      0.000119
      8.39776      7.50000      7.50000        -0.000052      0.000581      0.000062
     15.14834      7.50000      7.50000         1.570123      1.566379      2.202281
 -----------------------------------------------------------------------------------
    total drift:                               -0.000533     -0.000133     -0.000501


--------------------------------------------------------------------------------------------------------



  FREE ENERGIE OF THE ION-ELECTRON SYSTEM (eV)
  ---------------------------------------------------
  free  energy   TOTEN  =        -2.11862270 eV

  energy  without entropy=       -1.98665289  energy(sigma->0) =       -2.05263780



--------------------------------------------------------------------------------------------------------


    POTLOK:  cpu time      1.8780: real time      1.8789


--------------------------------------------------------------------------------------------------------


     LOOP+:  cpu time    854.5216: real time    855.2550
    4ORBIT:  cpu time      0.0000: real time      0.0000

 total amount of memory used by VASP MPI-rank0    94488. kBytes
=======================================================================

   base      :      30000. kBytes
   nonl-proj :       7827. kBytes
   fftplans  :      22922. kBytes
   grid      :      31930. kBytes
   one-center:          3. kBytes
   wavefun   :       1806. kBytes

  
  
 General timing and accounting informations for this job:
 ========================================================
  
                  Total CPU time used (sec):      878.323
                            User time (sec):      876.104
                          System time (sec):        2.219
                         Elapsed time (sec):      881.645
  
                   Maximum memory used (kb):      373124.
                   Average memory used (kb):          N/A
  
                          Minor page faults:        32534
                          Major page faults:         1174
                 Voluntary context switches:         9682
