 **********************************************************************
                          MRCC program system
 **********************************************************************
 
                              Written by
     Mihaly Kallay, Peter R. Nagy, David Mester, Laszlo Gyevi-Nagy,
        Jozsef Csoka, P. Bernat Szabo, Zoltan Rolik, Gyula Samu,
     Jozsef Csontos, Bence Hegely, Adam Ganyecz, Istvan Ladjanszki,
       Lorant Szegedy, Bence Ladoczki, Klara Petrov, Mate Farkas,
                    Pal D. Mezei, and Reka A. Horvath
 
        Department of Physical Chemistry and Materials Science
            Budapest University of Technology and Economics
                  Budapest P.O.Box 91, H-1521 Hungary
 
                              www.mrcc.hu
 
                      Release date: March 18, 2022

 ************************ 2023-02-05 13:12:27 *************************
 Executing minp...

 Reading input from MINP...
 
 Input file:
 
calc=FNO-CCSD(T)
verbosity=3
mem=220GB
unit=angs
scfiguess=small
scfalg=locfit1
ccmaxit=400
ccsdalg=dfdirect
ccsdthreads=4
ccsdmkl=thr
ptthreads=4
lnoepsv=1e-5
naf_cor=1e-2
basis=aug-cc-pVQZ
basis_sm=def2-SVP
dfbasis_scf=def2-QZVPP-RI-JK
dfbasis_cor=aug-cc-pVQZ-RI
unit=angs
geom=xyz
16

C    34.41670262    34.07107264    10.41543014
C    33.11117461    33.45680459    10.91530835
H    34.24160149    35.00442132     9.86225048
H    34.94674030    33.36940783     9.75379242
H    35.10002891    34.30603621    11.24227357
H    32.42643037    33.26105434    10.07939442
H    32.59136835    34.12756100    11.61262818
H    33.28915165    32.50678735    11.43686767
C    34.41672034    46.73257559    10.41548088
C    33.11116301    46.11828004    10.91529140
H    34.24151778    47.66601471     9.86250154
H    34.94669279    46.03070320     9.75399090
H    35.10030311    46.96765980    11.24209422
H    32.42628860    45.92238203    10.07951373
H    32.59132561    46.78921263    11.61243196
H    33.28922462    45.16817730    11.43663402

--------------------Output has been truncated-------------------------


--------------------Output has been truncated-------------------------


--------------------Output has been truncated-------------------------


--------------------Output has been truncated-------------------------


--------------------Output has been truncated-------------------------


--------------------Output has been truncated-------------------------


--------------------Output has been truncated-------------------------


--------------------Output has been truncated-------------------------


--------------------Output has been truncated-------------------------


--------------------Output has been truncated-------------------------


 
 Reference energy [au]:                      -158.528871813834
 DF-MP2 singlet pair energy [au]:              -0.635446016693
 DF-MP2 triplet pair energy [au]:              -0.153813697728
 DF-SCS-MP2 correlation energy [au]:           -0.813806452607
 DF-SCS-MP2 energy [au]:                     -159.342678266441
 DF-SOS-MP2 correlation energy [au]:           -0.826079821701
 DF-SOS-MP2 energy [au]:                     -159.354951635534
 DF-MP2 correlation energy [au]:               -0.789259714421
 DF-MP2 energy [au]:                         -159.318131528255

 Results in FNO basis:
 
 
 Reference energy [au]:                      -158.528871813834
 DF-MP2 singlet pair energy [au]:              -0.625098601288
 DF-MP2 triplet pair energy [au]:              -0.153241861579
 DF-SCS-MP2 correlation energy [au]:           -0.801198942072
 DF-SCS-MP2 energy [au]:                     -159.330070755906
 DF-SOS-MP2 correlation energy [au]:           -0.812628181674
 DF-SOS-MP2 energy [au]:                     -159.341499995508
 DF-MP2 correlation energy [au]:               -0.778340462867
 DF-MP2 energy [au]:                         -159.307212276701

 Results in NAF basis:
 
 
 Reference energy [au]:                      -158.528871813834
 DF-MP2 singlet pair energy [au]:              -0.625056224814
 DF-MP2 triplet pair energy [au]:              -0.153257918872
 DF-SCS-MP2 correlation energy [au]:           -0.801153442734
 DF-SCS-MP2 energy [au]:                     -159.330025256568
 DF-SOS-MP2 correlation energy [au]:           -0.812573092258
 DF-SOS-MP2 energy [au]:                     -159.341444906092
 DF-MP2 correlation energy [au]:               -0.778314143686
 DF-MP2 energy [au]:                         -159.307185957520

 ************************ 2023-02-05 13:14:51 *************************
 Executing ccsd...

 Allocation of 220.0 Gbytes of memory...

 Direct DF-CCSD(T) calculation
 
 Convergence criterion:  1.0E-06
 
 Number of occupied/virtual/auxiliary orbitals:    14   350  1101
   6894.54 MB is the minimal memory requirement for (T)
   1573.93 MB is the minimal memory requirement for CCSD
 
 Reference energy [au]:            -158.528871813834
 T1 contribution [au]:                0.000000000000
 Same spin MP2 energy [au]:          -0.153249884812
 Opposite spin MP2 energy [au]:      -0.625077403118
 MP2 correlation energy [au]:        -0.778327287930
 Total MP2 energy [au]:            -159.307199101763
 MP2 correction [au]:                -0.010932426491
 
 
 CPU time [min]:     1.655                   Wall time [min]:     0.569
 
 Starting CCSD iterations...
 
                     Residual norm          Energy
 Iteration  1        0.253995086395     -159.343024626624
 Iteration  2        0.062947561323     -159.362188898260
 Iteration  3        0.018511531903     -159.364460367587
 Iteration  4        0.003748050089     -159.364474820304
 Iteration  5        0.000793329343     -159.364486548426
 Iteration  6        0.000221933572     -159.364490649244
 Iteration  7        0.000052461620     -159.364490199096
 Iteration  8        0.000014140359     -159.364490926785
 Iteration  9        0.000002817467     -159.364490883959
 
 CCSD iteration has converged in  9 steps.
    59038.48 MB memory was utilized by CCSD
 
 T1 diagnostic:      8.231E-03            D1 diagnostic:      1.428E-02
 
 T1 contribution [au]:                                  0.000000000000
 PPL energy contribution [au]:                          0.217870668579
 Scaled PPL energy contribution [au]:                   0.220950319250

 OS-PPL energy contribution [au]:                       0.191084186863
 Scaled OS-PPL energy contribution [au]:                0.194274211575
 SS-PPL energy contribution [au]:                       0.026786481716
 Scaled SS-PPL energy contribution [au]:                0.026882641074

 Opposite spin CCSD energy [au]:                       -0.690281020916
 Same spin CCSD energy [au]:                           -0.145353735257
 CCSD correlation energy [au]:                         -0.835634756173
 CCSD correlation energy + MP2 correction [au]:        -0.846567182664
 CCSD correlation energy + MP2 + PPL corr. [au]:       -0.843487531993
 Total CCSD energy [au]:                             -159.364506570006
 Total CCSD energy + MP2 correction [au]:            -159.375438996498
 Total CCSD energy + MP2 + PPL corr. [au]:           -159.372359345826
 
 CPU time [min]:   153.626                   Wall time [min]:     5.425
 
 Calculation of (T) correction...
 
 
     8827.33 MB memory is utilized for (T)

 0%       25%       50%       75%       100%
 |---------|---------|---------|---------| 
 
 (T) correction [au]:                                    -0.029525657264
 (T*) correction [au]:                                   -0.029940376217
 (T+) correction [au]:                                   -0.029933321522
 CCSD(T) correlation energy [au]:                        -0.865160413437
 CCSD(T) correlation energy + MP2 correction [au]:       -0.876092839928
 CCSD(T+) correlation en. + MP2 + PPL corr. [au]:        -0.873420853515
 Total CCSD(T) energy [au]:                            -159.394032227271
 Total CCSD(T) energy + MP2 correction [au]:           -159.404964653762
 Total CCSD(T+) energy + MP2 + PPL corr. [au]:         -159.402292667348
 
 CPU time [min]:   274.409                   Wall time [min]:     9.035
 
 ************************ 2023-02-05 13:23:54 *************************
                      Normal termination of mrcc.
 **********************************************************************
