 vasp.6.3.0 20Jan22 (build Apr  1 2022 16:44:48) complex                         
 executed on        HPECrayEX_GCC date 2023.01.26  19:02:53
 running  512 mpi-ranks, with    1 threads/rank
 distrk:  each k-point on  512 cores,    1 groups
 distr:  one band on NCORE=   8 cores,   64 groups


--------------------------------------------------------------------------------------------------------


 INCAR:
   SYSTEM = MgO-rocksalt
   ISMEAR = 0
   SIGMA = 0.05
   EDIFF = 1E-6
   ALGO = ALL
   ISTART = 0
   IBRION = -1
   NSW = 0
   ISYM = 0
   DIPOL = 0.5 0.5 0.5
   IDIPOL = 3
   LDIPOL = .TRUE.
   GGA = MK
   LUSE_VDW = .TRUE.
   PARAM1 = 0.1234
   PARAM2 = 0.711357
   ZAB_VDW = -1.8867
   AGGAC = 0.0
   ENCUT = 600
   PREC = Accurate
   LASPH = .TRUE.
   LREAL = .FALSE.
   ISPIN = 1
   NELM = 200
   NELMIN = 8
   NCORE = 8
   KPAR = 1
   LWAVE = .FALSE.
   LCHARG = .FALSE.

 POTCAR:    PAW_PBE N 08Apr2002                   
 POTCAR:    PAW_PBE O 08Apr2002                   
 POTCAR:    PAW_PBE Mg_pv 13Apr2007               
 POTCAR:    PAW_PBE O 08Apr2002                   
 -----------------------------------------------------------------------------
|                                                                             |
|               ----> ADVICE to this user running VASP <----                  |
|                                                                             |
|     You have switched on vdW-DFT.                                           |
|     This routine was written and supplied by Jiri Klimes. We recommend      |
|     that you carefully read and cite the following publications:            |
|       J. Klimes, D.R. Bowler, A. Michelides                                 |
|          J. Phys.: Cond Matt. 22 022201 (2010)                              |
|       J. Klimes, D.R. Bowler, A. Michelides                                 |
|          Phys. Rev. B. 83, 195131 (2011)                                    |
|     and references therein.                                                 |
|                                                                             |
 -----------------------------------------------------------------------------

 POTCAR:    PAW_PBE N 08Apr2002                   
   SHA256 =  e053789ff3a61a86a1b75d8a110fcc91f86041011e7b0817c7c99e4e8a6349d7 N/POTCAR              
   COPYR  = (c) Copyright 08Apr2002 Georg Kresse                                                    
   COPYR  = This file is part of the software VASP. Any use, copying, and all other rights are regul
   COPYR  = If you do not have a valid VASP license, you may not use, copy or distribute this file. 
   VRHFIN =N: s2p3                                                                                  
   LEXCH  = PE                                                                                      
   EATOM  =   264.5486 eV,   19.4438 Ry                                                             
                                                                                                    
   TITEL  = PAW_PBE N 08Apr2002                                                                     
   LULTRA =        F    use ultrasoft PP ?                                                          
   IUNSCR =        1    unscreen: 0-lin 1-nonlin 2-no                                               
   RPACOR =    1.200    partial core radius                                                         
   POMASS =   14.001; ZVAL   =    5.000    mass and valenz                                          
   RCORE  =    1.500    outmost cutoff radius                                                       
   RWIGS  =    1.400; RWIGS  =    0.741    wigner-seitz radius (au A)                               
   ENMAX  =  400.000; ENMIN  =  300.000 eV                                                          
   ICORE  =        2    local potential                                                             
   LCOR   =        T    correct aug charges                                                         
   LPAW   =        T    paw PP                                                                      
   EAUG   =  627.112                                                                                
   DEXC   =    0.000                                                                                
   RMAX   =    1.529    core radius for proj-oper                                                   
   RAUG   =    1.300    factor for augmentation sphere                                              
   RDEP   =    1.514    radius for radial grids                                                     
   RDEPT  =    1.338    core radius for aug-charge                                                  
                                                                                                    
   Atomic configuration                                                                             
    4 entries                                                                                       
     n  l   j            E        occ.                                                              
     1  0  0.50      -384.7179   2.0000                                                             
     2  0  0.50       -18.5828   2.0000                                                             
     2  1  0.50        -7.0898   3.0000                                                             
     3  2  1.50        -6.8029   0.0000                                                             
   Description                                                                                      
     l       E           TYP  RCUT    TYP  RCUT                                                     
     0    -18.5828119     23  1.200                                                                 
     0    -13.5018863     23  1.200                                                                 
     1     -7.0897853     23  1.500                                                                 
     1      9.5240782     23  1.500                                                                 
     2     -6.8029130      7  1.500                                                                 
  local pseudopotential read in
  partial core-charges read in
  partial kinetic energy density read in
  atomic valenz-charges read in
  non local Contribution for L=           0  read in
    real space projection operators read in
  non local Contribution for L=           0  read in
    real space projection operators read in
  non local Contribution for L=           1  read in
    real space projection operators read in
  non local Contribution for L=           1  read in
    real space projection operators read in
    PAW grid and wavefunctions read in

   number of l-projection  operators is LMAX  =           4
   number of lm-projection operators is LMMAX =           8

 POTCAR:    PAW_PBE O 08Apr2002                   
   SHA256 =  818f92134a0a090dccd8ba1447fa70422a3b330e708bb4f08108d8ae51209ddf O/POTCAR              
   COPYR  = (c) Copyright 08Apr2002 Georg Kresse                                                    
   COPYR  = This file is part of the software VASP. Any use, copying, and all other rights are regul
   COPYR  = If you do not have a valid VASP license, you may not use, copy or distribute this file. 
   VRHFIN =O: s2p4                                                                                  
   LEXCH  = PE                                                                                      
   EATOM  =   432.3788 eV,   31.7789 Ry                                                             
                                                                                                    
   TITEL  = PAW_PBE O 08Apr2002                                                                     
   LULTRA =        F    use ultrasoft PP ?                                                          
   IUNSCR =        1    unscreen: 0-lin 1-nonlin 2-no                                               
   RPACOR =    1.200    partial core radius                                                         
   POMASS =   16.000; ZVAL   =    6.000    mass and valenz                                          
   RCORE  =    1.520    outmost cutoff radius                                                       
   RWIGS  =    1.550; RWIGS  =    0.820    wigner-seitz radius (au A)                               
   ENMAX  =  400.000; ENMIN  =  300.000 eV                                                          
   ICORE  =        2    local potential                                                             
   LCOR   =        T    correct aug charges                                                         
   LPAW   =        T    paw PP                                                                      
   EAUG   =  605.392                                                                                
   DEXC   =    0.000                                                                                
   RMAX   =    1.553    core radius for proj-oper                                                   
   RAUG   =    1.300    factor for augmentation sphere                                              
   RDEP   =    1.550    radius for radial grids                                                     
   RDEPT  =    1.329    core radius for aug-charge                                                  
                                                                                                    
   Atomic configuration                                                                             
    4 entries                                                                                       
     n  l   j            E        occ.                                                              
     1  0  0.50      -514.6923   2.0000                                                             
     2  0  0.50       -23.9615   2.0000                                                             
     2  1  0.50        -9.0305   4.0000                                                             
     3  2  1.50        -9.5241   0.0000                                                             
   Description                                                                                      
     l       E           TYP  RCUT    TYP  RCUT                                                     
     0    -23.9615318     23  1.200                                                                 
     0     -9.5240782     23  1.200                                                                 
     1     -9.0304911     23  1.520                                                                 
     1      8.1634956     23  1.520                                                                 
     2     -9.5240782      7  1.500                                                                 
  local pseudopotential read in
  partial core-charges read in
  partial kinetic energy density read in
  kinetic energy density of atom read in
  atomic valenz-charges read in
  non local Contribution for L=           0  read in
    real space projection operators read in
  non local Contribution for L=           0  read in
    real space projection operators read in
  non local Contribution for L=           1  read in
    real space projection operators read in
  non local Contribution for L=           1  read in
    real space projection operators read in
    PAW grid and wavefunctions read in

   number of l-projection  operators is LMAX  =           4
   number of lm-projection operators is LMMAX =           8

 POTCAR:    PAW_PBE Mg_pv 13Apr2007               
   SHA256 =  f474ac0dd33840b9ae76c01d57fea79fdf77cdfbb07d5ade72c65f83c709b62b Mg_pv/POTCAR          
   COPYR  = (c) Copyright 13Apr2007 Georg Kresse                                                    
   COPYR  = This file is part of the software VASP. Any use, copying, and all other rights are regul
   COPYR  = If you do not have a valid VASP license, you may not use, copy or distribute this file. 
   VRHFIN =Mg: p6s2                                                                                 
   LEXCH  = PE                                                                                      
   EATOM  =  1056.7344 eV,   77.6678 Ry                                                             
                                                                                                    
   TITEL  = PAW_PBE Mg_pv 13Apr2007                                                                 
   LULTRA =        F    use ultrasoft PP ?                                                          
   IUNSCR =        1    unscreen: 0-lin 1-nonlin 2-no                                               
   RPACOR =    1.500    partial core radius                                                         
   POMASS =   24.305; ZVAL   =    8.000    mass and valenz                                          
   RCORE  =    2.000    outmost cutoff radius                                                       
   RWIGS  =    2.000; RWIGS  =    1.058    wigner-seitz radius (au A)                               
   ENMAX  =  403.929; ENMIN  =  302.947 eV                                                          
   RCLOC  =    1.506    cutoff for local pot                                                        
   LCOR   =        T    correct aug charges                                                         
   LPAW   =        T    paw PP                                                                      
   EAUG   =  758.780                                                                                
   DEXC   =    0.000                                                                                
   RMAX   =    2.045    core radius for proj-oper                                                   
   RAUG   =    1.300    factor for augmentation sphere                                              
   RDEP   =    2.025    radius for radial grids                                                     
   RDEPT  =    1.557    core radius for aug-charge                                                  
                                                                                                    
   Atomic configuration                                                                             
    5 entries                                                                                       
     n  l   j            E        occ.                                                              
     1  0  0.50     -1259.6230   2.0000                                                             
     2  0  0.50       -79.8442   2.0000                                                             
     2  1  1.50       -46.6121   6.0000                                                             
     3  0  0.50        -4.7055   2.0000                                                             
     3  2  1.50        -1.3606   0.0000                                                             
   Description                                                                                      
     l       E           TYP  RCUT    TYP  RCUT                                                     
     1    -46.6121073     23  1.600                                                                 
     1      2.7211652     23  1.600                                                                 
     0     -4.7054661     23  2.000                                                                 
     0     61.2262170     23  2.000                                                                 
     2     -1.3605826     23  2.000                                                                 
  local pseudopotential read in
  partial core-charges read in
  partial kinetic energy density read in
  atomic valenz-charges read in
  non local Contribution for L=           1  read in
    real space projection operators read in
  non local Contribution for L=           1  read in
    real space projection operators read in
  non local Contribution for L=           0  read in
    real space projection operators read in
  non local Contribution for L=           0  read in
    real space projection operators read in
  non local Contribution for L=           2  read in
    real space projection operators read in
    PAW grid and wavefunctions read in

   number of l-projection  operators is LMAX  =           5
   number of lm-projection operators is LMMAX =          13

 POTCAR:    PAW_PBE O 08Apr2002                   
   SHA256 =  818f92134a0a090dccd8ba1447fa70422a3b330e708bb4f08108d8ae51209ddf O/POTCAR              
   COPYR  = (c) Copyright 08Apr2002 Georg Kresse                                                    
   COPYR  = This file is part of the software VASP. Any use, copying, and all other rights are regul
   COPYR  = If you do not have a valid VASP license, you may not use, copy or distribute this file. 
   VRHFIN =O: s2p4                                                                                  
   LEXCH  = PE                                                                                      
   EATOM  =   432.3788 eV,   31.7789 Ry                                                             
                                                                                                    
   TITEL  = PAW_PBE O 08Apr2002                                                                     
   LULTRA =        F    use ultrasoft PP ?                                                          
   IUNSCR =        1    unscreen: 0-lin 1-nonlin 2-no                                               
   RPACOR =    1.200    partial core radius                                                         
   POMASS =   16.000; ZVAL   =    6.000    mass and valenz                                          
   RCORE  =    1.520    outmost cutoff radius                                                       
   RWIGS  =    1.550; RWIGS  =    0.820    wigner-seitz radius (au A)                               
   ENMAX  =  400.000; ENMIN  =  300.000 eV                                                          
   ICORE  =        2    local potential                                                             
   LCOR   =        T    correct aug charges                                                         
   LPAW   =        T    paw PP                                                                      
   EAUG   =  605.392                                                                                
   DEXC   =    0.000                                                                                
   RMAX   =    1.553    core radius for proj-oper                                                   
   RAUG   =    1.300    factor for augmentation sphere                                              
   RDEP   =    1.550    radius for radial grids                                                     
   RDEPT  =    1.329    core radius for aug-charge                                                  
                                                                                                    
   Atomic configuration                                                                             
    4 entries                                                                                       
     n  l   j            E        occ.                                                              
     1  0  0.50      -514.6923   2.0000                                                             
     2  0  0.50       -23.9615   2.0000                                                             
     2  1  0.50        -9.0305   4.0000                                                             
     3  2  1.50        -9.5241   0.0000                                                             
   Description                                                                                      
     l       E           TYP  RCUT    TYP  RCUT                                                     
     0    -23.9615318     23  1.200                                                                 
     0     -9.5240782     23  1.200                                                                 
     1     -9.0304911     23  1.520                                                                 
     1      8.1634956     23  1.520                                                                 
     2     -9.5240782      7  1.500                                                                 
  local pseudopotential read in
  partial core-charges read in
  partial kinetic energy density read in
  kinetic energy density of atom read in
  atomic valenz-charges read in
  non local Contribution for L=           0  read in
    real space projection operators read in
  non local Contribution for L=           0  read in
    real space projection operators read in
  non local Contribution for L=           1  read in
    real space projection operators read in
  non local Contribution for L=           1  read in
    real space projection operators read in
    PAW grid and wavefunctions read in

   number of l-projection  operators is LMAX  =           4
   number of lm-projection operators is LMMAX =           8

 -----------------------------------------------------------------------------
|                                                                             |
|               ----> ADVICE to this user running VASP <----                  |
|                                                                             |
|     You have a (more or less) 'large supercell' and for larger cells it     |
|     might be more efficient to use real-space projection operators.         |
|     Therefore, try LREAL= Auto in the INCAR file.                           |
|     Mind: For very accurate calculation, you might also keep the            |
|     reciprocal projection scheme (i.e. LREAL=.FALSE.).                      |
|                                                                             |
 -----------------------------------------------------------------------------

 -----------------------------------------------------------------------------
|                                                                             |
|               ----> ADVICE to this user running VASP <----                  |
|                                                                             |
|     You enforced a specific xc type in the INCAR file but a different       |
|     type was found in the POTCAR file.                                      |
|     I HOPE YOU KNOW WHAT YOU ARE DOING!                                     |
|                                                                             |
 -----------------------------------------------------------------------------

  PAW_PBE N 08Apr2002                   :
 energy of atom  1       EATOM= -264.5486
 kinetic energy error for atom=    0.0103 (will be added to EATOM!!)
  PAW_PBE O 08Apr2002                   :
 energy of atom  2       EATOM= -432.3788
 kinetic energy error for atom=    0.0168 (will be added to EATOM!!)
  PAW_PBE Mg_pv 13Apr2007               :
 energy of atom  3       EATOM=-1056.7344
 kinetic energy error for atom=    0.0221 (will be added to EATOM!!)
  PAW_PBE O 08Apr2002                   :
 energy of atom  4       EATOM= -432.3788
 kinetic energy error for atom=    0.0168 (will be added to EATOM!!)


 POSCAR:  N  O Mg  O
  positions in direct lattice
  No initial velocities read in
 exchange correlation table for  LEXCH =       43
   RHO(1)=    0.500       N(1)  =     2000
   RHO(2)=  100.500       N(2)  =     4000



--------------------------------------------------------------------------------------------------------


 ion  position               nearest neighbor table
   1  0.550  0.550  0.754-   3 1.16
   2  0.702  0.702  0.754-   4 1.16
   3  0.523  0.523  0.806-   1 1.16
   4  0.730  0.730  0.806-   2 1.16
   5  0.250  0.000  0.353-  39 2.09  40 2.09  47 2.09  56 2.09  37 2.09
   6  0.500  0.250  0.353-  39 2.09  40 2.09  48 2.09  55 2.09  38 2.09
   7  0.250  0.250  0.451-  37 2.09  38 2.09  45 2.09  54 2.09  39 2.09  43 2.09
   8  0.500  0.000  0.451-  37 2.09  38 2.09  46 2.09  53 2.09  40 2.09  44 2.09
   9  0.250  0.000  0.550-  60 2.09  44 2.09  43 2.09  51 2.09  37 2.10  41 2.12
  10  0.500  0.250  0.550-  52 2.09  43 2.09  59 2.09  44 2.09  38 2.10  42 2.12
  11  0.250  0.250  0.647-  43 2.08  41 2.08  58 2.08  49 2.09  42 2.09
  12  0.500  0.001  0.647-  42 2.07  44 2.08  50 2.08  41 2.09  57 2.09
  13  0.250  0.500  0.353-  39 2.09  47 2.09  48 2.09  64 2.09  45 2.09
  14  0.500  0.750  0.353-  40 2.09  47 2.09  48 2.09  63 2.09  46 2.09
  15  0.250  0.750  0.451-  37 2.09  45 2.09  46 2.09  62 2.09  47 2.09  51 2.09
  16  0.500  0.500  0.451-  38 2.09  45 2.09  46 2.09  61 2.09  48 2.09  52 2.10
  17  0.250  0.500  0.550-  52 2.09  43 2.09  51 2.09  68 2.09  45 2.10  49 2.12
  18  0.500  0.750  0.550-  52 2.08  67 2.08  51 2.09  44 2.09  46 2.10  50 2.13
  19  0.249  0.750  0.647-  66 2.07  51 2.08  50 2.08  41 2.09  49 2.09
  20  0.498  0.498  0.649-  49 2.08  42 2.08  52 2.11  65 2.12  50 2.12
  21  0.750  0.000  0.353-  40 2.09  55 2.09  56 2.09  63 2.09  53 2.09
  22  0.000  0.250  0.353-  39 2.09  55 2.09  56 2.09  64 2.09  54 2.09
  23  0.750  0.250  0.451-  38 2.09  53 2.09  54 2.09  61 2.09  55 2.09  59 2.09
  24  0.000  0.000  0.451-  37 2.09  53 2.09  54 2.09  62 2.09  56 2.09  60 2.09
  25  0.750  1.000  0.550-  67 2.09  60 2.09  44 2.09  59 2.09  53 2.10  57 2.12
  26  0.000  0.250  0.550-  60 2.09  68 2.09  43 2.09  59 2.09  54 2.10  58 2.12
  27  0.750  0.249  0.647-  57 2.07  59 2.08  65 2.08  58 2.09  42 2.09
  28  0.000  0.000  0.647-  60 2.08  58 2.08  41 2.08  66 2.09  57 2.09
  29  0.750  0.500  0.353-  48 2.09  55 2.09  63 2.09  64 2.09  61 2.09
  30  0.000  0.750  0.353-  47 2.09  56 2.09  63 2.09  64 2.09  62 2.09
  31  0.750  0.750  0.451-  46 2.09  53 2.09  61 2.09  62 2.09  63 2.09  67 2.10
  32  0.000  0.500  0.451-  45 2.09  54 2.09  61 2.09  62 2.09  64 2.09  68 2.09
  33  0.750  0.500  0.550-  52 2.08  67 2.08  59 2.09  68 2.09  61 2.10  65 2.13
  34  1.000  0.750  0.550-  67 2.09  60 2.09  68 2.09  51 2.09  62 2.10  66 2.12
  35  0.752  0.752  0.649-  57 2.08  66 2.08  67 2.11  65 2.12  50 2.12
  36  0.001  0.500  0.647-  49 2.07  68 2.08  65 2.08  58 2.09  66 2.09
  37  0.250  0.000  0.451-   7 2.09   8 2.09  15 2.09  24 2.09   5 2.09   9 2.10
  38  0.500  0.250  0.451-   7 2.09   8 2.09  16 2.09  23 2.09   6 2.09  10 2.10
  39  0.250  0.250  0.353-   5 2.09   6 2.09  13 2.09  22 2.09   7 2.09
  40  0.500  0.000  0.353-   5 2.09   6 2.09  14 2.09  21 2.09   8 2.09
  41  0.250  0.000  0.649-  28 2.08  11 2.08  12 2.09  19 2.09   9 2.12
  42  0.500  0.249  0.649-  12 2.07  20 2.08  11 2.09  27 2.09  10 2.12
  43  0.250  0.250  0.549-  11 2.08  26 2.09   9 2.09  10 2.09  17 2.09   7 2.09
  44  0.500  1.000  0.549-  12 2.08   9 2.09  25 2.09  18 2.09  10 2.09   8 2.09
  45  0.250  0.500  0.451-   7 2.09  15 2.09  16 2.09  32 2.09  13 2.09  17 2.10
  46  0.500  0.750  0.451-   8 2.09  15 2.09  16 2.09  31 2.09  14 2.09  18 2.10
  47  0.250  0.750  0.353-   5 2.09  13 2.09  14 2.09  30 2.09  15 2.09
  48  0.500  0.500  0.353-   6 2.09  13 2.09  14 2.09  29 2.09  16 2.09
  49  0.249  0.500  0.649-  36 2.07  20 2.08  11 2.09  19 2.09  17 2.12
  50  0.498  0.752  0.650-  12 2.08  19 2.08  20 2.12  35 2.12  18 2.13
  51  0.250  0.750  0.549-  19 2.08   9 2.09  17 2.09  18 2.09  34 2.09  15 2.09
  52  0.500  0.500  0.550-  18 2.08  33 2.08  17 2.09  10 2.09  16 2.10  20 2.11
  53  0.750  0.000  0.451-   8 2.09  23 2.09  24 2.09  31 2.09  21 2.09  25 2.10
  54  0.000  0.250  0.451-   7 2.09  23 2.09  24 2.09  32 2.09  22 2.09  26 2.10
  55  0.750  0.250  0.353-   6 2.09  21 2.09  22 2.09  29 2.09  23 2.09
  56  0.000  0.000  0.353-   5 2.09  21 2.09  22 2.09  30 2.09  24 2.09
  57  0.750  0.001  0.649-  27 2.07  35 2.08  28 2.09  12 2.09  25 2.12
  58  0.000  0.250  0.649-  28 2.08  11 2.08  36 2.09  27 2.09  26 2.12
  59  0.750  0.250  0.549-  27 2.08  26 2.09  10 2.09  33 2.09  25 2.09  23 2.09
  60  0.000  0.000  0.549-  28 2.08  26 2.09   9 2.09  34 2.09  25 2.09  24 2.09
  61  0.750  0.500  0.451-  16 2.09  23 2.09  31 2.09  32 2.09  29 2.09  33 2.10
  62  0.000  0.750  0.451-  15 2.09  24 2.09  31 2.09  32 2.09  30 2.09  34 2.10
  63  0.750  0.750  0.353-  14 2.09  21 2.09  29 2.09  30 2.09  31 2.09
  64  0.000  0.500  0.353-  13 2.09  22 2.09  29 2.09  30 2.09  32 2.09
  65  0.752  0.498  0.650-  36 2.08  27 2.08  20 2.12  35 2.12  33 2.13
  66  0.001  0.750  0.649-  19 2.07  35 2.08  28 2.09  36 2.09  34 2.12
  67  0.750  0.750  0.550-  18 2.08  33 2.08  34 2.09  25 2.09  31 2.10  35 2.11
  68  1.000  0.500  0.549-  36 2.08  26 2.09  34 2.09  33 2.09  17 2.09  32 2.09


IMPORTANT INFORMATION: All symmetrisations will be switched off!
NOSYMM: (Re-)initialisation of all symmetry stuff for point group C_1.


----------------------------------------------------------------------------------------

                                     Primitive cell                                     

  volume of cell :    1482.1129

  direct lattice vectors                    reciprocal lattice vectors
     8.349111827  0.000000000  0.000000000     0.119773219  0.000000000  0.000000000
     0.000000000  8.349111827  0.000000000     0.000000000  0.119773219  0.000000000
     0.000000000  0.000000000 21.261833870     0.000000000  0.000000000  0.047032632

  length of vectors
     8.349111827  8.349111827 21.261833870     0.119773219  0.119773219  0.047032632

  position of ions in fractional coordinates (direct lattice)
     0.549944717  0.549944781  0.753876102
     0.701699913  0.701699949  0.753648887
     0.522658297  0.522658508  0.806357877
     0.729680267  0.729680352  0.806017713
     0.250000000  0.000000000  0.352744737
     0.500000000  0.250000000  0.352744737
     0.250000000  0.250000000  0.450914912
     0.500000000  0.000000000  0.450914912
     0.250014876  0.000025136  0.549620265
     0.499989198  0.250259504  0.549770430
     0.249758639  0.249758619  0.647266642
     0.499748175  0.001023389  0.647054146
     0.250000000  0.500000000  0.352744737
     0.500000000  0.750000000  0.352744737
     0.250000000  0.750000000  0.450914912
     0.500000000  0.500000000  0.450914912
     0.250259481  0.499989292  0.549770403
     0.500324996  0.749699633  0.549829517
     0.249046953  0.750317288  0.647055375
     0.498356583  0.498356570  0.648995922
     0.750000000  0.000000000  0.352744737
     0.000000000  0.250000000  0.352744737
     0.750000000  0.250000000  0.450914912
     0.000000000  0.000000000  0.450914912
     0.750037691  0.999802294  0.549756240
     0.000025163  0.250014856  0.549620259
     0.750317271  0.249046986  0.647055399
     0.000313378  0.000313367  0.647256968
     0.750000000  0.500000000  0.352744737
     0.000000000  0.750000000  0.352744737
     0.750000000  0.750000000  0.450914912
     0.000000000  0.500000000  0.450914912
     0.749699611  0.500324946  0.549829507
     0.999802202  0.750037702  0.549756191
     0.751781551  0.751781575  0.648898556
     0.001023446  0.499748174  0.647054129
     0.250000000  0.000000000  0.450914912
     0.500000000  0.250000000  0.450914912
     0.250000000  0.250000000  0.352744737
     0.500000000  0.000000000  0.352744737
     0.249806604  0.000263612  0.649470177
     0.499861646  0.249006867  0.649310360
     0.250005538  0.250005594  0.549318529
     0.499991448  0.999813535  0.549351126
     0.250000000  0.500000000  0.450914912
     0.500000000  0.750000000  0.450914912
     0.250000000  0.750000000  0.352744737
     0.500000000  0.500000000  0.352744737
     0.249006934  0.499861603  0.649310377
     0.498415428  0.751709167  0.650041385
     0.250251023  0.750024336  0.549354645
     0.500215285  0.500215314  0.549907598
     0.750000000  0.000000000  0.450914912
     0.000000000  0.250000000  0.450914912
     0.750000000  0.250000000  0.352744737
     0.000000000  0.000000000  0.352744737
     0.750210189  0.001113803  0.649267392
     0.000263617  0.249806570  0.649470160
     0.750024346  0.250251069  0.549354642
     0.000046170  0.000046151  0.549310103
     0.750000000  0.500000000  0.450914912
     0.000000000  0.750000000  0.450914912
     0.750000000  0.750000000  0.352744737
     0.000000000  0.500000000  0.352744737
     0.751709176  0.498415453  0.650041369
     0.001113822  0.750210210  0.649267393
     0.749828331  0.749828369  0.549884890
     0.999813545  0.499991517  0.549351106

  ion indices of the primitive-cell ions
   primitive index   ion index
                 1           1
                 2           2
                 3           3
                 4           4
                 5           5
                 6           6
                 7           7
                 8           8
                 9           9
                10          10
                11          11
                12          12
                13          13
                14          14
                15          15
                16          16
                17          17
                18          18
                19          19
                20          20
                21          21
                22          22
                23          23
                24          24
                25          25
                26          26
                27          27
                28          28
                29          29
                30          30
                31          31
                32          32
                33          33
                34          34
                35          35
                36          36
                37          37
                38          38
                39          39
                40          40
                41          41
                42          42
                43          43
                44          44
                45          45
                46          46
                47          47
                48          48
                49          49
                50          50
                51          51
                52          52
                53          53
                54          54
                55          55
                56          56
                57          57
                58          58
                59          59
                60          60
                61          61
                62          62
                63          63
                64          64
                65          65
                66          66
                67          67
                68          68

----------------------------------------------------------------------------------------



 KPOINTS: pymatgen v2020.8.13 with grid density = 

Automatic generation of k-mesh.
 Grid dimensions read from file:
 generate k-points for:    2    2    1

 Generating k-lattice:

  Cartesian coordinates                     Fractional coordinates (reciprocal lattice)
     0.059886610  0.000000000  0.000000000     0.500000000  0.000000000  0.000000000
     0.000000000  0.059886610  0.000000000     0.000000000  0.500000000  0.000000000
     0.000000000  0.000000000  0.047032632     0.000000000  0.000000000  1.000000000

  Length of vectors
     0.059886610  0.059886610  0.047032632

  Shift w.r.t. Gamma in fractional coordinates (k-lattice)
     0.000000000  0.000000000  0.000000000

 
 Subroutine IBZKPT returns following result:
 ===========================================
 
 Found      4 irreducible k-points:
 
 Following reciprocal coordinates:
            Coordinates               Weight
  0.000000  0.000000  0.000000      1.000000
  0.500000  0.000000  0.000000      1.000000
  0.000000  0.500000  0.000000      1.000000
  0.500000  0.500000  0.000000      1.000000
 
 Following cartesian coordinates:
            Coordinates               Weight
  0.000000  0.000000  0.000000      1.000000
  0.059887  0.000000  0.000000      1.000000
  0.000000  0.059887  0.000000      1.000000
  0.059887  0.059887  0.000000      1.000000
 


--------------------------------------------------------------------------------------------------------




 Dimension of arrays:
   k-points           NKPTS =      4   k-points in BZ     NKDIM =      4   number of bands    NBANDS=    320
   number of dos      NEDOS =    301   number of ions     NIONS =     68
   non local maximal  LDIM  =      5   non local SUM 2l+1 LMDIM =     13
   total plane-waves  NPLWV = 882000
   max r-space proj   IRMAX =      1   max aug-charges    IRDMAX=  11926
   dimension x,y,z NGX =    70 NGY =   70 NGZ =  180
   dimension x,y,z NGXF=   140 NGYF=  140 NGZF=  360
   support grid    NGXF=   140 NGYF=  140 NGZF=  360
   ions per type =               2   2  32  32
   NGX,Y,Z   is equivalent  to a cutoff of  13.94, 13.94, 14.07 a.u.
   NGXF,Y,Z  is equivalent  to a cutoff of  27.88, 27.88, 28.15 a.u.

 SYSTEM =  MgO-rocksalt                            
 POSCAR =   N  O Mg  O                             

--------------------------------------------------------------------------------------------------------


  energy-cutoff  :      600.00
  volume of cell :     1482.11
      direct lattice vectors                 reciprocal lattice vectors
     8.349111827  0.000000000  0.000000000     0.119773219  0.000000000  0.000000000
     0.000000000  8.349111827  0.000000000     0.000000000  0.119773219  0.000000000
     0.000000000  0.000000000 21.261833870     0.000000000  0.000000000  0.047032632

  length of vectors
     8.349111827  8.349111827 21.261833870     0.119773219  0.119773219  0.047032632



 k-points in units of 2pi/SCALE and weight: pymatgen v2020.8.13 with grid density = 
   0.00000000  0.00000000  0.00000000       0.250
   0.05988661  0.00000000  0.00000000       0.250
   0.00000000  0.05988661  0.00000000       0.250
   0.05988661  0.05988661  0.00000000       0.250

 k-points in reciprocal lattice and weights: pymatgen v2020.8.13 with grid density = 
   0.00000000  0.00000000  0.00000000       0.250
   0.50000000  0.00000000  0.00000000       0.250
   0.00000000  0.50000000  0.00000000       0.250
   0.50000000  0.50000000  0.00000000       0.250

 position of ions in fractional coordinates (direct lattice) 
   0.54994472  0.54994478  0.75387610
   0.70169991  0.70169995  0.75364889
   0.52265830  0.52265851  0.80635788
   0.72968027  0.72968035  0.80601771
   0.25000000  0.00000000  0.35274474
   0.50000000  0.25000000  0.35274474
   0.25000000  0.25000000  0.45091491
   0.50000000  0.00000000  0.45091491
   0.25001488  0.00002514  0.54962027
   0.49998920  0.25025950  0.54977043
   0.24975864  0.24975862  0.64726664
   0.49974817  0.00102339  0.64705415
   0.25000000  0.50000000  0.35274474
   0.50000000  0.75000000  0.35274474
   0.25000000  0.75000000  0.45091491
   0.50000000  0.50000000  0.45091491
   0.25025948  0.49998929  0.54977040
   0.50032500  0.74969963  0.54982952
   0.24904695  0.75031729  0.64705537
   0.49835658  0.49835657  0.64899592
   0.75000000  0.00000000  0.35274474
   0.00000000  0.25000000  0.35274474
   0.75000000  0.25000000  0.45091491
   0.00000000  0.00000000  0.45091491
   0.75003769  0.99980229  0.54975624
   0.00002516  0.25001486  0.54962026
   0.75031727  0.24904699  0.64705540
   0.00031338  0.00031337  0.64725697
   0.75000000  0.50000000  0.35274474
   0.00000000  0.75000000  0.35274474
   0.75000000  0.75000000  0.45091491
   0.00000000  0.50000000  0.45091491
   0.74969961  0.50032495  0.54982951
   0.99980220  0.75003770  0.54975619
   0.75178155  0.75178158  0.64889856
   0.00102345  0.49974817  0.64705413
   0.25000000  0.00000000  0.45091491
   0.50000000  0.25000000  0.45091491
   0.25000000  0.25000000  0.35274474
   0.50000000  0.00000000  0.35274474
   0.24980660  0.00026361  0.64947018
   0.49986165  0.24900687  0.64931036
   0.25000554  0.25000559  0.54931853
   0.49999145  0.99981353  0.54935113
   0.25000000  0.50000000  0.45091491
   0.50000000  0.75000000  0.45091491
   0.25000000  0.75000000  0.35274474
   0.50000000  0.50000000  0.35274474
   0.24900693  0.49986160  0.64931038
   0.49841543  0.75170917  0.65004139
   0.25025102  0.75002434  0.54935464
   0.50021529  0.50021531  0.54990760
   0.75000000  0.00000000  0.45091491
   0.00000000  0.25000000  0.45091491
   0.75000000  0.25000000  0.35274474
   0.00000000  0.00000000  0.35274474
   0.75021019  0.00111380  0.64926739
   0.00026362  0.24980657  0.64947016
   0.75002435  0.25025107  0.54935464
   0.00004617  0.00004615  0.54931010
   0.75000000  0.50000000  0.45091491
   0.00000000  0.75000000  0.45091491
   0.75000000  0.75000000  0.35274474
   0.00000000  0.50000000  0.35274474
   0.75170918  0.49841545  0.65004137
   0.00111382  0.75021021  0.64926739
   0.74982833  0.74982837  0.54988489
   0.99981355  0.49999152  0.54935111

 position of ions in cartesian coordinates  (Angst):
   4.59154994  4.59155047 16.02878843
   5.85857105  5.85857134 16.02395743
   4.36373257  4.36373433 17.14464722
   6.09218215  6.09218286 17.13741472
   2.08727796  0.00000000  7.50000000
   4.17455591  2.08727796  7.50000000
   2.08727796  2.08727796  9.58727796
   4.17455591  0.00000000  9.58727796
   2.08740215  0.00020987 11.68593477
   4.17446573  2.08944458 11.68912754
   2.08526281  2.08526264 13.76207581
   4.17245340  0.00854439 13.75755777
   2.08727796  4.17455591  7.50000000
   4.17455591  6.26183387  7.50000000
   2.08727796  6.26183387  9.58727796
   4.17455591  4.17455591  9.58727796
   2.08944439  4.17446651 11.68912698
   4.17726934  6.25932607 11.69038384
   2.07932086  6.26448294 13.75758388
   4.16083484  4.16083473 13.79884347
   6.26183387  0.00000000  7.50000000
   0.00000000  2.08727796  7.50000000
   6.26183387  2.08727796  9.58727796
   0.00000000  0.00000000  9.58727796
   6.26214856  8.34746116 11.68882585
   0.00021009  2.08740199 11.68593465
   6.26448280  2.07932113 13.75758439
   0.00261643  0.00261634 13.76187013
   6.26183387  4.17455591  7.50000000
   0.00000000  6.26183387  7.50000000
   6.26183387  6.26183387  9.58727796
   0.00000000  4.17455591  9.58727796
   6.25932589  4.17726893 11.69038363
   8.34746039  6.26214865 11.68882480
   6.27670824  6.27670844 13.79677330
   0.00854487  4.17245339 13.75755739
   2.08727796  0.00000000  9.58727796
   4.17455591  2.08727796  9.58727796
   2.08727796  2.08727796  7.50000000
   4.17455591  0.00000000  7.50000000
   2.08566327  0.00220093 13.80892700
   4.17340078  2.07898618 13.80552900
   2.08732419  2.08732466 11.67951930
   4.17448451  8.34755501 11.68021237
   2.08727796  4.17455591  9.58727796
   4.17455591  6.26183387  9.58727796
   2.08727796  6.26183387  7.50000000
   4.17455591  4.17455591  7.50000000
   2.07898673  4.17340042 13.80552936
   4.16132615  6.27610389 13.82107194
   2.08937378  6.26203706 11.68028719
   4.17635336  4.17635359 11.69204400
   6.26183387  0.00000000  9.58727796
   0.00000000  2.08727796  9.58727796
   6.26183387  2.08727796  7.50000000
   0.00000000  0.00000000  7.50000000
   6.26358876  0.00929927 13.80461542
   0.00220097  2.08566299 13.80892664
   6.26203714  2.08937416 11.68028714
   0.00038548  0.00038532 11.67934016
   6.26183387  4.17455591  9.58727796
   0.00000000  6.26183387  9.58727796
   6.26183387  6.26183387  7.50000000
   0.00000000  4.17455591  7.50000000
   6.27610397  4.16132636 13.82107159
   0.00929943  6.26358894 13.80461544
   6.26040058  6.26040091 11.69156119
   8.34755509  4.17448509 11.68021196



--------------------------------------------------------------------------------------------------------

--------------------------------------- Iteration      FINAL  ---------------------------------------


--------------------OUTCAR has been truncated-------------------------


--------------------OUTCAR has been truncated-------------------------


--------------------OUTCAR has been truncated-------------------------


--------------------OUTCAR has been truncated-------------------------


--------------------OUTCAR has been truncated-------------------------


--------------------OUTCAR has been truncated-------------------------


--------------------OUTCAR has been truncated-------------------------


--------------------OUTCAR has been truncated-------------------------


--------------------OUTCAR has been truncated-------------------------


--------------------OUTCAR has been truncated-------------------------


  FORCE on cell =-STRESS in cart. coord.  units (eV):
  Direction    XX          YY          ZZ          XY          YZ          ZX
  --------------------------------------------------------------------------------------
  Alpha Z   969.95739   969.95739   969.95739
  Ewald  160456.68344160456.68322************   339.84007     0.74663     0.74629
  Hartree171102.61802171102.61786************   247.37439    -0.06099    -0.06106
  E(xc)   -2562.28907 -2562.28907 -2560.48513     0.59113     0.00404     0.00404
  Local  ************************340423.18989  -601.96234    -0.48282    -0.48244
  n-local -2892.10096 -2892.10099 -2926.39530    -8.32530    -0.00924    -0.00935
  augment  1065.67840  1065.67840  1054.72428     2.15871    -0.00913    -0.00900
  Kinetic  7791.59148  7791.59153  7781.33400    21.27139    -0.24230    -0.24231
  Fock        0.00000     0.00000     0.00000     0.00000     0.00000     0.00000
  -------------------------------------------------------------------------------------
  Total      -8.29838    -8.29836    14.63412     0.94806    -0.05382    -0.05383
  in kB      -8.97063    -8.97061    15.81962     1.02486    -0.05818    -0.05819
  external pressure =       -0.71 kB  Pullay stress =        0.00 kB


 VOLUME and BASIS-vectors are now :
 -----------------------------------------------------------------------------
  energy-cutoff  :      600.00
  volume of cell :     1482.11
      direct lattice vectors                 reciprocal lattice vectors
     8.349111827  0.000000000  0.000000000     0.119773219  0.000000000  0.000000000
     0.000000000  8.349111827  0.000000000     0.000000000  0.119773219  0.000000000
     0.000000000  0.000000000 21.261833870     0.000000000  0.000000000  0.047032632

  length of vectors
     8.349111827  8.349111827 21.261833870     0.119773219  0.119773219  0.047032632


 FORCES acting on ions:
    Electron-Ion                     Ewald-Force                    Non-Local-Force
 -----------------------------------------------------------------------------------------------
   0.547E+02 0.547E+02 -.113E+04   -.532E+02 -.532E+02 0.109E+04   -.168E+01 -.168E+01 0.415E+02
   -.534E+02 -.534E+02 -.113E+04   0.516E+02 0.516E+02 0.109E+04   0.190E+01 0.190E+01 0.414E+02
   0.146E+03 0.146E+03 -.164E+04   -.160E+03 -.160E+03 0.171E+04   0.135E+02 0.135E+02 -.594E+02
   -.147E+03 -.147E+03 -.164E+04   0.161E+03 0.161E+03 0.171E+04   -.138E+02 -.138E+02 -.592E+02
   0.198E+00 -.207E+00 0.216E+04   -.199E+00 0.209E+00 -.215E+04   0.845E-03 -.104E-02 -.685E+01
   0.208E+00 0.197E+00 0.216E+04   -.209E+00 -.198E+00 -.215E+04   0.108E-02 0.643E-03 -.684E+01
   0.742E+00 0.742E+00 0.778E+03   -.753E+00 -.753E+00 -.778E+03   0.841E-02 0.842E-02 0.385E+00
   0.787E+00 -.109E+01 0.779E+03   -.800E+00 0.108E+01 -.780E+03   0.102E-01 0.123E-01 0.437E+00
   0.429E+01 -.437E+01 -.597E+03   -.434E+01 0.443E+01 0.597E+03   0.407E-01 -.431E-01 -.238E+00
   0.444E+01 0.646E+01 -.587E+03   -.450E+01 -.640E+01 0.587E+03   0.438E-01 -.637E-01 -.480E+00
   0.220E+02 0.220E+02 -.199E+04   -.220E+02 -.220E+02 0.198E+04   0.673E-01 0.673E-01 0.570E+01
   0.243E+02 -.302E+02 -.196E+04   -.243E+02 0.308E+02 0.196E+04   0.553E-01 -.520E+00 0.569E+01
   0.197E+00 0.208E+00 0.216E+04   -.198E+00 -.209E+00 -.215E+04   0.640E-03 0.108E-02 -.684E+01
   0.210E+00 -.198E+00 0.216E+04   -.211E+00 0.199E+00 -.215E+04   0.483E-03 -.404E-03 -.684E+01
   0.106E+01 -.741E+00 0.779E+03   -.104E+01 0.753E+00 -.780E+03   -.150E-01 -.959E-02 0.439E+00
   0.112E+01 0.112E+01 0.780E+03   -.111E+01 -.111E+01 -.781E+03   -.910E-02 -.910E-02 0.598E+00
   0.646E+01 0.444E+01 -.587E+03   -.640E+01 -.450E+01 0.587E+03   -.637E-01 0.438E-01 -.480E+00
   0.680E+01 -.665E+01 -.577E+03   -.672E+01 0.656E+01 0.576E+03   -.755E-01 0.850E-01 0.302E+00
   0.297E+02 -.239E+02 -.196E+04   -.303E+02 0.239E+02 0.196E+04   0.536E+00 -.540E-01 0.569E+01
   0.448E+02 0.448E+02 -.184E+04   -.456E+02 -.456E+02 0.184E+04   0.746E+00 0.746E+00 0.322E+01
   -.198E+00 -.208E+00 0.216E+04   0.199E+00 0.210E+00 -.215E+04   -.102E-02 -.933E-03 -.684E+01
   -.207E+00 0.198E+00 0.216E+04   0.209E+00 -.199E+00 -.215E+04   -.104E-02 0.847E-03 -.685E+01
   -.741E+00 0.106E+01 0.779E+03   0.753E+00 -.104E+01 -.780E+03   -.959E-02 -.150E-01 0.439E+00
   -.783E+00 -.783E+00 0.778E+03   0.797E+00 0.797E+00 -.778E+03   -.108E-01 -.108E-01 0.382E+00
   -.435E+01 -.665E+01 -.586E+03   0.440E+01 0.659E+01 0.587E+03   -.423E-01 0.579E-01 -.488E+00
   -.437E+01 0.429E+01 -.597E+03   0.443E+01 -.434E+01 0.597E+03   -.431E-01 0.407E-01 -.238E+00
   -.239E+02 0.297E+02 -.196E+04   0.239E+02 -.303E+02 0.196E+04   -.540E-01 0.536E+00 0.569E+01
   -.224E+02 -.224E+02 -.199E+04   0.225E+02 0.225E+02 0.198E+04   -.682E-01 -.682E-01 0.570E+01
   -.198E+00 0.210E+00 0.216E+04   0.199E+00 -.211E+00 -.215E+04   -.408E-03 0.488E-03 -.684E+01
   -.208E+00 -.198E+00 0.216E+04   0.210E+00 0.199E+00 -.215E+04   -.934E-03 -.102E-02 -.684E+01
   -.107E+01 -.107E+01 0.780E+03   0.106E+01 0.106E+01 -.781E+03   0.897E-02 0.897E-02 0.593E+00
   -.109E+01 0.787E+00 0.779E+03   0.108E+01 -.800E+00 -.780E+03   0.123E-01 0.102E-01 0.437E+00
   -.665E+01 0.680E+01 -.577E+03   0.656E+01 -.672E+01 0.576E+03   0.850E-01 -.755E-01 0.302E+00
   -.665E+01 -.435E+01 -.586E+03   0.659E+01 0.440E+01 0.587E+03   0.579E-01 -.423E-01 -.488E+00
   -.442E+02 -.442E+02 -.184E+04   0.450E+02 0.450E+02 0.184E+04   -.751E+00 -.751E+00 0.316E+01
   -.302E+02 0.243E+02 -.196E+04   0.308E+02 -.243E+02 0.196E+04   -.520E+00 0.554E-01 0.569E+01
   0.615E+00 -.639E+00 0.583E+03   -.625E+00 0.647E+00 -.583E+03   0.134E-01 -.114E-01 -.105E+00
   0.643E+00 0.639E+00 0.584E+03   -.651E+00 -.664E+00 -.584E+03   0.118E-01 0.356E-01 -.907E-01
   0.136E+00 0.136E+00 0.162E+04   -.139E+00 -.139E+00 -.162E+04   0.318E-02 0.318E-02 0.358E+01
   0.144E+00 -.170E+00 0.162E+04   -.147E+00 0.170E+00 -.162E+04   0.369E-02 -.818E-04 0.358E+01
   0.117E+02 -.119E+02 -.152E+04   -.117E+02 0.118E+02 0.152E+04   -.229E-01 0.230E-01 -.538E+01
   0.135E+02 0.326E+02 -.149E+04   -.134E+02 -.324E+02 0.149E+04   -.489E-01 -.249E+00 -.552E+01
   0.378E+01 0.378E+01 -.441E+03   -.378E+01 -.378E+01 0.441E+03   -.393E-02 -.394E-02 0.176E+00
   0.390E+01 -.434E+01 -.434E+03   -.389E+01 0.440E+01 0.434E+03   -.108E-01 -.961E-01 0.319E+00
   0.639E+00 0.643E+00 0.584E+03   -.664E+00 -.651E+00 -.584E+03   0.356E-01 0.118E-01 -.907E-01
   0.702E+00 -.660E+00 0.585E+03   -.735E+00 0.691E+00 -.585E+03   0.452E-01 -.428E-01 -.993E-01
   0.162E+00 -.137E+00 0.162E+04   -.162E+00 0.139E+00 -.162E+04   -.122E-03 -.329E-02 0.358E+01
   0.171E+00 0.171E+00 0.162E+04   -.171E+00 -.171E+00 -.162E+04   -.613E-03 -.613E-03 0.359E+01
   0.326E+02 0.135E+02 -.149E+04   -.324E+02 -.134E+02 0.149E+04   -.249E+00 -.489E-01 -.552E+01
   0.426E+02 -.420E+02 -.142E+04   -.423E+02 0.417E+02 0.143E+04   -.338E+00 0.335E+00 -.513E+01
   0.426E+01 -.382E+01 -.434E+03   -.432E+01 0.381E+01 0.434E+03   0.973E-01 0.108E-01 0.317E+00
   0.456E+01 0.456E+01 -.430E+03   -.462E+01 -.462E+01 0.430E+03   0.726E-01 0.726E-01 -.979E-01
   -.613E+00 -.677E+00 0.584E+03   0.619E+00 0.700E+00 -.584E+03   -.951E-02 -.311E-01 -.868E-01
   -.639E+00 0.615E+00 0.583E+03   0.647E+00 -.625E+00 -.583E+03   -.114E-01 0.134E-01 -.105E+00
   -.137E+00 0.162E+00 0.162E+04   0.139E+00 -.162E+00 -.162E+04   -.329E-02 -.116E-03 0.358E+01
   -.144E+00 -.144E+00 0.162E+04   0.147E+00 0.147E+00 -.162E+04   -.344E-02 -.343E-02 0.358E+01
   -.133E+02 -.332E+02 -.148E+04   0.132E+02 0.329E+02 0.149E+04   0.522E-01 0.252E+00 -.552E+01
   -.119E+02 0.117E+02 -.152E+04   0.118E+02 -.117E+02 0.152E+04   0.230E-01 -.229E-01 -.538E+01
   -.382E+01 0.426E+01 -.434E+03   0.381E+01 -.432E+01 0.434E+03   0.109E-01 0.973E-01 0.317E+00
   -.386E+01 -.386E+01 -.441E+03   0.386E+01 0.386E+01 0.440E+03   0.609E-02 0.610E-02 0.173E+00
   -.660E+00 0.702E+00 0.585E+03   0.691E+00 -.735E+00 -.585E+03   -.428E-01 0.452E-01 -.993E-01
   -.677E+00 -.613E+00 0.584E+03   0.700E+00 0.619E+00 -.584E+03   -.311E-01 -.951E-02 -.868E-01
   -.163E+00 -.163E+00 0.162E+04   0.163E+00 0.163E+00 -.162E+04   0.105E-02 0.106E-02 0.359E+01
   -.170E+00 0.144E+00 0.162E+04   0.170E+00 -.147E+00 -.162E+04   -.807E-04 0.369E-02 0.358E+01
   -.420E+02 0.426E+02 -.142E+04   0.417E+02 -.423E+02 0.143E+04   0.335E+00 -.338E+00 -.513E+01
   -.332E+02 -.133E+02 -.148E+04   0.329E+02 0.132E+02 0.149E+04   0.252E+00 0.522E-01 -.552E+01
   -.444E+01 -.444E+01 -.429E+03   0.449E+01 0.449E+01 0.429E+03   -.714E-01 -.714E-01 -.766E-01
   -.434E+01 0.390E+01 -.434E+03   0.440E+01 -.389E+01 0.434E+03   -.961E-01 -.108E-01 0.319E+00
 -----------------------------------------------------------------------------------------------
   0.807E-01 0.807E-01 0.618E+02   0.142E-12 -.369E-12 -.227E-11   -.812E-01 -.813E-01 -.618E+02


 POSITION                                       TOTAL-FORCE (eV/Angst)
 -----------------------------------------------------------------------------------
      4.59155      4.59155     16.02879        -0.153482     -0.153483     -1.848680
      5.85857      5.85857     16.02396         0.150356      0.150352     -1.862335
      4.36373      4.36373     17.14465        -0.418574     -0.418567      1.742727
      6.09218      6.09218     17.13741         0.412935      0.412932      1.734205
      2.08728      0.00000      7.50000        -0.000352      0.000417      0.162773
      4.17456      2.08728      7.50000        -0.000441     -0.000540      0.159337
      2.08728      2.08728      9.58728        -0.002115     -0.002108      0.050437
      4.17456      0.00000      9.58728        -0.002700     -0.003914      0.045905
      2.08740      0.00021     11.68593        -0.012083      0.012209      0.036703
      4.17447      2.08944     11.68913        -0.009882      0.002316      0.048500
      2.08526      2.08526     13.76208         0.013707      0.013708      0.264843
      4.17245      0.00854     13.75756         0.017390      0.063534      0.280074
      2.08728      4.17456      7.50000        -0.000542     -0.000441      0.159355
      4.17456      6.26183      7.50000        -0.000378      0.000354      0.160125
      2.08728      6.26183      9.58728         0.005081      0.002601      0.045837
      4.17456      4.17456      9.58728         0.001851      0.001848      0.060217
      2.08944      4.17447     11.68913         0.002313     -0.009896      0.048511
      4.17727      6.25933     11.69038         0.007752     -0.007463     -0.029619
      2.07932      6.26448     13.75758        -0.062135     -0.016904      0.280106
      4.16083      4.16083     13.79884        -0.033075     -0.033065      0.426616
      6.26183      0.00000      7.50000         0.000415      0.000623      0.159152
      0.00000      2.08728      7.50000         0.000417     -0.000350      0.162787
      6.26183      2.08728      9.58728         0.002599      0.005081      0.045840
      0.00000      0.00000      9.58728         0.003065      0.003068      0.049910
      6.26215      8.34746     11.68883         0.010306     -0.000879      0.048343
      0.00021      2.08740     11.68593         0.012205     -0.012076      0.036696
      6.26448      2.07932     13.75758        -0.016908     -0.062138      0.280081
      0.00262      0.00262     13.76187        -0.013421     -0.013440      0.264222
      6.26183      4.17456      7.50000         0.000353     -0.000379      0.160129
      0.00000      6.26183      7.50000         0.000621      0.000416      0.159162
      6.26183      6.26183      9.58728        -0.001646     -0.001646      0.059112
      0.00000      4.17456      9.58728        -0.003912     -0.002710      0.045908
      6.25933      4.17727     11.69038        -0.007463      0.007757     -0.029635
      8.34746      6.26215     11.68882        -0.000873      0.010299      0.048368
      6.27671      6.27671     13.79677         0.034362      0.034342      0.427656
      0.00854      4.17245     13.75756         0.063529      0.017411      0.280061
      2.08728      0.00000      9.58728         0.004090     -0.003599      0.055115
      4.17456      2.08728      9.58728         0.004139      0.009774      0.078649
      2.08728      2.08728      7.50000         0.000933      0.000931     -0.552528
      4.17456      0.00000      7.50000         0.001069     -0.000003     -0.551207
      2.08566      0.00220     13.80893         0.019255     -0.019362     -0.004560
      4.17340      2.07899     13.80553         0.013801     -0.007510     -0.036786
      2.08732      2.08732     11.67952         0.000811      0.000806     -0.028795
      4.17448      8.34756     11.68021         0.001374     -0.031135     -0.014609
      2.08728      4.17456      9.58728         0.009771      0.004142      0.078653
      4.17456      6.26183      9.58728         0.012526     -0.011887      0.080567
      2.08728      6.26183      7.50000        -0.000035     -0.000928     -0.551195
      4.17456      4.17456      7.50000        -0.000232     -0.000222     -0.550077
      2.07899      4.17340     13.80553        -0.007517      0.013796     -0.036794
      4.16133      6.27610     13.82107        -0.000513     -0.001285     -0.028816
      2.08937      6.26204     11.68029         0.030057     -0.000012     -0.015654
      4.17635      4.17635     11.69204         0.019377      0.019375     -0.003617
      6.26183      0.00000      9.58728        -0.003540     -0.008578      0.078248
      0.00000      2.08728      9.58728        -0.003594      0.004087      0.055120
      6.26183      2.08728      7.50000        -0.000931     -0.000040     -0.551198
      0.00000      0.00000      7.50000        -0.000990     -0.000989     -0.552431
      6.26359      0.00930     13.80462        -0.013289      0.006851     -0.036562
      0.00220      2.08566     13.80893        -0.019366      0.019264     -0.004551
      6.26204      2.08937     11.68029        -0.000018      0.030056     -0.015656
      0.00039      0.00039     11.67934        -0.001625     -0.001618     -0.028906
      6.26183      4.17456      9.58728        -0.011888      0.012526      0.080566
      0.00000      6.26183      9.58728        -0.008580     -0.003537      0.078244
      6.26183      6.26183      7.50000         0.000371      0.000373     -0.549972
      0.00000      4.17456      7.50000        -0.000002      0.001063     -0.551191
      6.27610      4.16133     13.82107        -0.001284     -0.000529     -0.028819
      0.00930      6.26359     13.80462         0.006845     -0.013287     -0.036560
      6.26040      6.26040     11.69156        -0.019172     -0.019170     -0.003496
      8.34756      4.17449     11.68021        -0.031122      0.001379     -0.014611
 -----------------------------------------------------------------------------------
    total drift:                               -0.000560     -0.000566      0.018658


--------------------------------------------------------------------------------------------------------



  FREE ENERGIE OF THE ION-ELECTRON SYSTEM (eV)
  ---------------------------------------------------
  free  energy   TOTEN  =      -285.27229833 eV

  energy  without entropy=     -285.27229833  energy(sigma->0) =     -285.27229833



--------------------------------------------------------------------------------------------------------


    POTLOK:  cpu time      2.4676: real time      2.4677


--------------------------------------------------------------------------------------------------------


     LOOP+:  cpu time    219.1315: real time    219.4490
    4ORBIT:  cpu time      0.0000: real time      0.0000

 total amount of memory used by VASP MPI-rank0    66349. kBytes
=======================================================================

   base      :      30000. kBytes
   nonl-proj :      17084. kBytes
   fftplans  :       4921. kBytes
   grid      :       8190. kBytes
   one-center:         73. kBytes
   wavefun   :       6081. kBytes

  
  
 General timing and accounting informations for this job:
 ========================================================
  
                  Total CPU time used (sec):      256.111
                            User time (sec):      253.483
                          System time (sec):        2.628
                         Elapsed time (sec):      268.312
  
                   Maximum memory used (kb):      272948.
                   Average memory used (kb):          N/A
  
                          Minor page faults:        92867
                          Major page faults:           52
                 Voluntary context switches:        13022
