 vasp.6.3.0 20Jan22 (build Mar 11 2022 13:48:16) complex                        
  
 executed on             LinuxIFC date 2024.01.23  08:52:29
 running on  304 total cores
 distrk:  each k-point on  304 cores,    1 groups
 distr:  one band on NCORE=   2 cores,  152 groups


--------------------------------------------------------------------------------------------------------


 INCAR:
   SYSTEM = TiO2
   ISMEAR = 0
   SIGMA = 0.05
   EDIFF = 1E-5
   ALGO = ALL
   ISTART = 0
   IBRION = -1
   NSW = 0
   ISYM = 0
   ISIF = 2
   EDIFFG = -0.01
   DIPOL = 0.5 0.5 0.5
   IDIPOL = 3
   LDIPOL = .TRUE.
   GGA = RE
   IVDW = 13
   VDW_S8 = 1.7468
   VDW_A1 = 0.5363
   VDW_A2 = 3.0726
   ENCUT = 600
   PREC = Accurate
   LASPH = .TRUE.
   LREAL = .FALSE.
   ISPIN = 1
   NELM = 200
   NELMIN = 8
   NCORE = 2
   KPAR = 1
   LWAVE = .FALSE.
   LCHARG = .FALSE.

 POTCAR:    PAW_PBE Ti_pv 07Sep2000               
 POTCAR:    PAW_PBE O 08Apr2002                   
 -----------------------------------------------------------------------------
|                                                                             |
|           W    W    AA    RRRRR   N    N  II  N    N   GGGG   !!!           |
|           W    W   A  A   R    R  NN   N  II  NN   N  G    G  !!!           |
|           W    W  A    A  R    R  N N  N  II  N N  N  G       !!!           |
|           W WW W  AAAAAA  RRRRR   N  N N  II  N  N N  G  GGG   !            |
|           WW  WW  A    A  R   R   N   NN  II  N   NN  G    G                |
|           W    W  A    A  R    R  N    N  II  N    N   GGGG   !!!           |
|                                                                             |
|     For optimal performance we recommend to set                             |
|       NCORE = 2 up to number-of-cores-per-socket                            |
|     NCORE specifies how many cores store one orbital (NPAR=cpu/NCORE).      |
|     This setting can greatly improve the performance of VASP for DFT.       |
|     The default, NCORE=1 might be grossly inefficient on modern             |
|     multi-core architectures or massively parallel machines. Do your        |
|     own testing! More info at https://www.vasp.at/wiki/index.php/NCORE      |
|     Unfortunately you need to use the default for GW and RPA                |
|     calculations (for HF NCORE is supported but not extensively tested      |
|     yet).                                                                   |
|                                                                             |
 -----------------------------------------------------------------------------

 POTCAR:    PAW_PBE Ti_pv 07Sep2000               
   SHA256 =  f757a1b2c6d082f4c628fa3d987464a8763bf92e53844ac0500b0e2ddc9ce5c0 Ti_pv/POTCAR          
   COPYR  = (c) Copyright 07Sep2000 Georg Kresse                                                    
   COPYR  = This file is part of the software VASP. Any use, copying, and all other rights are regul
   COPYR  = If you do not have a valid VASP license, you may not use, copy or distribute this file. 
   VRHFIN =Ti: d3 s1                                                                                
   LEXCH  = PE                                                                                      
   EATOM  =  1042.5995 eV,   76.6289 Ry                                                             
                                                                                                    
   TITEL  = PAW_PBE Ti_pv 07Sep2000                                                                 
   LULTRA =        F    use ultrasoft PP ?                                                          
   IUNSCR =        1    unscreen: 0-lin 1-nonlin 2-no                                               
   RPACOR =    2.200    partial core radius                                                         
   POMASS =   47.880; ZVAL   =   10.000    mass and valenz                                          
   RCORE  =    2.500    outmost cutoff radius                                                       
   RWIGS  =    2.500; RWIGS  =    1.323    wigner-seitz radius (au A)                               
   ENMAX  =  222.335; ENMIN  =  166.751 eV                                                          
   RCLOC  =    1.701    cutoff for local pot                                                        
   LCOR   =        T    correct aug charges                                                         
   LPAW   =        T    paw PP                                                                      
   EAUG   =  482.848                                                                                
   DEXC   =    0.000                                                                                
   RMAX   =    2.564    core radius for proj-oper                                                   
   RAUG   =    1.300    factor for augmentation sphere                                              
   RDEP   =    2.538    radius for radial grids                                                     
   RDEPT  =    1.952    core radius for aug-charge                                                  
                                                                                                    
   Atomic configuration                                                                             
    8 entries                                                                                       
     n  l   j            E        occ.                                                              
     1  0  0.50     -4865.3608   2.0000                                                             
     2  0  0.50      -533.1368   2.0000                                                             
     2  1  1.50      -440.5031   6.0000                                                             
     3  0  0.50       -59.3186   2.0000                                                             
     3  1  1.50       -35.7012   6.0000                                                             
     3  2  2.50        -1.9157   3.0000                                                             
     4  0  0.50        -3.7291   1.0000                                                             
     4  3  2.50        -1.3606   0.0000                                                             
   Description                                                                                      
     l       E           TYP  RCUT    TYP  RCUT                                                     
     1    -35.7012140     23  2.300                                                                 
     1     -1.3605826     23  2.300                                                                 
     2     -1.9156996     23  2.500                                                                 
     2     -0.4063033     23  2.500                                                                 
     0     -3.7290856     23  2.500                                                                 
     0     20.4087390     23  2.500                                                                 
  local pseudopotential read in
  partial core-charges read in
  partial kinetic energy density read in
  atomic valenz-charges read in
  non local Contribution for L=           1  read in
    real space projection operators read in
  non local Contribution for L=           1  read in
    real space projection operators read in
  non local Contribution for L=           2  read in
    real space projection operators read in
  non local Contribution for L=           2  read in
    real space projection operators read in
  non local Contribution for L=           0  read in
    real space projection operators read in
  non local Contribution for L=           0  read in
    real space projection operators read in
    PAW grid and wavefunctions read in
 
   number of l-projection  operators is LMAX  =           6
   number of lm-projection operators is LMMAX =          18
 
 POTCAR:    PAW_PBE O 08Apr2002                   
   SHA256 =  818f92134a0a090dccd8ba1447fa70422a3b330e708bb4f08108d8ae51209ddf O/POTCAR              
   COPYR  = (c) Copyright 08Apr2002 Georg Kresse                                                    
   COPYR  = This file is part of the software VASP. Any use, copying, and all other rights are regul
   COPYR  = If you do not have a valid VASP license, you may not use, copy or distribute this file. 
   VRHFIN =O: s2p4                                                                                  
   LEXCH  = PE                                                                                      
   EATOM  =   432.3788 eV,   31.7789 Ry                                                             
                                                                                                    
   TITEL  = PAW_PBE O 08Apr2002                                                                     
   LULTRA =        F    use ultrasoft PP ?                                                          
   IUNSCR =        1    unscreen: 0-lin 1-nonlin 2-no                                               
   RPACOR =    1.200    partial core radius                                                         
   POMASS =   16.000; ZVAL   =    6.000    mass and valenz                                          
   RCORE  =    1.520    outmost cutoff radius                                                       
   RWIGS  =    1.550; RWIGS  =    0.820    wigner-seitz radius (au A)                               
   ENMAX  =  400.000; ENMIN  =  300.000 eV                                                          
   ICORE  =        2    local potential                                                             
   LCOR   =        T    correct aug charges                                                         
   LPAW   =        T    paw PP                                                                      
   EAUG   =  605.392                                                                                
   DEXC   =    0.000                                                                                
   RMAX   =    1.553    core radius for proj-oper                                                   
   RAUG   =    1.300    factor for augmentation sphere                                              
   RDEP   =    1.550    radius for radial grids                                                     
   RDEPT  =    1.329    core radius for aug-charge                                                  
                                                                                                    
   Atomic configuration                                                                             
    4 entries                                                                                       
     n  l   j            E        occ.                                                              
     1  0  0.50      -514.6923   2.0000                                                             
     2  0  0.50       -23.9615   2.0000                                                             
     2  1  0.50        -9.0305   4.0000                                                             
     3  2  1.50        -9.5241   0.0000                                                             
   Description                                                                                      
     l       E           TYP  RCUT    TYP  RCUT                                                     
     0    -23.9615318     23  1.200                                                                 
     0     -9.5240782     23  1.200                                                                 
     1     -9.0304911     23  1.520                                                                 
     1      8.1634956     23  1.520                                                                 
     2     -9.5240782      7  1.500                                                                 
  local pseudopotential read in
  partial core-charges read in
  partial kinetic energy density read in
  kinetic energy density of atom read in
  atomic valenz-charges read in
  non local Contribution for L=           0  read in
    real space projection operators read in
  non local Contribution for L=           0  read in
    real space projection operators read in
  non local Contribution for L=           1  read in
    real space projection operators read in
  non local Contribution for L=           1  read in
    real space projection operators read in
    PAW grid and wavefunctions read in
 
   number of l-projection  operators is LMAX  =           4
   number of lm-projection operators is LMMAX =           8
 
 -----------------------------------------------------------------------------
|                                                                             |
|               ----> ADVICE to this user running VASP <----                  |
|                                                                             |
|     You have a (more or less) 'large supercell' and for larger cells it     |
|     might be more efficient to use real-space projection operators.         |
|     Therefore, try LREAL= Auto in the INCAR file.                           |
|     Mind: For very accurate calculation, you might also keep the            |
|     reciprocal projection scheme (i.e. LREAL=.FALSE.).                      |
|                                                                             |
 -----------------------------------------------------------------------------

 -----------------------------------------------------------------------------
|                                                                             |
|               ----> ADVICE to this user running VASP <----                  |
|                                                                             |
|     You enforced a specific xc type in the INCAR file but a different       |
|     type was found in the POTCAR file.                                      |
|     I HOPE YOU KNOW WHAT YOU ARE DOING!                                     |
|                                                                             |
 -----------------------------------------------------------------------------

  PAW_PBE Ti_pv 07Sep2000               :
 energy of atom  1       EATOM=-1042.5995
 kinetic energy error for atom=    0.0007 (will be added to EATOM!!)
  PAW_PBE O 08Apr2002                   :
 energy of atom  2       EATOM= -432.3788
 kinetic energy error for atom=    0.0168 (will be added to EATOM!!)
 
 
 POSCAR: Ti  O
  positions in direct lattice
  No initial velocities read in
 -----------------------------------------------------------------------------
|                                                                             |
|           W    W    AA    RRRRR   N    N  II  N    N   GGGG   !!!           |
|           W    W   A  A   R    R  NN   N  II  NN   N  G    G  !!!           |
|           W    W  A    A  R    R  N N  N  II  N N  N  G       !!!           |
|           W WW W  AAAAAA  RRRRR   N  N N  II  N  N N  G  GGG   !            |
|           WW  WW  A    A  R   R   N   NN  II  N   NN  G    G                |
|           W    W  A    A  R    R  N    N  II  N    N   GGGG   !!!           |
|                                                                             |
|     Specifying the vdW parameters                                           |
|     VDW_S8 = 1.747                                                          |
|     VDW_A1 = 0.536                                                          |
|     VDW_A2 = 3.073                                                          |
|     in the INCAR file will overwrite the defaults for revpbe. Please        |
|     make sure that is what you intended.                                    |
|                                                                             |
 -----------------------------------------------------------------------------

 exchange correlation table for  LEXCH =       40
   RHO(1)=    0.500       N(1)  =     2000
   RHO(2)=  100.500       N(2)  =     4000
 


--------------------------------------------------------------------------------------------------------


 ion  position               nearest neighbor table
   1  0.750  0.625  0.287-  81 1.96  82 1.96 141 1.96 142 1.96 163 1.99  84 1.99  11 2.96  31 2.96

   2  0.000  0.750  0.287-  84 1.96 104 1.96 103 1.96  83 1.96  85 1.99  32 2.96  12 2.96
   3  0.000  0.625  0.393-  85 1.96  86 1.96 145 1.96 146 1.96  87 1.99  88 1.99  13 2.96  33 2.96

   4  0.750  0.750  0.393- 168 1.96 188 1.96  87 1.96 107 1.96  89 1.99  82 1.99  14 2.96  34 2.96

   5  0.750  0.625  0.500-  89 1.96  90 1.96 149 1.96 150 1.96 171 1.99  92 1.99  15 2.96  35 2.96

   6  0.000  0.750  0.500-  92 1.96 112 1.96 111 1.96  91 1.96  86 1.99  93 2.01  16 2.96  36 2.96

   7  0.006  0.625  0.604-  96 1.89 153 1.90  93 1.90  94 2.02 154 2.02  95 2.02  17 2.96  37 2.96

   8  0.755  0.750  0.610-  97 1.88  95 1.94 115 1.94 176 2.01 196 2.01  90 2.10  18 2.96  38 2.96

   9  0.751  0.626  0.719-  98 1.83 158 1.87 179 2.02 100 2.03  97 2.08 157 2.09  19 2.95  39 2.99

  10  0.000  0.750  0.709-  94 1.82 119 1.94 120 1.95  99 1.95 100 1.96  20 2.96  40 2.96
  11  0.750  0.875  0.287-  81 1.96  82 1.96 101 1.96 102 1.96 183 1.99 104 1.99   1 2.96  21 2.96

  12  0.000  0.000  0.287- 104 1.96 124 1.96 123 1.96 103 1.96 105 1.99  22 2.96   2 2.96
  13  0.000  0.875  0.393-  85 1.96  86 1.96 105 1.96 106 1.96 107 1.99 108 1.99   3 2.96  23 2.96

  14  0.750  0.000  0.393- 188 1.96 208 1.96 107 1.96 127 1.96 109 1.99 102 1.99   4 2.96  24 2.96

  15  0.750  0.875  0.500-  89 1.96  90 1.96 109 1.96 110 1.96 191 1.99 112 1.99   5 2.96  25 2.96

  16  0.000  0.000  0.500- 112 1.96 132 1.96 131 1.96 111 1.96 106 1.99 113 2.01   6 2.96  26 2.96

  17  0.006  0.875  0.604- 116 1.89  93 1.90 113 1.90 114 2.02  94 2.02 115 2.03  27 2.96   7 2.96

  18  0.754  0.000  0.611- 117 1.88 135 1.94 115 1.94 216 2.01 196 2.01 110 2.11  28 2.96   8 2.96

  19  0.750  0.875  0.720- 118 1.83  98 1.84 199 2.03 120 2.05 117 2.09  97 2.09   9 2.95  29 2.95

  20  0.000  1.000  0.709- 114 1.82 120 1.95 140 1.95 139 1.95 119 1.95  10 2.96  30 2.96
  21  0.750  0.125  0.287- 101 1.96 102 1.96 121 1.96 122 1.96 203 1.99 124 1.99  11 2.96  31 2.96

  22  0.000  0.250  0.287- 124 1.96 144 1.96 143 1.96 123 1.96 125 1.99  32 2.96  12 2.96
  23  0.000  0.125  0.393- 105 1.96 106 1.96 125 1.96 126 1.96 127 1.99 128 1.99  13 2.96  33 2.96

  24  0.750  0.250  0.393- 208 1.96 228 1.96 127 1.96 147 1.96 129 1.99 122 1.99  14 2.96  34 2.96

  25  0.750  0.125  0.500- 109 1.96 110 1.96 129 1.96 130 1.96 211 1.99 132 1.99  15 2.96  35 2.96

  26  0.000  0.250  0.500- 132 1.96 152 1.96 151 1.96 131 1.96 126 1.99 133 2.01  16 2.96  36 2.96

  27  0.006  0.125  0.604- 136 1.89 133 1.90 113 1.90 114 2.02 134 2.02 135 2.03  17 2.96  37 2.96

  28  0.755  0.250  0.610- 137 1.88 135 1.94 155 1.94 216 2.01 236 2.01 130 2.10  18 2.96  38 2.96

  29  0.750  0.124  0.720- 118 1.83 138 1.84 219 2.03 140 2.05 117 2.09 137 2.10  39 2.95  19 2.95

  30  0.000  0.250  0.709- 134 1.82 139 1.94 140 1.95 159 1.95 160 1.96  20 2.96  40 2.97
  31  0.750  0.375  0.287- 121 1.96 122 1.96 141 1.96 142 1.96 223 1.99 144 1.99   1 2.96  21 2.96

  32  0.000  0.500  0.287-  84 1.96 144 1.96 143 1.96  83 1.96 145 1.99  22 2.96   2 2.96
  33  0.000  0.375  0.393- 125 1.96 126 1.96 145 1.96 146 1.96 147 1.99 148 1.99   3 2.96  23 2.96

  34  0.750  0.500  0.393- 168 1.96 228 1.96  87 1.96 147 1.96 142 1.99 149 1.99   4 2.96  24 2.96

  35  0.750  0.375  0.500- 129 1.96 130 1.96 149 1.96 150 1.96 231 1.99 152 1.99   5 2.96  25 2.96

  36  0.000  0.500  0.500-  92 1.96 152 1.96 151 1.96  91 1.96 146 1.99 153 2.00   6 2.96  26 2.96

  37  0.006  0.375  0.604- 156 1.90 153 1.90 133 1.90 134 2.02 154 2.02 155 2.02  27 2.96   7 2.96

  38  0.755  0.500  0.610- 157 1.87 155 1.94  95 1.94 236 2.01 176 2.01 150 2.10  28 2.96   8 2.96

  39  0.752  0.373  0.719- 138 1.83 158 1.87 160 2.02 239 2.03 137 2.07 157 2.10  29 2.95   9 2.99

  40  0.001  0.500  0.709- 154 1.82  99 1.95 159 1.95 100 1.95 160 1.95  10 2.96  30 2.97
  41  0.250  0.625  0.287- 161 1.96 162 1.96 221 1.96 222 1.96  83 1.99 164 1.99  51 2.96  71 2.96

  42  0.500  0.750  0.287- 164 1.96 184 1.96 183 1.96 163 1.96 165 1.99  72 2.96  52 2.96
  43  0.500  0.625  0.393- 165 1.96 166 1.96 225 1.96 226 1.96 167 1.99 168 1.99  53 2.96  73 2.96

  44  0.250  0.750  0.393-  88 1.96 108 1.96 167 1.96 187 1.96 169 1.99 162 1.99  54 2.96  74 2.96

  45  0.250  0.625  0.500- 169 1.96 170 1.96 229 1.96 230 1.96  91 1.99 172 1.99  55 2.96  75 2.96

  46  0.500  0.750  0.500- 172 1.96 192 1.96 191 1.96 171 1.96 166 1.99 173 2.00  56 2.96  76 2.96

  47  0.506  0.623  0.606- 176 1.90 233 1.90 173 1.94 234 1.99 174 2.01 175 2.03  77 2.91  57 2.98

  48  0.255  0.750  0.611- 177 1.88 175 1.94 195 1.94  96 2.01 116 2.01 170 2.11  78 2.96  58 2.96

  49  0.251  0.625  0.720- 178 1.83 238 1.84  99 2.04 180 2.06 177 2.09 237 2.09  59 2.96  79 2.96

  50  0.501  0.750  0.707- 174 1.81 179 1.92 199 1.95 180 1.95 200 1.97  60 2.96  80 2.98
  51  0.250  0.875  0.287- 161 1.96 162 1.96 181 1.96 182 1.96 103 1.99 184 1.99  41 2.96  61 2.96

  52  0.500  0.000  0.287- 184 1.96 204 1.96 203 1.96 183 1.96 185 1.99  62 2.96  42 2.96
  53  0.500  0.875  0.393- 165 1.96 166 1.96 185 1.96 186 1.96 187 1.99 188 1.99  43 2.96  63 2.96

  54  0.250  0.000  0.393- 108 1.96 128 1.96 187 1.96 207 1.96 189 1.99 182 1.99  44 2.96  64 2.96

  55  0.250  0.875  0.500- 169 1.96 170 1.96 189 1.96 190 1.96 111 1.99 192 1.99  45 2.96  65 2.96

  56  0.500  0.000  0.500- 192 1.96 212 1.96 211 1.96 191 1.96 186 1.99 193 1.99  46 2.96  66 2.96

  57  0.505  0.874  0.603- 173 1.89 193 1.90 196 1.90 174 2.00 195 2.03 194 2.03  47 2.98  67 2.98

  58  0.254  1.000  0.611- 197 1.87 195 1.94 215 1.94 136 2.01 116 2.01 190 2.11  48 2.96  68 2.96

  59  0.251  0.875  0.720- 198 1.83 178 1.84 200 2.03 119 2.05 197 2.10 177 2.10  69 2.96  49 2.96

  60  0.500  1.000  0.708- 194 1.81 200 1.94 220 1.94 219 1.96 199 1.96  70 2.96  50 2.96
  61  0.250  0.125  0.287- 181 1.96 182 1.96 201 1.96 202 1.96 123 1.99 204 1.99  51 2.96  71 2.96

  62  0.500  0.250  0.287- 204 1.96 224 1.96 223 1.96 203 1.96 205 1.99  72 2.96  52 2.96
  63  0.500  0.125  0.393- 185 1.96 186 1.96 205 1.96 206 1.96 207 1.99 208 1.99  53 2.96  73 2.96

  64  0.250  0.250  0.393- 128 1.96 148 1.96 207 1.96 227 1.96 209 1.99 202 1.99  54 2.96  74 2.96

  65  0.250  0.125  0.500- 189 1.96 190 1.96 209 1.96 210 1.96 131 1.99 212 1.99  55 2.96  75 2.96

  66  0.500  0.250  0.500- 212 1.96 232 1.96 231 1.96 211 1.96 206 1.99 213 2.00  56 2.96  76 2.96

  67  0.505  0.126  0.604- 213 1.89 193 1.90 216 1.91 214 2.00 215 2.03 194 2.03  77 2.98  57 2.98

  68  0.255  0.250  0.611- 217 1.87 235 1.94 215 1.94 156 2.01 136 2.01 210 2.11  78 2.96  58 2.96

  69  0.251  0.125  0.720- 198 1.83 218 1.84 220 2.03 139 2.05 197 2.10 217 2.10  59 2.96  79 2.96

  70  0.501  0.250  0.708- 214 1.81 239 1.92 240 1.94 219 1.95 220 1.96  60 2.96  80 2.96
  71  0.250  0.375  0.287- 201 1.96 202 1.96 221 1.96 222 1.96 143 1.99 224 1.99  41 2.96  61 2.96

  72  0.500  0.500  0.287- 164 1.96 224 1.96 223 1.96 163 1.96 225 1.99  62 2.96  42 2.96
  73  0.500  0.375  0.393- 205 1.96 206 1.96 225 1.96 226 1.96 227 1.99 228 1.99  43 2.96  63 2.96

  74  0.250  0.500  0.393-  88 1.96 148 1.96 167 1.96 227 1.96 222 1.99 229 1.99  44 2.96  64 2.96

  75  0.250  0.375  0.500- 209 1.96 210 1.96 229 1.96 230 1.96 151 1.99 232 1.99  45 2.96  65 2.96

  76  0.500  0.500  0.500- 172 1.96 232 1.96 231 1.96 171 1.96 226 1.99 233 2.01  46 2.96  66 2.96

  77  0.506  0.377  0.606- 236 1.90 233 1.90 213 1.94 234 1.99 214 2.01 235 2.03  47 2.91  67 2.98

  78  0.255  0.500  0.611- 237 1.87 175 1.94 235 1.94 156 2.01  96 2.01 230 2.11  48 2.96  68 2.96

  79  0.251  0.375  0.720- 218 1.83 238 1.84 159 2.04 240 2.04 217 2.10 237 2.10  69 2.96  49 2.96

  80  0.501  0.499  0.712- 234 1.91 240 1.94 180 1.95 239 1.96 179 1.99  70 2.96  50 2.98
  81  0.750  0.750  0.245-   1 1.96  11 1.96
  82  0.750  0.750  0.328-   1 1.96  11 1.96   4 1.99
  83  0.098  0.625  0.287-   2 1.96  32 1.96  41 1.99
  84  0.902  0.625  0.287-   2 1.96  32 1.96   1 1.99
  85  0.000  0.750  0.352-   3 1.96  13 1.96   2 1.99
  86  0.000  0.750  0.435-   3 1.96  13 1.96   6 1.99
  87  0.848  0.625  0.393-   4 1.96  34 1.96   3 1.99
  88  0.152  0.625  0.393-  44 1.96  74 1.96   3 1.99
  89  0.750  0.750  0.458-   5 1.96  15 1.96   4 1.99
  90  0.750  0.750  0.542-   5 1.96  15 1.96   8 2.10
  91  0.098  0.625  0.500-   6 1.96  36 1.96  45 1.99
  92  0.902  0.625  0.500-   6 1.96  36 1.96   5 1.99
  93  0.001  0.750  0.565-  17 1.90   7 1.90   6 2.01
  94  1.000  0.750  0.649-  10 1.82   7 2.02  17 2.02
  95  0.851  0.625  0.607-   8 1.94  38 1.94   7 2.02
  96  0.151  0.625  0.607-   7 1.89  48 2.01  78 2.01
  97  0.754  0.751  0.672-   8 1.88   9 2.08  19 2.09
  98  0.749  0.749  0.755-   9 1.83  19 1.84
  99  0.095  0.625  0.719-  40 1.95  10 1.95  49 2.04
 100  0.907  0.624  0.720-  40 1.95  10 1.96   9 2.03
 101  0.750  0.000  0.245-  11 1.96  21 1.96
 102  0.750  0.000  0.328-  11 1.96  21 1.96  14 1.99
 103  0.098  0.875  0.287-   2 1.96  12 1.96  51 1.99
 104  0.902  0.875  0.287-   2 1.96  12 1.96  11 1.99
 105  0.000  0.000  0.352-  13 1.96  23 1.96  12 1.99
 106  0.000  0.000  0.435-  13 1.96  23 1.96  16 1.99
 107  0.848  0.875  0.393-   4 1.96  14 1.96  13 1.99
 108  0.152  0.875  0.393-  44 1.96  54 1.96  13 1.99
 109  0.750  0.000  0.458-  15 1.96  25 1.96  14 1.99
 110  0.750  0.000  0.542-  15 1.96  25 1.96  18 2.11
 111  0.098  0.875  0.500-   6 1.96  16 1.96  55 1.99
 112  0.902  0.875  0.500-   6 1.96  16 1.96  15 1.99
 113  0.001  1.000  0.565-  17 1.90  27 1.90  16 2.01
 114  0.000  1.000  0.649-  20 1.82  17 2.02  27 2.02
 115  0.851  0.875  0.607-   8 1.94  18 1.94  17 2.03
 116  0.150  0.875  0.607-  17 1.89  58 2.01  48 2.01
 117  0.751  1.000  0.672-  18 1.88  29 2.09  19 2.09
 118  0.750  1.000  0.756-  29 1.83  19 1.83
 119  0.094  0.875  0.719-  10 1.94  20 1.95  59 2.05
 120  0.907  0.875  0.719-  10 1.95  20 1.95  19 2.05
 121  0.750  0.250  0.245-  21 1.96  31 1.96
 122  0.750  0.250  0.328-  21 1.96  31 1.96  24 1.99
 123  0.098  0.125  0.287-  12 1.96  22 1.96  61 1.99
 124  0.902  0.125  0.287-  12 1.96  22 1.96  21 1.99
 125  0.000  0.250  0.352-  23 1.96  33 1.96  22 1.99
 126  0.000  0.250  0.435-  23 1.96  33 1.96  26 1.99
 127  0.848  0.125  0.393-  14 1.96  24 1.96  23 1.99
 128  0.152  0.125  0.393-  54 1.96  64 1.96  23 1.99
 129  0.750  0.250  0.458-  25 1.96  35 1.96  24 1.99
 130  0.750  0.250  0.542-  25 1.96  35 1.96  28 2.10
 131  0.098  0.125  0.500-  16 1.96  26 1.96  65 1.99
 132  0.902  0.125  0.500-  16 1.96  26 1.96  25 1.99
 133  0.001  0.250  0.565-  27 1.90  37 1.90  26 2.01
 134  0.000  0.250  0.649-  30 1.82  37 2.02  27 2.02
 135  0.851  0.125  0.607-  18 1.94  28 1.94  27 2.03
 136  0.150  0.125  0.607-  27 1.89  58 2.01  68 2.01
 137  0.753  0.250  0.672-  28 1.88  39 2.07  29 2.10
 138  0.749  0.251  0.755-  39 1.83  29 1.84
 139  0.094  0.125  0.719-  30 1.94  20 1.95  69 2.05
 140  0.907  0.125  0.719-  30 1.95  20 1.95  29 2.05
 141  0.750  0.500  0.245-   1 1.96  31 1.96
 142  0.750  0.500  0.328-   1 1.96  31 1.96  34 1.99
 143  0.098  0.375  0.287-  22 1.96  32 1.96  71 1.99
 144  0.902  0.375  0.287-  22 1.96  32 1.96  31 1.99
 145  0.000  0.500  0.352-   3 1.96  33 1.96  32 1.99
 146  0.000  0.500  0.435-   3 1.96  33 1.96  36 1.99
 147  0.848  0.375  0.393-  24 1.96  34 1.96  33 1.99
 148  0.152  0.375  0.393-  64 1.96  74 1.96  33 1.99
 149  0.750  0.500  0.458-   5 1.96  35 1.96  34 1.99
 150  0.750  0.500  0.542-   5 1.96  35 1.96  38 2.10
 151  0.098  0.375  0.500-  26 1.96  36 1.96  75 1.99
 152  0.902  0.375  0.500-  26 1.96  36 1.96  35 1.99
 153  0.001  0.500  0.565-  37 1.90   7 1.90  36 2.00
 154  0.000  0.500  0.649-  40 1.82   7 2.02  37 2.02
 155  0.851  0.375  0.607-  38 1.94  28 1.94  37 2.02
 156  0.150  0.375  0.607-  37 1.90  68 2.01  78 2.01
 157  0.756  0.500  0.672-  38 1.87   9 2.09  39 2.10
 158  0.739  0.500  0.756-   9 1.87  39 1.87
 159  0.095  0.375  0.719-  40 1.95  30 1.95  79 2.04
 160  0.907  0.376  0.720-  40 1.95  30 1.96  39 2.02
 161  0.250  0.750  0.245-  41 1.96  51 1.96
 162  0.250  0.750  0.328-  41 1.96  51 1.96  44 1.99
 163  0.598  0.625  0.287-  42 1.96  72 1.96   1 1.99
 164  0.402  0.625  0.287-  42 1.96  72 1.96  41 1.99
 165  0.500  0.750  0.352-  43 1.96  53 1.96  42 1.99
 166  0.500  0.750  0.435-  43 1.96  53 1.96  46 1.99
 167  0.348  0.625  0.393-  44 1.96  74 1.96  43 1.99
 168  0.652  0.625  0.393-   4 1.96  34 1.96  43 1.99
 169  0.250  0.750  0.458-  45 1.96  55 1.96  44 1.99
 170  0.250  0.750  0.542-  45 1.96  55 1.96  48 2.11
 171  0.598  0.625  0.500-  46 1.96  76 1.96   5 1.99
 172  0.402  0.625  0.500-  46 1.96  76 1.96  45 1.99
 173  0.501  0.749  0.565-  57 1.89  47 1.94  46 2.00
 174  0.498  0.751  0.648-  50 1.81  57 2.00  47 2.01
 175  0.350  0.625  0.607-  48 1.94  78 1.94  47 2.03
 176  0.651  0.625  0.608-  47 1.90   8 2.01  38 2.01
 177  0.252  0.750  0.672-  48 1.88  49 2.09  59 2.10
 178  0.251  0.750  0.756-  49 1.83  59 1.84
 179  0.597  0.629  0.714-  50 1.92  80 1.99   9 2.02
 180  0.408  0.626  0.720-  80 1.95  50 1.95  49 2.06
 181  0.250  0.000  0.245-  51 1.96  61 1.96
 182  0.250  0.000  0.328-  51 1.96  61 1.96  54 1.99
 183  0.598  0.875  0.287-  42 1.96  52 1.96  11 1.99
 184  0.402  0.875  0.287-  42 1.96  52 1.96  51 1.99
 185  0.500  0.000  0.352-  53 1.96  63 1.96  52 1.99
 186  0.500  0.000  0.435-  53 1.96  63 1.96  56 1.99
 187  0.348  0.875  0.393-  44 1.96  54 1.96  53 1.99
 188  0.652  0.875  0.393-   4 1.96  14 1.96  53 1.99
 189  0.250  0.000  0.458-  55 1.96  65 1.96  54 1.99
 190  0.250  0.000  0.542-  55 1.96  65 1.96  58 2.11
 191  0.598  0.875  0.500-  46 1.96  56 1.96  15 1.99
 192  0.402  0.875  0.500-  46 1.96  56 1.96  55 1.99
 193  0.500  0.000  0.565-  57 1.90  67 1.90  56 1.99
 194  0.500  1.000  0.649-  60 1.81  57 2.03  67 2.03
 195  0.350  0.875  0.607-  58 1.94  48 1.94  57 2.03
 196  0.651  0.875  0.607-  57 1.90  18 2.01   8 2.01
 197  0.250  1.000  0.672-  58 1.87  69 2.10  59 2.10
 198  0.250  1.000  0.756-  59 1.83  69 1.83
 199  0.595  0.875  0.718-  50 1.95  60 1.96  19 2.03
 200  0.406  0.876  0.719-  60 1.94  50 1.97  59 2.03
 201  0.250  0.250  0.245-  61 1.96  71 1.96
 202  0.250  0.250  0.328-  61 1.96  71 1.96  64 1.99
 203  0.598  0.125  0.287-  52 1.96  62 1.96  21 1.99
 204  0.402  0.125  0.287-  52 1.96  62 1.96  61 1.99
 205  0.500  0.250  0.352-  63 1.96  73 1.96  62 1.99
 206  0.500  0.250  0.435-  63 1.96  73 1.96  66 1.99
 207  0.348  0.125  0.393-  54 1.96  64 1.96  63 1.99
 208  0.652  0.125  0.393-  14 1.96  24 1.96  63 1.99
 209  0.250  0.250  0.458-  65 1.96  75 1.96  64 1.99
 210  0.250  0.250  0.542-  65 1.96  75 1.96  68 2.11
 211  0.598  0.125  0.500-  56 1.96  66 1.96  25 1.99
 212  0.402  0.125  0.500-  56 1.96  66 1.96  65 1.99
 213  0.501  0.251  0.565-  67 1.89  77 1.94  66 2.00
 214  0.499  0.248  0.649-  70 1.81  67 2.00  77 2.01
 215  0.350  0.125  0.607-  58 1.94  68 1.94  67 2.03
 216  0.651  0.125  0.607-  67 1.91  18 2.01  28 2.01
 217  0.250  0.250  0.672-  68 1.87  79 2.10  69 2.10
 218  0.251  0.250  0.756-  79 1.83  69 1.84
 219  0.595  0.125  0.719-  70 1.95  60 1.96  29 2.03
 220  0.406  0.124  0.719-  60 1.94  70 1.96  69 2.03
 221  0.250  0.500  0.245-  41 1.96  71 1.96
 222  0.250  0.500  0.328-  41 1.96  71 1.96  74 1.99
 223  0.598  0.375  0.287-  62 1.96  72 1.96  31 1.99
 224  0.402  0.375  0.287-  62 1.96  72 1.96  71 1.99
 225  0.500  0.500  0.352-  43 1.96  73 1.96  72 1.99
 226  0.500  0.500  0.435-  43 1.96  73 1.96  76 1.99
 227  0.348  0.375  0.393-  64 1.96  74 1.96  73 1.99
 228  0.652  0.375  0.393-  24 1.96  34 1.96  73 1.99
 229  0.250  0.500  0.458-  45 1.96  75 1.96  74 1.99
 230  0.250  0.500  0.542-  45 1.96  75 1.96  78 2.11
 231  0.598  0.375  0.500-  66 1.96  76 1.96  35 1.99
 232  0.402  0.375  0.500-  66 1.96  76 1.96  75 1.99
 233  0.501  0.500  0.566-  47 1.90  77 1.90  76 2.01
 234  0.500  0.500  0.650-  80 1.91  47 1.99  77 1.99
 235  0.350  0.375  0.607-  68 1.94  78 1.94  77 2.03
 236  0.651  0.375  0.608-  77 1.90  28 2.01  38 2.01
 237  0.251  0.500  0.672-  78 1.87  49 2.09  79 2.10
 238  0.252  0.500  0.756-  79 1.84  49 1.84
 239  0.597  0.371  0.714-  70 1.92  80 1.96  39 2.03
 240  0.407  0.374  0.718-  80 1.94  70 1.94  79 2.04
 

IMPORTANT INFORMATION: All symmetrisations will be switched off!
NOSYMM: (Re-)initialisation of all symmetry stuff for point group C_1.


----------------------------------------------------------------------------------------

                                     Primitive cell                                     

  volume of cell :    4737.1524

  direct lattice vectors                    reciprocal lattice vectors
    13.061127704  0.000000000  0.000000000     0.076563067  0.000000000  0.000000000
     0.000000000 11.845298948  0.000000000     0.000000000  0.084421677  0.000000000
     0.000000000  0.000000000 30.618975621     0.000000000  0.000000000  0.032659486

  length of vectors
    13.061127704 11.845298948 30.618975621     0.076563067  0.084421677  0.032659486

  position of ions in fractional coordinates (direct lattice)
     0.750000000  0.625000000  0.286715143
     0.000000000  0.750000000  0.286715143
     0.000000000  0.625000000  0.393357571
     0.750000000  0.750000000  0.393357571
     0.750000000  0.625000000  0.500000000
     0.000000000  0.750000000  0.500000000
     0.005638758  0.625035061  0.604416809
     0.754893248  0.750103789  0.610243765
     0.751228869  0.625854106  0.719206811
     0.000326318  0.750256976  0.708656100
     0.750000000  0.875000000  0.286715143
     0.000000000  0.000000000  0.286715143
     0.000000000  0.875000000  0.393357571
     0.750000000  0.000000000  0.393357571
     0.750000000  0.875000000  0.500000000
     0.000000000  0.000000000  0.500000000
     0.005503934  0.875008901  0.604468843
     0.754149504  0.000019186  0.610519194
     0.750018801  0.875023848  0.720184334
     0.000431576  0.999902341  0.708605784
     0.750000000  0.125000000  0.286715143
     0.000000000  0.250000000  0.286715143
     0.000000000  0.125000000  0.393357571
     0.750000000  0.250000000  0.393357571
     0.750000000  0.125000000  0.500000000
     0.000000000  0.250000000  0.500000000
     0.005510106  0.124940473  0.604457218
     0.754643660  0.249807522  0.610218954
     0.749905450  0.124282593  0.720177138
     0.000398169  0.249561244  0.708636163
     0.750000000  0.375000000  0.286715143
     0.000000000  0.500000000  0.286715143
     0.000000000  0.375000000  0.393357571
     0.750000000  0.500000000  0.393357571
     0.750000000  0.375000000  0.500000000
     0.000000000  0.500000000  0.500000000
     0.005524643  0.374967325  0.604403213
     0.755154782  0.499954802  0.610434641
     0.751798027  0.373388853  0.719255828
     0.001108345  0.500055693  0.708593659
     0.250000000  0.625000000  0.286715143
     0.500000000  0.750000000  0.286715143
     0.500000000  0.625000000  0.393357571
     0.250000000  0.750000000  0.393357571
     0.250000000  0.625000000  0.500000000
     0.500000000  0.750000000  0.500000000
     0.505783107  0.622743094  0.605633207
     0.254874477  0.749901494  0.610538265
     0.250749840  0.625143955  0.720282687
     0.500978395  0.750196006  0.707445814
     0.250000000  0.875000000  0.286715143
     0.500000000  0.000000000  0.286715143
     0.500000000  0.875000000  0.393357571
     0.250000000  0.000000000  0.393357571
     0.250000000  0.875000000  0.500000000
     0.500000000  0.000000000  0.500000000
     0.505352635  0.874050091  0.603468464
     0.254435942  0.999945993  0.610580361
     0.251202628  0.875053228  0.720254585
     0.499796288  0.999915440  0.707646178
     0.250000000  0.125000000  0.286715143
     0.500000000  0.250000000  0.286715143
     0.500000000  0.125000000  0.393357571
     0.250000000  0.250000000  0.393357571
     0.250000000  0.125000000  0.500000000
     0.500000000  0.250000000  0.500000000
     0.505145781  0.126010419  0.603544229
     0.254595883  0.250075072  0.610565488
     0.251028099  0.124891695  0.720213445
     0.500814183  0.249568033  0.707723553
     0.250000000  0.375000000  0.286715143
     0.500000000  0.500000000  0.286715143
     0.500000000  0.375000000  0.393357571
     0.250000000  0.500000000  0.393357571
     0.250000000  0.375000000  0.500000000
     0.500000000  0.500000000  0.500000000
     0.505601844  0.377121886  0.605816929
     0.254646139  0.500024254  0.610662545
     0.250551609  0.374837838  0.720205805
     0.501341897  0.499204801  0.712387173
     0.750000000  0.750000000  0.244946144
     0.750000000  0.750000000  0.328484141
     0.097918341  0.625000000  0.286715143
     0.902081659  0.625000000  0.286715143
     0.000000000  0.750000000  0.351588572
     0.000000000  0.750000000  0.435126570
     0.847918341  0.625000000  0.393357571
     0.152081659  0.625000000  0.393357571
     0.750000000  0.750000000  0.458231001
     0.750000000  0.750000000  0.541768999
     0.097918341  0.625000000  0.500000000
     0.902081659  0.625000000  0.500000000
     0.000626092  0.750113689  0.565484745
     0.999910379  0.749820023  0.649331054
     0.850835850  0.625264287  0.606686637
     0.150515716  0.625133038  0.607237511
     0.753672970  0.750605563  0.671630404
     0.749165123  0.749000832  0.755398970
     0.094623114  0.625040265  0.719103098
     0.906655591  0.624234650  0.720030195
     0.750000000  0.000000000  0.244946144
     0.750000000  0.000000000  0.328484141
     0.097918341  0.875000000  0.286715143
     0.902081659  0.875000000  0.286715143
     0.000000000  0.000000000  0.351588572
     0.000000000  0.000000000  0.435126570
     0.847918341  0.875000000  0.393357571
     0.152081659  0.875000000  0.393357571
     0.750000000  0.000000000  0.458231001
     0.750000000  0.000000000  0.541768999
     0.097918341  0.875000000  0.500000000
     0.902081659  0.875000000  0.500000000
     0.000613937  0.999957793  0.565489414
     0.000196112  0.999978663  0.649287765
     0.850577079  0.875422959  0.606996582
     0.150433785  0.874782828  0.607295622
     0.751000011  0.999931848  0.671903622
     0.750343968  0.999763415  0.755681063
     0.094393223  0.874557595  0.718852708
     0.906630409  0.874960706  0.719475168
     0.750000000  0.250000000  0.244946144
     0.750000000  0.250000000  0.328484141
     0.097918341  0.125000000  0.286715143
     0.902081659  0.125000000  0.286715143
     0.000000000  0.250000000  0.351588572
     0.000000000  0.250000000  0.435126570
     0.847918341  0.125000000  0.393357571
     0.152081659  0.125000000  0.393357571
     0.750000000  0.250000000  0.458231001
     0.750000000  0.250000000  0.541768999
     0.097918341  0.125000000  0.500000000
     0.902081659  0.125000000  0.500000000
     0.000573522  0.249883206  0.565486086
     0.000003515  0.250100765  0.649322956
     0.850518614  0.124643890  0.607046525
     0.150363849  0.125010387  0.607185197
     0.753259908  0.249570440  0.671650901
     0.749449496  0.250560984  0.755344736
     0.094270921  0.125242329  0.718999360
     0.906559281  0.124885494  0.719352111
     0.750000000  0.500000000  0.244946144
     0.750000000  0.500000000  0.328484141
     0.097918341  0.375000000  0.286715143
     0.902081659  0.375000000  0.286715143
     0.000000000  0.500000000  0.351588572
     0.000000000  0.500000000  0.435126570
     0.847918341  0.375000000  0.393357571
     0.152081659  0.375000000  0.393357571
     0.750000000  0.500000000  0.458231001
     0.750000000  0.500000000  0.541768999
     0.097918341  0.375000000  0.500000000
     0.902081659  0.375000000  0.500000000
     0.000747355  0.499995321  0.565471556
     0.000140261  0.500003586  0.649274572
     0.850804446  0.374665427  0.606710816
     0.150497013  0.374994821  0.607204774
     0.755664255  0.500040167  0.671524324
     0.739483425  0.499798225  0.755540430
     0.094509411  0.374928322  0.719046824
     0.906648207  0.375620293  0.720021837
     0.250000000  0.750000000  0.244946144
     0.250000000  0.750000000  0.328484141
     0.597918341  0.625000000  0.286715143
     0.402081659  0.625000000  0.286715143
     0.500000000  0.750000000  0.351588572
     0.500000000  0.750000000  0.435126570
     0.347918341  0.625000000  0.393357571
     0.652081659  0.625000000  0.393357571
     0.250000000  0.750000000  0.458231001
     0.250000000  0.750000000  0.541768999
     0.597918341  0.625000000  0.500000000
     0.402081659  0.625000000  0.500000000
     0.500789225  0.748768313  0.565318478
     0.498185474  0.751276209  0.648353632
     0.350035782  0.624911785  0.607065004
     0.651239398  0.625149950  0.607691438
     0.251653081  0.749539301  0.671823558
     0.250638909  0.749972619  0.755684023
     0.597129962  0.629429843  0.714285556
     0.408120558  0.625627373  0.720259622
     0.250000000  0.000000000  0.244946144
     0.250000000  0.000000000  0.328484141
     0.597918341  0.875000000  0.286715143
     0.402081659  0.875000000  0.286715143
     0.500000000  0.000000000  0.351588572
     0.500000000  0.000000000  0.435126570
     0.347918341  0.875000000  0.393357571
     0.652081659  0.875000000  0.393357571
     0.250000000  0.000000000  0.458231001
     0.250000000  0.000000000  0.541768999
     0.597918341  0.875000000  0.500000000
     0.402081659  0.875000000  0.500000000
     0.500385181  0.000029379  0.565019312
     0.500302552  0.999884714  0.648526709
     0.350095748  0.875208676  0.606825674
     0.650891458  0.874792342  0.607105641
     0.250403832  0.999930524  0.671722868
     0.249986486  0.999961815  0.755587609
     0.594605862  0.874834008  0.718496908
     0.406441061  0.875878980  0.718821175
     0.250000000  0.250000000  0.244946144
     0.250000000  0.250000000  0.328484141
     0.597918341  0.125000000  0.286715143
     0.402081659  0.125000000  0.286715143
     0.500000000  0.250000000  0.351588572
     0.500000000  0.250000000  0.435126570
     0.347918341  0.125000000  0.393357571
     0.652081659  0.125000000  0.393357571
     0.250000000  0.250000000  0.458231001
     0.250000000  0.250000000  0.541768999
     0.597918341  0.125000000  0.500000000
     0.402081659  0.125000000  0.500000000
     0.500709598  0.251330983  0.565405457
     0.498962597  0.248371129  0.648534170
     0.350130226  0.124827974  0.606900729
     0.650921385  0.125107867  0.607066716
     0.250478936  0.249919004  0.671722025
     0.250868793  0.250065699  0.755548788
     0.594630986  0.124654380  0.718521276
     0.406347373  0.124106128  0.718673571
     0.250000000  0.500000000  0.244946144
     0.250000000  0.500000000  0.328484141
     0.597918341  0.375000000  0.286715143
     0.402081659  0.375000000  0.286715143
     0.500000000  0.500000000  0.351588572
     0.500000000  0.500000000  0.435126570
     0.347918341  0.375000000  0.393357571
     0.652081659  0.375000000  0.393357571
     0.250000000  0.500000000  0.458231001
     0.250000000  0.500000000  0.541768999
     0.597918341  0.375000000  0.500000000
     0.402081659  0.375000000  0.500000000
     0.500847536  0.499797340  0.565682438
     0.499713966  0.500374159  0.649875089
     0.350075528  0.374973917  0.607284093
     0.651177097  0.374955781  0.607739180
     0.250722793  0.500388594  0.671839203
     0.251643452  0.499887673  0.755615512
     0.596866483  0.371262585  0.714495445
     0.406971979  0.374004315  0.718325035

  ion indices of the primitive-cell ions
   primitive index   ion index
                 1           1
                 2           2
                 3           3
                 4           4
                 5           5
                 6           6
                 7           7
                 8           8
                 9           9
                10          10
                11          11
                12          12
                13          13
                14          14
                15          15
                16          16
                17          17
                18          18
                19          19
                20          20
                21          21
                22          22
                23          23
                24          24
                25          25
                26          26
                27          27
                28          28
                29          29
                30          30
                31          31
                32          32
                33          33
                34          34
                35          35
                36          36
                37          37
                38          38
                39          39
                40          40
                41          41
                42          42
                43          43
                44          44
                45          45
                46          46
                47          47
                48          48
                49          49
                50          50
                51          51
                52          52
                53          53
                54          54
                55          55
                56          56
                57          57
                58          58
                59          59
                60          60
                61          61
                62          62
                63          63
                64          64
                65          65
                66          66
                67          67
                68          68
                69          69
                70          70
                71          71
                72          72
                73          73
                74          74
                75          75
                76          76
                77          77
                78          78
                79          79
                80          80
                81          81
                82          82
                83          83
                84          84
                85          85
                86          86
                87          87
                88          88
                89          89
                90          90
                91          91
                92          92
                93          93
                94          94
                95          95
                96          96
                97          97
                98          98
                99          99
               100         100
               101         101
               102         102
               103         103
               104         104
               105         105
               106         106
               107         107
               108         108
               109         109
               110         110
               111         111
               112         112
               113         113
               114         114
               115         115
               116         116
               117         117
               118         118
               119         119
               120         120
               121         121
               122         122
               123         123
               124         124
               125         125
               126         126
               127         127
               128         128
               129         129
               130         130
               131         131
               132         132
               133         133
               134         134
               135         135
               136         136
               137         137
               138         138
               139         139
               140         140
               141         141
               142         142
               143         143
               144         144
               145         145
               146         146
               147         147
               148         148
               149         149
               150         150
               151         151
               152         152
               153         153
               154         154
               155         155
               156         156
               157         157
               158         158
               159         159
               160         160
               161         161
               162         162
               163         163
               164         164
               165         165
               166         166
               167         167
               168         168
               169         169
               170         170
               171         171
               172         172
               173         173
               174         174
               175         175
               176         176
               177         177
               178         178
               179         179
               180         180
               181         181
               182         182
               183         183
               184         184
               185         185
               186         186
               187         187
               188         188
               189         189
               190         190
               191         191
               192         192
               193         193
               194         194
               195         195
               196         196
               197         197
               198         198
               199         199
               200         200
               201         201
               202         202
               203         203
               204         204
               205         205
               206         206
               207         207
               208         208
               209         209
               210         210
               211         211
               212         212
               213         213
               214         214
               215         215
               216         216
               217         217
               218         218
               219         219
               220         220
               221         221
               222         222
               223         223
               224         224
               225         225
               226         226
               227         227
               228         228
               229         229
               230         230
               231         231
               232         232
               233         233
               234         234
               235         235
               236         236
               237         237
               238         238
               239         239
               240         240

----------------------------------------------------------------------------------------

 
 
 KPOINTS: pymatgen v2020.8.13 with grid density = 

Automatic generation of k-mesh.
 Grid dimensions read from file:
 generate k-points for:    2    2    1

 Generating k-lattice:

  Cartesian coordinates                     Fractional coordinates (reciprocal lattice)
     0.038281534  0.000000000  0.000000000     0.500000000  0.000000000  0.000000000
     0.000000000  0.042210838  0.000000000     0.000000000  0.500000000  0.000000000
     0.000000000  0.000000000  0.032659486     0.000000000  0.000000000  1.000000000

  Length of vectors
     0.038281534  0.042210838  0.032659486

  Shift w.r.t. Gamma in fractional coordinates (k-lattice)
     0.000000000  0.000000000  0.000000000

 
 Subroutine IBZKPT returns following result:
 ===========================================
 
 Found      4 irreducible k-points:
 
 Following reciprocal coordinates:
            Coordinates               Weight
  0.000000  0.000000  0.000000      1.000000
  0.500000  0.000000  0.000000      1.000000
  0.000000  0.500000  0.000000      1.000000
  0.500000  0.500000  0.000000      1.000000
 
 Following cartesian coordinates:
            Coordinates               Weight
  0.000000  0.000000  0.000000      1.000000
  0.038282  0.000000  0.000000      1.000000
  0.000000  0.042211  0.000000      1.000000
  0.038282  0.042211  0.000000      1.000000
 


--------------------------------------------------------------------------------------------------------




 Dimension of arrays:
   k-points           NKPTS =      4   k-points in BZ     NKDIM =      4   number of bands    NBANDS=   1064
   number of dos      NEDOS =    301   number of ions     NIONS =    240
   non local maximal  LDIM  =      6   non local SUM 2l+1 LMDIM =     18
   total plane-waves  NPLWV = ******
   max r-space proj   IRMAX =      1   max aug-charges    IRDMAX=  21440
   dimension x,y,z NGX =   108 NGY =   96 NGZ =  250
   dimension x,y,z NGXF=   216 NGYF=  192 NGZF=  500
   support grid    NGXF=   216 NGYF=  192 NGZF=  500
   ions per type =              80 160
   NGX,Y,Z   is equivalent  to a cutoff of  13.75, 13.47, 13.57 a.u.
   NGXF,Y,Z  is equivalent  to a cutoff of  27.49, 26.95, 27.15 a.u.

 SYSTEM =  TiO2                                    
 POSCAR =  Ti  O                                   

--------------------------------------------------------------------------------------------------------


  energy-cutoff  :      600.00
  volume of cell :     4737.15
      direct lattice vectors                 reciprocal lattice vectors
    13.061127704  0.000000000  0.000000000     0.076563067  0.000000000  0.000000000
     0.000000000 11.845298948  0.000000000     0.000000000  0.084421677  0.000000000
     0.000000000  0.000000000 30.618975621     0.000000000  0.000000000  0.032659486

  length of vectors
    13.061127704 11.845298948 30.618975621     0.076563067  0.084421677  0.032659486


 
 k-points in units of 2pi/SCALE and weight: pymatgen v2020.8.13 with grid density = 
   0.00000000  0.00000000  0.00000000       0.250
   0.03828153  0.00000000  0.00000000       0.250
   0.00000000  0.04221084  0.00000000       0.250
   0.03828153  0.04221084  0.00000000       0.250
 
 k-points in reciprocal lattice and weights: pymatgen v2020.8.13 with grid density = 
   0.00000000  0.00000000  0.00000000       0.250
   0.50000000  0.00000000  0.00000000       0.250
   0.00000000  0.50000000  0.00000000       0.250
   0.50000000  0.50000000  0.00000000       0.250
 
 position of ions in fractional coordinates (direct lattice) 
   0.75000000  0.62500000  0.28671514
   0.00000000  0.75000000  0.28671514
   0.00000000  0.62500000  0.39335757
   0.75000000  0.75000000  0.39335757
   0.75000000  0.62500000  0.50000000
   0.00000000  0.75000000  0.50000000
   0.00563876  0.62503506  0.60441681
   0.75489325  0.75010379  0.61024376
   0.75122887  0.62585411  0.71920681
   0.00032632  0.75025698  0.70865610
   0.75000000  0.87500000  0.28671514
   0.00000000  0.00000000  0.28671514
   0.00000000  0.87500000  0.39335757
   0.75000000  0.00000000  0.39335757
   0.75000000  0.87500000  0.50000000
   0.00000000  0.00000000  0.50000000
   0.00550393  0.87500890  0.60446884
   0.75414950  0.00001919  0.61051919
   0.75001880  0.87502385  0.72018433
   0.00043158  0.99990234  0.70860578
   0.75000000  0.12500000  0.28671514
   0.00000000  0.25000000  0.28671514
   0.00000000  0.12500000  0.39335757
   0.75000000  0.25000000  0.39335757
   0.75000000  0.12500000  0.50000000
   0.00000000  0.25000000  0.50000000
   0.00551011  0.12494047  0.60445722
   0.75464366  0.24980752  0.61021895
   0.74990545  0.12428259  0.72017714
   0.00039817  0.24956124  0.70863616
   0.75000000  0.37500000  0.28671514
   0.00000000  0.50000000  0.28671514
   0.00000000  0.37500000  0.39335757
   0.75000000  0.50000000  0.39335757
   0.75000000  0.37500000  0.50000000
   0.00000000  0.50000000  0.50000000
   0.00552464  0.37496732  0.60440321
   0.75515478  0.49995480  0.61043464
   0.75179803  0.37338885  0.71925583
   0.00110835  0.50005569  0.70859366
   0.25000000  0.62500000  0.28671514
   0.50000000  0.75000000  0.28671514
   0.50000000  0.62500000  0.39335757
   0.25000000  0.75000000  0.39335757
   0.25000000  0.62500000  0.50000000
   0.50000000  0.75000000  0.50000000
   0.50578311  0.62274309  0.60563321
   0.25487448  0.74990149  0.61053827
   0.25074984  0.62514395  0.72028269
   0.50097839  0.75019601  0.70744581
   0.25000000  0.87500000  0.28671514
   0.50000000  0.00000000  0.28671514
   0.50000000  0.87500000  0.39335757
   0.25000000  0.00000000  0.39335757
   0.25000000  0.87500000  0.50000000
   0.50000000  0.00000000  0.50000000
   0.50535263  0.87405009  0.60346846
   0.25443594  0.99994599  0.61058036
   0.25120263  0.87505323  0.72025459
   0.49979629  0.99991544  0.70764618
   0.25000000  0.12500000  0.28671514
   0.50000000  0.25000000  0.28671514
   0.50000000  0.12500000  0.39335757
   0.25000000  0.25000000  0.39335757
   0.25000000  0.12500000  0.50000000
   0.50000000  0.25000000  0.50000000
   0.50514578  0.12601042  0.60354423
   0.25459588  0.25007507  0.61056549
   0.25102810  0.12489170  0.72021345
   0.50081418  0.24956803  0.70772355
   0.25000000  0.37500000  0.28671514
   0.50000000  0.50000000  0.28671514
   0.50000000  0.37500000  0.39335757
   0.25000000  0.50000000  0.39335757
   0.25000000  0.37500000  0.50000000
   0.50000000  0.50000000  0.50000000
   0.50560184  0.37712189  0.60581693
   0.25464614  0.50002425  0.61066254
   0.25055161  0.37483784  0.72020581
   0.50134190  0.49920480  0.71238717
   0.75000000  0.75000000  0.24494614
   0.75000000  0.75000000  0.32848414
   0.09791834  0.62500000  0.28671514
   0.90208166  0.62500000  0.28671514
   0.00000000  0.75000000  0.35158857
   0.00000000  0.75000000  0.43512657
   0.84791834  0.62500000  0.39335757
   0.15208166  0.62500000  0.39335757
   0.75000000  0.75000000  0.45823100
   0.75000000  0.75000000  0.54176900
   0.09791834  0.62500000  0.50000000
   0.90208166  0.62500000  0.50000000
   0.00062609  0.75011369  0.56548475
   0.99991038  0.74982002  0.64933105
   0.85083585  0.62526429  0.60668664
   0.15051572  0.62513304  0.60723751
   0.75367297  0.75060556  0.67163040
   0.74916512  0.74900083  0.75539897
   0.09462311  0.62504026  0.71910310
   0.90665559  0.62423465  0.72003019
   0.75000000  0.00000000  0.24494614
   0.75000000  0.00000000  0.32848414
   0.09791834  0.87500000  0.28671514
   0.90208166  0.87500000  0.28671514
   0.00000000  0.00000000  0.35158857
   0.00000000  0.00000000  0.43512657
   0.84791834  0.87500000  0.39335757
   0.15208166  0.87500000  0.39335757
   0.75000000  0.00000000  0.45823100
   0.75000000  0.00000000  0.54176900
   0.09791834  0.87500000  0.50000000
   0.90208166  0.87500000  0.50000000
   0.00061394  0.99995779  0.56548941
   0.00019611  0.99997866  0.64928776
   0.85057708  0.87542296  0.60699658
   0.15043379  0.87478283  0.60729562
   0.75100001  0.99993185  0.67190362
   0.75034397  0.99976341  0.75568106
   0.09439322  0.87455760  0.71885271
   0.90663041  0.87496071  0.71947517
   0.75000000  0.25000000  0.24494614
   0.75000000  0.25000000  0.32848414
   0.09791834  0.12500000  0.28671514
   0.90208166  0.12500000  0.28671514
   0.00000000  0.25000000  0.35158857
   0.00000000  0.25000000  0.43512657
   0.84791834  0.12500000  0.39335757
   0.15208166  0.12500000  0.39335757
   0.75000000  0.25000000  0.45823100
   0.75000000  0.25000000  0.54176900
   0.09791834  0.12500000  0.50000000
   0.90208166  0.12500000  0.50000000
   0.00057352  0.24988321  0.56548609
   0.00000351  0.25010076  0.64932296
   0.85051861  0.12464389  0.60704653
   0.15036385  0.12501039  0.60718520
   0.75325991  0.24957044  0.67165090
   0.74944950  0.25056098  0.75534474
   0.09427092  0.12524233  0.71899936
   0.90655928  0.12488549  0.71935211
   0.75000000  0.50000000  0.24494614
   0.75000000  0.50000000  0.32848414
   0.09791834  0.37500000  0.28671514
   0.90208166  0.37500000  0.28671514
   0.00000000  0.50000000  0.35158857
   0.00000000  0.50000000  0.43512657
   0.84791834  0.37500000  0.39335757
   0.15208166  0.37500000  0.39335757
   0.75000000  0.50000000  0.45823100
   0.75000000  0.50000000  0.54176900
   0.09791834  0.37500000  0.50000000
   0.90208166  0.37500000  0.50000000
   0.00074736  0.49999532  0.56547156
   0.00014026  0.50000359  0.64927457
   0.85080445  0.37466543  0.60671082
   0.15049701  0.37499482  0.60720477
   0.75566425  0.50004017  0.67152432
   0.73948342  0.49979823  0.75554043
   0.09450941  0.37492832  0.71904682
   0.90664821  0.37562029  0.72002184
   0.25000000  0.75000000  0.24494614
   0.25000000  0.75000000  0.32848414
   0.59791834  0.62500000  0.28671514
   0.40208166  0.62500000  0.28671514
   0.50000000  0.75000000  0.35158857
   0.50000000  0.75000000  0.43512657
   0.34791834  0.62500000  0.39335757
   0.65208166  0.62500000  0.39335757
   0.25000000  0.75000000  0.45823100
   0.25000000  0.75000000  0.54176900
   0.59791834  0.62500000  0.50000000
   0.40208166  0.62500000  0.50000000
   0.50078923  0.74876831  0.56531848
   0.49818547  0.75127621  0.64835363
   0.35003578  0.62491178  0.60706500
   0.65123940  0.62514995  0.60769144
   0.25165308  0.74953930  0.67182356
   0.25063891  0.74997262  0.75568402
   0.59712996  0.62942984  0.71428556
   0.40812056  0.62562737  0.72025962
   0.25000000  0.00000000  0.24494614
   0.25000000  0.00000000  0.32848414
   0.59791834  0.87500000  0.28671514
   0.40208166  0.87500000  0.28671514
   0.50000000  0.00000000  0.35158857
   0.50000000  0.00000000  0.43512657
   0.34791834  0.87500000  0.39335757
   0.65208166  0.87500000  0.39335757
   0.25000000  0.00000000  0.45823100
   0.25000000  0.00000000  0.54176900
   0.59791834  0.87500000  0.50000000
   0.40208166  0.87500000  0.50000000
   0.50038518  0.00002938  0.56501931
   0.50030255  0.99988471  0.64852671
   0.35009575  0.87520868  0.60682567
   0.65089146  0.87479234  0.60710564
   0.25040383  0.99993052  0.67172287
   0.24998649  0.99996181  0.75558761
   0.59460586  0.87483401  0.71849691
   0.40644106  0.87587898  0.71882118
   0.25000000  0.25000000  0.24494614
   0.25000000  0.25000000  0.32848414
   0.59791834  0.12500000  0.28671514
   0.40208166  0.12500000  0.28671514
   0.50000000  0.25000000  0.35158857
   0.50000000  0.25000000  0.43512657
   0.34791834  0.12500000  0.39335757
   0.65208166  0.12500000  0.39335757
   0.25000000  0.25000000  0.45823100
   0.25000000  0.25000000  0.54176900
   0.59791834  0.12500000  0.50000000
   0.40208166  0.12500000  0.50000000
   0.50070960  0.25133098  0.56540546
   0.49896260  0.24837113  0.64853417
   0.35013023  0.12482797  0.60690073
   0.65092138  0.12510787  0.60706672
   0.25047894  0.24991900  0.67172203
   0.25086879  0.25006570  0.75554879
   0.59463099  0.12465438  0.71852128
   0.40634737  0.12410613  0.71867357
   0.25000000  0.50000000  0.24494614
   0.25000000  0.50000000  0.32848414
   0.59791834  0.37500000  0.28671514
   0.40208166  0.37500000  0.28671514
   0.50000000  0.50000000  0.35158857
   0.50000000  0.50000000  0.43512657
   0.34791834  0.37500000  0.39335757
   0.65208166  0.37500000  0.39335757
   0.25000000  0.50000000  0.45823100
   0.25000000  0.50000000  0.54176900
   0.59791834  0.37500000  0.50000000
   0.40208166  0.37500000  0.50000000
   0.50084754  0.49979734  0.56568244
   0.49971397  0.50037416  0.64987509
   0.35007553  0.37497392  0.60728409
   0.65117710  0.37495578  0.60773918
   0.25072279  0.50038859  0.67183920
   0.25164345  0.49988767  0.75561551
   0.59686648  0.37126259  0.71449544
   0.40697198  0.37400432  0.71832504
 
 position of ions in cartesian coordinates  (Angst):
   9.79584578  7.40331184  8.77892396
   0.00000000  8.88397421  8.77892396
   0.00000000  7.40331184 12.04420588
   9.79584578  8.88397421 12.04420588
   9.79584578  7.40331184 15.30948781
   0.00000000  8.88397421 15.30948781
   0.07364853  7.40372715 18.50662353
   9.85975712  8.88520362 18.68503896
   9.81189619  7.41342899 22.02137580
   0.00426207  8.88701817 21.69832386
   9.79584578 10.36463658  8.77892396
   0.00000000  0.00000000  8.77892396
   0.00000000 10.36463658 12.04420588
   9.79584578  0.00000000 12.04420588
   9.79584578 10.36463658 15.30948781
   0.00000000  0.00000000 15.30948781
   0.07188758 10.36474201 18.50821676
   9.85004298  0.00022727 18.69347231
   9.79609134 10.36491907 22.05130655
   0.00563687 11.84414215 21.69678323
   9.79584578  1.48066237  8.77892396
   0.00000000  2.96132474  8.77892396
   0.00000000  1.48066237 12.04420588
   9.79584578  2.96132474 12.04420588
   9.79584578  1.48066237 15.30948781
   0.00000000  2.96132474 15.30948781
   0.07196820  1.47995725 18.50786081
   9.85649722  2.95904477 18.68427928
   9.79461084  1.47216447 22.05108625
   0.00520053  2.95612754 21.69771341
   9.79584578  4.44198711  8.77892396
   0.00000000  5.92264947  8.77892396
   0.00000000  4.44198711 12.04420588
   9.79584578  5.92264947 12.04420588
   9.79584578  4.44198711 15.30948781
   0.00000000  5.92264947 15.30948781
   0.07215807  4.44160006 18.50620725
   9.86317304  5.92211409 18.69088340
   9.81933004  4.42290259 22.02287665
   0.01447624  5.92330918 21.69641198
   3.26528193  7.40331184  8.77892396
   6.53056385  8.88397421  8.77892396
   6.53056385  7.40331184 12.04420588
   3.26528193  8.88397421 12.04420588
   3.26528193  7.40331184 15.30948781
   6.53056385  8.88397421 15.30948781
   6.60609775  7.37657812 18.54386841
   3.32894809  8.88280738 18.69405627
   3.27507568  7.40501703 22.05431802
   6.54334279  8.88629596 21.66126614
   3.26528193 10.36463658  8.77892396
   6.53056385  0.00000000  8.77892396
   6.53056385 10.36463658 12.04420588
   3.26528193  0.00000000 12.04420588
   3.26528193 10.36463658 15.30948781
   6.53056385  0.00000000 15.30948781
   6.60047530 10.35338463 18.47758618
   3.32322033 11.84465922 18.69534518
   3.28098960 10.36526708 22.05345758
   6.52790314 11.84429731 21.66740108
   3.26528193  1.48066237  8.77892396
   6.53056385  2.96132474  8.77892396
   6.53056385  1.48066237 12.04420588
   3.26528193  2.96132474 12.04420588
   3.26528193  1.48066237 15.30948781
   6.53056385  2.96132474 15.30948781
   6.59777356  1.49263109 18.47990603
   3.32530934  2.96221398 18.69488979
   3.27871006  1.47937947 22.05219792
   6.54119801  2.95620796 21.66977021
   3.26528193  4.44198711  8.77892396
   6.53056385  5.92264947  8.77892396
   6.53056385  4.44198711 12.04420588
   3.26528193  5.92264947 12.04420588
   3.26528193  4.44198711 15.30948781
   6.53056385  5.92264947 15.30948781
   6.60373025  4.46712149 18.54949377
   3.32596574  5.92293677 18.69786156
   3.27248656  4.44006625 22.05196399
   6.54809054  5.91323010 21.81256548
   9.79584578  8.88397421  7.50000000
   9.79584578  8.88397421 10.05784792
   1.27892396  7.40331184  8.77892396
  11.78220374  7.40331184  8.77892396
   0.00000000  8.88397421 10.76528193
   0.00000000  8.88397421 13.32312984
  11.07476974  7.40331184 12.04420588
   1.98635797  7.40331184 12.04420588
   9.79584578  8.88397421 14.03056385
   9.79584578  8.88397421 16.58841177
   1.27892396  7.40331184 15.30948781
  11.78220374  7.40331184 15.30948781
   0.00817747  8.88532089 17.31456362
  13.05995716  8.88184233 19.88185171
  11.11287569  7.40644240 18.57612333
   1.96590499  7.40488772 18.59299056
   9.84381891  8.89114729 20.56463496
   9.78494134  8.87213877 23.12954264
   1.23588457  7.40378879 22.01820022
  11.84194445  7.39424604 22.04658698
   9.79584578  0.00000000  7.50000000
   9.79584578  0.00000000 10.05784792
   1.27892396 10.36463658  8.77892396
  11.78220374 10.36463658  8.77892396
   0.00000000  0.00000000 10.76528193
   0.00000000  0.00000000 13.32312984
  11.07476974 10.36463658 12.04420588
   1.98635797 10.36463658 12.04420588
   9.79584578  0.00000000 14.03056385
   9.79584578  0.00000000 16.58841177
   1.27892396 10.36463658 15.30948781
  11.78220374 10.36463658 15.30948781
   0.00801871 11.84479899 17.31470658
   0.00256144 11.84504621 19.88052625
  11.10949585 10.36964666 18.58561355
   1.96483488 10.36206412 18.59476986
   9.80890704 11.84449167 20.57300064
   9.80033839 11.84249653 23.13818005
   1.23288194 10.35939616 22.01053355
  11.84161556 10.36417113 22.02959264
   9.79584578  2.96132474  7.50000000
   9.79584578  2.96132474 10.05784792
   1.27892396  1.48066237  8.77892396
  11.78220374  1.48066237  8.77892396
   0.00000000  2.96132474 10.76528193
   0.00000000  2.96132474 13.32312984
  11.07476974  1.48066237 12.04420588
   1.98635797  1.48066237 12.04420588
   9.79584578  2.96132474 14.03056385
   9.79584578  2.96132474 16.58841177
   1.27892396  1.48066237 15.30948781
  11.78220374  1.48066237 15.30948781
   0.00749084  2.95994128 17.31460467
   0.00004591  2.96251832 19.88160377
  11.10873223  1.47644414 18.58714275
   1.96392143  1.48078540 18.59138875
   9.83842385  2.95623647 20.56526256
   9.78865557  2.96796976 23.12788205
   1.23128454  1.48353283 22.01502387
  11.84068654  1.47930601 22.02582476
   9.79584578  5.92264947  7.50000000
   9.79584578  5.92264947 10.05784792
   1.27892396  4.44198711  8.77892396
  11.78220374  4.44198711  8.77892396
   0.00000000  5.92264947 10.76528193
   0.00000000  5.92264947 13.32312984
  11.07476974  4.44198711 12.04420588
   1.98635797  4.44198711 12.04420588
   9.79584578  5.92264947 14.03056385
   9.79584578  5.92264947 16.58841177
   1.27892396  4.44198711 15.30948781
  11.78220374  4.44198711 15.30948781
   0.00976130  5.92259405 17.31415980
   0.00183196  5.92269195 19.88012228
  11.11246552  4.43802399 18.57686370
   1.96566070  4.44192576 18.59198817
   9.86982733  5.92312527 20.56138690
   9.65848744  5.92025939 23.13387400
   1.23439948  4.44113806 22.01647718
  11.84184802  4.44933466 22.04633109
   3.26528193  8.88397421  7.50000000
   3.26528193  8.88397421 10.05784792
   7.80948781  7.40331184  8.77892396
   5.25163989  7.40331184  8.77892396
   6.53056385  8.88397421 10.76528193
   6.53056385  8.88397421 13.32312984
   4.54420588  7.40331184 12.04420588
   8.51692182  7.40331184 12.04420588
   3.26528193  8.88397421 14.03056385
   3.26528193  8.88397421 16.58841177
   7.80948781  7.40331184 15.30948781
   5.25163989  7.40331184 15.30948781
   6.54087202  8.86938451 17.30947271
   6.50686410  8.89909129 19.85192404
   4.57186205  7.40226691 18.58770856
   8.50592095  7.40508804 18.60688931
   3.28687303  8.87851709 20.57054914
   3.27362680  8.88364988 23.13827068
   7.79919069  7.45578465 21.87069203
   5.33051473  7.41074326 22.05361180
   3.26528193  0.00000000  7.50000000
   3.26528193  0.00000000 10.05784792
   7.80948781 10.36463658  8.77892396
   5.25163989 10.36463658  8.77892396
   6.53056385  0.00000000 10.76528193
   6.53056385  0.00000000 13.32312984
   4.54420588 10.36463658 12.04420588
   8.51692182 10.36463658 12.04420588
   3.26528193  0.00000000 14.03056385
   3.26528193  0.00000000 16.58841177
   7.80948781 10.36463658 15.30948781
   5.25163989 10.36463658 15.30948781
   6.53559475  0.00034800 17.30031254
   6.53451552 11.84393335 19.85722350
   4.57264527 10.36710841 18.58038053
   8.50137646 10.36217681 18.58895281
   3.27055643 11.84447599 20.56746611
   3.26510541 11.84484663 23.13531857
   7.76622310 10.36267036 21.99963931
   5.30857860 10.37504836 22.00956803
   3.26528193  2.96132474  7.50000000
   3.26528193  2.96132474 10.05784792
   7.80948781  1.48066237  8.77892396
   5.25163989  1.48066237  8.77892396
   6.53056385  2.96132474 10.76528193
   6.53056385  2.96132474 13.32312984
   4.54420588  1.48066237 12.04420588
   8.51692182  1.48066237 12.04420588
   3.26528193  2.96132474 14.03056385
   3.26528193  2.96132474 16.58841177
   7.80948781  1.48066237 15.30948781
   5.25163989  1.48066237 15.30948781
   6.53983201  2.97709063 17.31213590
   6.51701419  2.94203027 19.85745193
   4.57309559  1.47862467 18.58267863
   8.50176733  1.48194008 18.58776099
   3.27153736  2.96036532 20.56744032
   3.27662934  2.96210297 23.13412991
   7.76655125  1.47656840 22.00038542
   5.30735493  1.47007418 22.00504854
   3.26528193  5.92264947  7.50000000
   3.26528193  5.92264947 10.05784792
   7.80948781  4.44198711  8.77892396
   5.25163989  4.44198711  8.77892396
   6.53056385  5.92264947 10.76528193
   6.53056385  5.92264947 13.32312984
   4.54420588  4.44198711 12.04420588
   8.51692182  4.44198711 12.04420588
   3.26528193  5.92264947 14.03056385
   3.26528193  5.92264947 16.58841177
   7.80948781  4.44198711 15.30948781
   5.25163989  4.44198711 15.30948781
   6.54163363  5.92024891 17.32061677
   6.52682792  5.92708150 19.89850952
   4.57238117  4.44167815 18.59441683
   8.50510722  4.44146331 18.60835113
   3.27472241  5.92725249 20.57102817
   3.28674726  5.92131893 23.13617293
   7.79574936  4.39771631 21.87711860
   5.31551299  4.43019292 21.99437675
 


--------------------------------------------------------------------------------------------------------

--------------------------------------- Iteration      FINAL  ---------------------------------------


--------------------OUTCAR has been truncated-------------------------


--------------------OUTCAR has been truncated-------------------------


--------------------OUTCAR has been truncated-------------------------


--------------------OUTCAR has been truncated-------------------------


--------------------OUTCAR has been truncated-------------------------


--------------------OUTCAR has been truncated-------------------------


--------------------OUTCAR has been truncated-------------------------


--------------------OUTCAR has been truncated-------------------------


--------------------OUTCAR has been truncated-------------------------


--------------------OUTCAR has been truncated-------------------------



  FORCE on cell =-STRESS in cart. coord.  units (eV):
  Direction    XX          YY          ZZ          XY          YZ          ZX
  --------------------------------------------------------------------------------------
  Alpha Z  4617.99219  4617.99219  4617.99219
  Ewald  975478.48988993390.46777************    -3.75510     0.43561   -28.33701
  Hartree************************************    -1.62177     0.35302   -16.22709
  E(xc)   -8612.57275 -8584.91917 -8627.00879    -0.01007     0.00049    -0.08081
  Local  ************************************     5.38425    -0.75561    45.55620
  n-local -5345.85546 -5268.21855 -5389.62345    -0.07563     0.02072    -0.46813
  augment  5215.46690  5203.47996  5217.94942    -0.03104    -0.00673    -0.35985
  Kinetic 28614.99296 28147.84112 28663.93543     0.03265     0.06608     0.67874
  Fock        0.00000     0.00000     0.00000     0.00000     0.00000     0.00000
  vdW      -128.49974  -127.93183  -115.22366     0.00510    -0.00117     0.03542
  -------------------------------------------------------------------------------------
  Total     -15.19239   -57.63365   -59.78161    -0.07161     0.11241     0.79747
  in kB      -5.13830   -19.49258   -20.21905    -0.02422     0.03802     0.26972
  external pressure =      -14.95 kB  Pullay stress =        0.00 kB


 VOLUME and BASIS-vectors are now :
 -----------------------------------------------------------------------------
  energy-cutoff  :      600.00
  volume of cell :     4737.15
      direct lattice vectors                 reciprocal lattice vectors
    13.061127704  0.000000000  0.000000000     0.076563067  0.000000000  0.000000000
     0.000000000 11.845298948  0.000000000     0.000000000  0.084421677  0.000000000
     0.000000000  0.000000000 30.618975621     0.000000000  0.000000000  0.032659486

  length of vectors
    13.061127704 11.845298948 30.618975621     0.076563067  0.084421677  0.032659486


 FORCES acting on ions:
    Electron-Ion                     Ewald-Force                    Non-Local-Force
 -----------------------------------------------------------------------------------------------
   0.141E-01 0.268E-01 0.377E+04   -.160E-01 -.267E-01 -.377E+04   0.591E-03 -.171E-04 0.439E+00
   -.216E-01 0.233E-01 0.395E+04   0.224E-01 -.233E-01 -.394E+04   -.157E-03 -.714E-05 -.402E+01
   -.822E-01 0.618E-01 0.191E+04   0.861E-01 -.617E-01 -.191E+04   -.688E-03 0.879E-04 -.469E-01
   -.119E-01 0.179E+00 0.191E+04   0.648E-02 -.178E+00 -.191E+04   0.157E-02 -.643E-04 0.215E+00
   0.527E+00 0.664E+00 -.174E+02   -.547E+00 -.684E+00 0.181E+02   0.517E-02 0.132E-02 -.119E+00
   0.120E+01 0.970E-01 -.681E+01   -.121E+01 -.934E-01 0.579E+01   -.159E-02 -.234E-02 0.335E+00
   0.110E+02 0.152E+00 -.189E+04   -.111E+02 -.147E+00 0.189E+04   0.171E-02 -.606E-02 0.693E-01
   0.843E+01 -.118E+01 -.194E+04   -.835E+01 0.121E+01 0.194E+04   -.535E-01 -.131E-01 -.161E+00
   -.143E+02 0.162E+02 -.377E+04   0.143E+02 -.169E+02 0.377E+04   0.154E+00 0.103E+00 -.169E+00
   -.146E+00 0.499E+01 -.379E+04   0.103E+00 -.502E+01 0.378E+04   -.310E-01 -.970E-02 0.104E+01
   -.266E-02 0.217E-01 0.377E+04   0.437E-03 -.217E-01 -.377E+04   0.680E-03 0.835E-05 0.439E+00
   -.204E-01 -.245E-02 0.395E+04   0.212E-01 0.243E-02 -.394E+04   -.154E-03 0.724E-05 -.402E+01
   -.626E-01 0.468E-01 0.191E+04   0.664E-01 -.472E-01 -.191E+04   -.685E-03 0.860E-04 -.470E-01
   -.124E+00 -.180E-01 0.191E+04   0.118E+00 0.175E-01 -.191E+04   0.163E-02 -.875E-05 0.215E+00
   -.113E+01 0.262E+00 -.168E+02   0.112E+01 -.239E+00 0.176E+02   0.510E-02 -.895E-03 -.122E+00
   0.146E+01 -.319E-01 -.702E+01   -.146E+01 0.292E-01 0.601E+01   -.923E-03 0.962E-03 0.333E+00
   0.128E+02 0.393E+00 -.189E+04   -.129E+02 -.393E+00 0.189E+04   -.304E-02 -.586E-02 0.738E-01
   0.730E+01 0.240E+00 -.195E+04   -.724E+01 -.247E+00 0.195E+04   -.524E-01 0.803E-03 -.160E+00
   0.239E+00 -.206E+00 -.377E+04   -.207E+00 0.533E-01 0.377E+04   0.228E-01 0.241E-01 -.191E+00
   -.198E+01 0.211E+00 -.379E+04   0.191E+01 -.226E+00 0.378E+04   0.361E-01 0.110E-02 0.109E+01
   -.115E-02 -.268E-01 0.377E+04   -.102E-02 0.266E-01 -.377E+04   0.664E-03 0.302E-04 0.439E+00
   -.217E-01 -.233E-01 0.395E+04   0.225E-01 0.233E-01 -.394E+04   -.163E-03 0.777E-05 -.402E+01
   -.623E-01 -.587E-01 0.191E+04   0.663E-01 0.587E-01 -.191E+04   -.729E-03 -.657E-04 -.469E-01
   0.867E-02 -.179E+00 0.191E+04   -.137E-01 0.178E+00 -.191E+04   0.146E-02 0.697E-04 0.215E+00
   -.106E+01 -.365E+00 -.168E+02   0.105E+01 0.334E+00 0.176E+02   0.577E-02 0.183E-02 -.121E+00
   0.121E+01 -.927E-01 -.679E+01   -.121E+01 0.898E-01 0.577E+01   -.133E-02 0.220E-02 0.336E+00
   0.138E+02 -.348E+00 -.189E+04   -.138E+02 0.342E+00 0.189E+04   -.123E-02 0.681E-02 0.739E-01
   0.790E+01 0.666E+00 -.194E+04   -.782E+01 -.698E+00 0.194E+04   -.551E-01 0.871E-02 -.165E+00
   0.533E+00 -.149E+01 -.377E+04   -.462E+00 0.159E+01 0.377E+04   0.130E-01 -.231E-01 -.187E+00
   0.491E+00 -.513E+01 -.379E+04   -.544E+00 0.517E+01 0.378E+04   -.239E-01 0.558E-02 0.104E+01
   0.155E-01 -.217E-01 0.377E+04   -.174E-01 0.218E-01 -.377E+04   0.554E-03 -.100E-04 0.439E+00
   -.229E-01 0.249E-02 0.395E+04   0.237E-01 -.244E-02 -.394E+04   -.157E-03 -.115E-05 -.402E+01
   -.826E-01 -.498E-01 0.191E+04   0.866E-01 0.501E-01 -.191E+04   -.721E-03 -.129E-03 -.469E-01
   0.118E+00 0.181E-01 0.191E+04   -.122E+00 -.176E-01 -.191E+04   0.117E-02 -.245E-04 0.214E+00
[...]
      9.79461      1.47216     22.05109         0.073513      0.062747      0.056923
      0.00520      2.95613     21.69771        -0.068220      0.027870     -0.100814
      9.79585      4.44199      8.77892        -0.001270      0.000158     -3.319508
      0.00000      5.92265      8.77892         0.000696      0.000054      2.884603
      0.00000      4.44199     12.04421         0.003388      0.000202      0.540792
      9.79585      5.92265     12.04421        -0.003037      0.000440     -0.717069
      9.79585      4.44199     15.30949        -0.015035      0.026018      0.608211
      0.00000      5.92265     15.30949        -0.001316      0.001094     -0.700698
      0.07216      4.44160     18.50621         0.024743      0.005261     -0.045375
      9.86317      5.92211     18.69088         0.122522      0.003659      0.208239
      9.81933      4.42290     22.02288         0.158660      0.599748      0.451633
      0.01448      5.92331     21.69641        -0.101595      0.013689     -0.079171
      3.26528      7.40331      8.77892         0.001441      0.000100     -3.317898
      6.53056      8.88397      8.77892        -0.000588      0.000377      2.887755
      6.53056      7.40331     12.04421        -0.002996      0.012026      0.550928
      3.26528      8.88397     12.04421         0.004141      0.000919     -0.707185
      3.26528      7.40331     15.30949         0.022394     -0.007966      0.644566
      6.53056      8.88397     15.30949        -0.016801     -0.033704     -0.624640
      6.60610      7.37658     18.54387         0.099576      0.239980     -0.249351
      3.32895      8.88281     18.69406        -0.008008      0.025709      0.078872
      3.27508      7.40502     22.05432        -0.185202      0.064694      0.008204
      6.54334      8.88630     21.66127         0.018826      0.278820     -0.059711
      3.26528     10.36464      8.77892         0.001614      0.000131     -3.317829
      6.53056      0.00000      8.77892        -0.000576     -0.000087      2.888289
      6.53056     10.36464     12.04421        -0.003243      0.001888      0.556908
      3.26528      0.00000     12.04421         0.004809     -0.000227     -0.707254
      3.26528     10.36464     15.30949         0.019162      0.006831      0.642513
      6.53056      0.00000     15.30949        -0.020153     -0.002923     -0.782209
      6.60048     10.35338     18.47759         0.090033      0.044063     -0.087689
      3.32322     11.84466     18.69535         0.008062     -0.006641      0.091375
      3.28099     10.36527     22.05346        -0.044795     -0.005522     -0.006780
      6.52790     11.84430     21.66740         0.031115     -0.061792     -0.120843
      3.26528      1.48066      8.77892         0.001579     -0.000131     -3.317813
      6.53056      2.96132      8.77892        -0.000575     -0.000361      2.887481
      6.53056      1.48066     12.04421        -0.003366     -0.004464      0.555244
      3.26528      2.96132     12.04421         0.003894     -0.000877     -0.707010
      3.26528      1.48066     15.30949         0.017995     -0.006216      0.643781
      6.53056      2.96132     15.30949        -0.017221      0.037722     -0.620611
      6.59777      1.49263     18.47991         0.089711     -0.071003     -0.107710
      3.32531      2.96221     18.69489        -0.012890     -0.026867      0.062110
      3.27871      1.47938     22.05220        -0.072973     -0.064957     -0.030046
      6.54120      2.95621     21.66977         0.073681     -0.410778     -0.277016
      3.26528      4.44199      8.77892         0.001399     -0.000045     -3.317897
      6.53056      5.92265      8.77892        -0.000547      0.000111      2.887026
      6.53056      4.44199     12.04421        -0.003131     -0.009432      0.549596
      3.26528      5.92265     12.04421         0.003248      0.000224     -0.706496
      3.26528      4.44199     15.30949         0.022572      0.007409      0.645130
      6.53056      5.92265     15.30949        -0.015462     -0.001104     -0.685809
      6.60373      4.46712     18.54949         0.102343     -0.210678     -0.268914
      3.32597      5.92294     18.69786        -0.034423      0.007183      0.065427
      3.27249      4.44007     22.05196        -0.294205      0.005964     -0.026646
      6.54809      5.91323     21.81257         0.210799      0.219657     -1.875490
      9.79585      8.88397      7.50000         0.000421     -0.000061      1.936327
      9.79585      8.88397     10.05785         0.000543     -0.000077      1.700255
      1.27892      7.40331      8.77892        -1.818921     -0.000016     -0.756087
     11.78220      7.40331      8.77892         1.818005     -0.000010     -0.755983
      0.00000      8.88397     10.76528        -0.000377      0.000022     -1.301731
      0.00000      8.88397     13.32313         0.000312      0.000184     -0.145079
     11.07477      7.40331     12.04421         0.406523     -0.000175      0.051198
      1.98636      7.40331     12.04421        -0.410022     -0.000093      0.049825
      9.79585      8.88397     14.03056        -0.000655     -0.000999     -0.057855
      9.79585      8.88397     16.58841         0.005163      0.000796     -0.053696
      1.27892      7.40331     15.30949        -0.490072      0.001756      0.084490
     11.78220      7.40331     15.30949         0.482393      0.000525      0.100040
      0.00818      8.88532     17.31456         0.008297      0.000167      0.041435
     13.05996      8.88184     19.88185         0.006838      0.000111      0.033844
     11.11288      7.40644     18.57612        -0.045634      0.000306     -0.008037
      1.96590      7.40489     18.59299        -0.024806     -0.005083      0.000902
      9.84382      8.89115     20.56463        -0.034353      0.040268     -0.241589
      9.78494      8.87214     23.12954         0.010746      0.162444     -0.062426
      1.23588      7.40379     22.01820         0.056858     -0.003369     -0.029693
     11.84194      7.39425     22.04659         0.116584      0.018653     -0.061596
      9.79585      0.00000      7.50000         0.000434      0.000054      1.936318
      9.79585      0.00000     10.05785         0.000646      0.000089      1.700234
      1.27892     10.36464      8.77892        -1.818934     -0.000001     -0.756102
     11.78220     10.36464      8.77892         1.818036      0.000002     -0.755984
      0.00000      0.00000     10.76528        -0.000376      0.000078     -1.301677
      0.00000      0.00000     13.32313         0.000139      0.000091     -0.144331
     11.07477     10.36464     12.04421         0.406548      0.000072      0.051266
      1.98636     10.36464     12.04421        -0.410115     -0.000108      0.049931
      9.79585      0.00000     14.03056        -0.000685      0.001938     -0.056400
      9.79585      0.00000     16.58841        -0.002349      0.001057     -0.067218
      1.27892     10.36464     15.30949        -0.488656      0.000765      0.083027
     11.78220     10.36464     15.30949         0.481047     -0.000917      0.097852
      0.00802     11.84480     17.31471         0.008128      0.001641      0.044099
      0.00256     11.84505     19.88053         0.006684      0.001524      0.044552
     11.10950     10.36965     18.58561        -0.044170     -0.002001     -0.004516
      1.96483     10.36206     18.59477        -0.032374     -0.003841      0.000756
      9.80891     11.84449     20.57300        -0.009718      0.009656     -0.191303
      9.80034     11.84250     23.13818        -0.007630      0.022895      0.008780
      1.23288     10.35940     22.01053         0.023992      0.009760     -0.026862
     11.84162     10.36417     22.02959         0.048334      0.011529     -0.039424
      9.79585      2.96132      7.50000         0.000422      0.000064      1.936363
      9.79585      2.96132     10.05785         0.000525      0.000093      1.700653
      1.27892      1.48066      8.77892        -1.818938      0.000034     -0.756097
     11.78220      1.48066      8.77892         1.818012      0.000042     -0.755980
      0.00000      2.96132     10.76528        -0.000383     -0.000006     -1.301613
      0.00000      2.96132     13.32313         0.000124     -0.000206     -0.144354
     11.07477      1.48066     12.04421         0.406509      0.000263      0.051322
      1.98636      1.48066     12.04421        -0.410184      0.000202      0.049920
      9.79585      2.96132     14.03056        -0.000586      0.000554     -0.055640
      9.79585      2.96132     16.58841         0.002232      0.002066     -0.043214
      1.27892      1.48066     15.30949        -0.489619     -0.000055      0.083880
     11.78220      1.48066     15.30949         0.479854      0.001179      0.099027
      0.00749      2.95994     17.31460         0.009177     -0.000548      0.042139
      0.00005      2.96252     19.88160         0.008180     -0.000706      0.040476
     11.10873      1.47644     18.58714        -0.044061      0.004465     -0.004732
      1.96392      1.48079     18.59139        -0.030723      0.007739      0.002420
      9.83842      2.95624     20.56526        -0.036674     -0.040303     -0.232310
      9.78866      2.96797     23.12788        -0.016624     -0.152658     -0.011774
      1.23128      1.48353     22.01502         0.034227     -0.000783     -0.024536
     11.84069      1.47931     22.02582         0.040326     -0.003187     -0.036528
      9.79585      5.92265      7.50000         0.000414     -0.000053      1.936340
      9.79585      5.92265     10.05785         0.000497     -0.000069      1.700231
      1.27892      4.44199      8.77892        -1.818897     -0.000002     -0.756094
     11.78220      4.44199      8.77892         1.818013     -0.000008     -0.755974
      0.00000      5.92265     10.76528        -0.000389     -0.000066     -1.301671
      0.00000      5.92265     13.32313         0.000415     -0.000145     -0.145055
     11.07477      4.44199     12.04421         0.406455     -0.000123      0.051269
      1.98636      4.44199     12.04421        -0.410093      0.000026      0.049830
      9.79585      5.92265     14.03056         0.001096     -0.001397     -0.059195
      9.79585      5.92265     16.58841        -0.004815     -0.002531     -0.069540
      1.27892      4.44199     15.30949        -0.491028     -0.003028      0.084618
     11.78220      4.44199     15.30949         0.481203     -0.001300      0.100140
      0.00976      5.92259     17.31416         0.006411     -0.001609      0.041362
      0.00183      5.92269     19.88012         0.008519     -0.001528      0.028310
     11.11247      4.43802     18.57686        -0.044715     -0.002866     -0.008218
      1.96566      4.44193     18.59199        -0.022726      0.000689      0.002297
      9.86983      5.92313     20.56139        -0.037957     -0.009698     -0.328768
      9.65849      5.92026     23.13387         0.298153     -0.010823     -0.702816
      1.23440      4.44114     22.01648         0.072503     -0.006280     -0.023980
     11.84185      4.44933     22.04633         0.108400     -0.028176     -0.056028
      3.26528      8.88397      7.50000        -0.000337     -0.000070      1.935651
      3.26528      8.88397     10.05785        -0.000635     -0.000110      1.697612
      7.80949      7.40331      8.77892        -1.816662     -0.000311     -0.756431
      5.25164      7.40331      8.77892         1.817720     -0.000315     -0.756498
      6.53056      8.88397     10.76528         0.000447     -0.001999     -1.309004
      6.53056      8.88397     13.32313         0.002515     -0.004361     -0.179543
      4.54421      7.40331     12.04421         0.404683     -0.000643      0.049361
      8.51692      7.40331     12.04421        -0.401167     -0.000771      0.050516
      3.26528      8.88397     14.03056        -0.005291     -0.000039     -0.071609
      3.26528      8.88397     16.58841        -0.002891     -0.003599     -0.046472
      7.80949      7.40331     15.30949        -0.455092     -0.030444      0.070118
      5.25164      7.40331     15.30949         0.479250     -0.030972      0.086774
      6.54087      8.86938     17.30947         0.003785     -0.042446      0.104779
      6.50686      8.89909     19.85192         0.005546     -0.040550      0.126601
      4.57186      7.40227     18.58771         0.011596     -0.022470      0.015864
      8.50592      7.40509     18.60689        -0.179145     -0.022165      0.005944
      3.28687      8.87852     20.57055         0.028133     -0.016710     -0.116101
      3.27363      8.88365     23.13827         0.008265     -0.023457     -0.028080
      7.79919      7.45578     21.87069        -0.466934     -0.517809      0.333160
      5.33051      7.41074     22.05361         0.198109     -0.315204      0.080189
      3.26528      0.00000      7.50000        -0.000335      0.000013      1.935642
      3.26528      0.00000     10.05785        -0.000708      0.000024      1.697409
      7.80949     10.36464      8.77892        -1.816553     -0.000166     -0.756445
      5.25164     10.36464      8.77892         1.817603     -0.000168     -0.756518
      6.53056      0.00000     10.76528         0.000510      0.000423     -1.310010
      6.53056      0.00000     13.32313         0.001815      0.000758     -0.183701
      4.54421     10.36464     12.04421         0.402686     -0.000163      0.049021
      8.51692     10.36464     12.04421        -0.399186      0.000049      0.050300
      3.26528      0.00000     14.03056        -0.004768      0.000239     -0.071464
      3.26528      0.00000     16.58841        -0.016122     -0.000145     -0.066996
      7.80949     10.36464     15.30949        -0.451945     -0.001000      0.082367
      5.25164     10.36464     15.30949         0.471413     -0.005758      0.091692
      6.53559      0.00035     17.30031         0.003487      0.006040      0.068697
      6.53452     11.84393     19.85722        -0.002471      0.006799      0.084251
      4.57265     10.36711     18.58038        -0.030285     -0.006869      0.005753
      8.50138     10.36218     18.58895        -0.115287     -0.004790     -0.008300
      3.27056     11.84448     20.56747         0.016578      0.009417     -0.126633
      3.26511     11.84485     23.13532         0.009837      0.024149      0.005365
      7.76622     10.36267     21.99964        -0.111664     -0.032217     -0.076495
      5.30858     10.37505     22.00957         0.040797     -0.030354     -0.055473
      3.26528      2.96132      7.50000        -0.000325      0.000076      1.935632
      3.26528      2.96132     10.05785        -0.000628      0.000126      1.697602
      7.80949      1.48066      8.77892        -1.816553      0.000291     -0.756450
      5.25164      1.48066      8.77892         1.817631      0.000287     -0.756522
      6.53056      2.96132     10.76528         0.000466      0.001972     -1.308153
      6.53056      2.96132     13.32313         0.002335      0.004398     -0.171740
      4.54421      1.48066     12.04421         0.403080      0.000367      0.049092
      8.51692      1.48066     12.04421        -0.399505      0.000386      0.050448
      3.26528      2.96132     14.03056        -0.005440     -0.000276     -0.072361
      3.26528      2.96132     16.58841        -0.002338      0.004534     -0.043949
      7.80949      1.48066     15.30949        -0.453512      0.007363      0.085477
      5.25164      1.48066     15.30949         0.473514      0.010508      0.093574
      6.53983      2.97709     17.31214         0.003181      0.038570      0.111458
      6.51701      2.94203     19.85745        -0.000692      0.047179      0.180030
      4.57310      1.47862     18.58268        -0.025156      0.014449      0.008452
      8.50177      1.48194     18.58776        -0.117865      0.008937     -0.006126
      3.27154      2.96037     20.56744         0.038047      0.022129     -0.102615
      3.27663      2.96210     23.13413         0.037427      0.043623      0.019836
      7.76655      1.47657     22.00039        -0.123279      0.086240     -0.050332
      5.30735      1.47007     22.00505         0.045521      0.082171     -0.029048
      3.26528      5.92265      7.50000        -0.000318      0.000000      1.935634
      3.26528      5.92265     10.05785        -0.000578     -0.000024      1.697560
      7.80949      4.44199      8.77892        -1.816682      0.000205     -0.756423
      5.25164      4.44199      8.77892         1.817723      0.000222     -0.756520
      6.53056      5.92265     10.76528         0.000458     -0.000366     -1.306301
      6.53056      5.92265     13.32313         0.002260     -0.000927     -0.135501
      4.54421      4.44199     12.04421         0.405075      0.000465      0.049417
      8.51692      4.44199     12.04421        -0.401456      0.000366      0.050650
      3.26528      5.92265     14.03056        -0.006417     -0.000074     -0.073374
      3.26528      5.92265     16.58841        -0.000024     -0.003064     -0.040936
      7.80949      4.44199     15.30949        -0.454709      0.023360      0.068639
      5.25164      4.44199     15.30949         0.479452      0.025392      0.084725
      6.54163      5.92025     17.32062         0.003291     -0.004186      0.178924
      6.52683      5.92708     19.89851        -0.069241     -0.028106      0.811461
      4.57238      4.44168     18.59442         0.016207      0.014538      0.019528
      8.50511      4.44146     18.60835        -0.180531      0.017766      0.007175
      3.27472      5.92725     20.57103         0.037904     -0.014022     -0.109040
      3.28675      5.92132     23.13617         0.035264     -0.048618     -0.012677
      7.79575      4.39772     21.87712        -0.497963      0.407135      0.404953
      5.31551      4.43019     21.99438         0.244715      0.299792      0.267757
 -----------------------------------------------------------------------------------
    total drift:                               -0.012407     -0.002009     -0.046589


--------------------------------------------------------------------------------------------------------



  FREE ENERGIE OF THE ION-ELECTRON SYSTEM (eV)
  ---------------------------------------------------
  free  energy   TOTEN  =     -2125.47388265 eV

  energy  without entropy=    -2125.47388265  energy(sigma->0) =    -2125.47388265
 


--------------------------------------------------------------------------------------------------------


    POTLOK:  cpu time      0.2763: real time      0.2771


--------------------------------------------------------------------------------------------------------


     LOOP+:  cpu time   1691.5366: real time   1699.5079
    4ORBIT:  cpu time      0.0000: real time      0.0000

 total amount of memory used by VASP MPI-rank0   634271. kBytes
=======================================================================

   base      :      30000. kBytes
   nonl-proj :     395326. kBytes
   fftplans  :      41495. kBytes
   grid      :      57314. kBytes
   one-center:       1866. kBytes
   wavefun   :     108270. kBytes
 
  
  
 General timing and accounting informations for this job:
 ========================================================
  
                  Total CPU time used (sec):     1735.355
                            User time (sec):     1730.545
                          System time (sec):        4.810
                         Elapsed time (sec):     1744.238
  
                   Maximum memory used (kb):     1138056.
                   Average memory used (kb):          N/A
  
                          Minor page faults:       158050
                          Major page faults:           71
                 Voluntary context switches:         3027
