 **********************************************************************
                          MRCC program system
 **********************************************************************
 
                              Written by
     Mihaly Kallay, Peter R. Nagy, David Mester, Laszlo Gyevi-Nagy,
        Jozsef Csoka, P. Bernat Szabo, Zoltan Rolik, Gyula Samu,
     Jozsef Csontos, Bence Hegely, Adam Ganyecz, Istvan Ladjanszki,
       Lorant Szegedy, Bence Ladoczki, Klara Petrov, Mate Farkas,
                    Pal D. Mezei, and Reka A. Horvath
 
        Department of Physical Chemistry and Materials Science
            Budapest University of Technology and Economics
                  Budapest P.O.Box 91, H-1521 Hungary
 
                              www.mrcc.hu
 
                      Release date: March 18, 2022

 ************************ 2023-02-04 11:40:52 *************************
 Executing minp...

 Reading input from MINP...
 
 Input file:
 
calc=FNO-CCSD(T)
verbosity=3
mem=220GB
unit=angs
scfiguess=small
scfalg=locfit1
ccmaxit=400
ccsdalg=dfdirect
ccsdthreads=4
ccsdmkl=thr
ptthreads=4
lnoepsv=1e-5
naf_cor=1e-2
basis=aug-cc-pVQZ
basis_sm=def2-SVP
dfbasis_scf=def2-QZVPP-RI-JK
dfbasis_cor=aug-cc-pVQZ-RI
unit=angs
geom=xyz
10

C    29.54344629    29.54344629    16.97505516
H    29.54344670    30.44187631    17.60392580
H    29.54344662    28.64496649    17.60393442
H    30.44658454    29.54342777    16.34911135
H    28.64030918    29.54342779    16.34911130
C    25.32292329    12.66144544    16.97521401
H    26.22139350    12.66144561    17.60423123
H    24.42450361    12.66144564    17.60422237
H    25.32294208    13.56423330    16.34882774
H    25.32294206    11.75865866    16.34882693

--------------------Output has been truncated-------------------------


--------------------Output has been truncated-------------------------


--------------------Output has been truncated-------------------------


--------------------Output has been truncated-------------------------


--------------------Output has been truncated-------------------------


--------------------Output has been truncated-------------------------


--------------------Output has been truncated-------------------------


--------------------Output has been truncated-------------------------


--------------------Output has been truncated-------------------------


--------------------Output has been truncated-------------------------


 
 Reference energy [au]:                       -80.431231486038
 DF-MP2 singlet pair energy [au]:              -0.347505906402
 DF-MP2 triplet pair energy [au]:              -0.074996540275
 DF-SCS-MP2 correlation energy [au]:           -0.442005934440
 DF-SCS-MP2 energy [au]:                      -80.873237420478
 DF-SOS-MP2 correlation energy [au]:           -0.451757678322
 DF-SOS-MP2 energy [au]:                      -80.882989164360
 DF-MP2 correlation energy [au]:               -0.422502446677
 DF-MP2 energy [au]:                          -80.853733932715

 Results in FNO basis:
 
 
 Reference energy [au]:                       -80.431231486038
 DF-MP2 singlet pair energy [au]:              -0.341236550954
 DF-MP2 triplet pair energy [au]:              -0.074713932964
 DF-SCS-MP2 correlation energy [au]:           -0.434388505466
 DF-SCS-MP2 energy [au]:                      -80.865619991504
 DF-SOS-MP2 correlation energy [au]:           -0.443607516241
 DF-SOS-MP2 energy [au]:                      -80.874839002278
 DF-MP2 correlation energy [au]:               -0.415950483918
 DF-MP2 energy [au]:                          -80.847181969956

 Results in NAF basis:
 
 
 Reference energy [au]:                       -80.431231486038
 DF-MP2 singlet pair energy [au]:              -0.341201462763
 DF-MP2 triplet pair energy [au]:              -0.074727323052
 DF-SCS-MP2 correlation energy [au]:           -0.434350862999
 DF-SCS-MP2 energy [au]:                      -80.865582349037
 DF-SOS-MP2 correlation energy [au]:           -0.443561901592
 DF-SOS-MP2 energy [au]:                      -80.874793387630
 DF-MP2 correlation energy [au]:               -0.415928785815
 DF-MP2 energy [au]:                          -80.847160271852

 ************************ 2023-02-04 11:41:30 *************************
 Executing ccsd...

 Allocation of 220.0 Gbytes of memory...

 Direct DF-CCSD(T) calculation
 
 Convergence criterion:  1.0E-06
 
 Number of occupied/virtual/auxiliary orbitals:     8   202   640
   1312.15 MB is the minimal memory requirement for (T)
    293.11 MB is the minimal memory requirement for CCSD
 
 Reference energy [au]:             -80.431231486038
 T1 contribution [au]:                0.000000000000
 Same spin MP2 energy [au]:          -0.074720619109
 Opposite spin MP2 energy [au]:      -0.341218987295
 MP2 correlation energy [au]:        -0.415939606404
 Total MP2 energy [au]:             -80.847171092442
 MP2 correction [au]:                -0.006562840273
 
 
 CPU time [min]:     0.486                   Wall time [min]:     0.057
 
 Starting CCSD iterations...
 
                     Residual norm          Energy
 Iteration  1        0.196125220804      -80.873061124893
 Iteration  2        0.050029815771      -80.884108378484
 Iteration  3        0.013819619709      -80.885273862599
 Iteration  4        0.002858077961      -80.885282860415
 Iteration  5        0.000530198942      -80.885295883134
 Iteration  6        0.000119925904      -80.885295636631
 Iteration  7        0.000028601576      -80.885297016796
 Iteration  8        0.000005287556      -80.885297130724
 Iteration  9        0.000001125742      -80.885297106767
 
 CCSD iteration has converged in  9 steps.
     6687.81 MB memory was utilized by CCSD
 
 T1 diagnostic:      7.996E-03            D1 diagnostic:      1.292E-02
 
 T1 contribution [au]:                                  0.000000000000
 PPL energy contribution [au]:                          0.121205079926
 Scaled PPL energy contribution [au]:                   0.123118661275

 OS-PPL energy contribution [au]:                       0.107548107782
 Scaled OS-PPL energy contribution [au]:                0.109534216121
 SS-PPL energy contribution [au]:                       0.013656972145
 Scaled SS-PPL energy contribution [au]:                0.013705569601

 Opposite spin CCSD energy [au]:                       -0.382007311682
 Same spin CCSD energy [au]:                           -0.072071788977
 CCSD correlation energy [au]:                         -0.454079100659
 CCSD correlation energy + MP2 correction [au]:        -0.460641940932
 CCSD correlation energy + MP2 + PPL corr. [au]:       -0.458728359583
 Total CCSD energy [au]:                              -80.885310586697
 Total CCSD energy + MP2 correction [au]:             -80.891873426970
 Total CCSD energy + MP2 + PPL corr. [au]:            -80.889959845621
 
 CPU time [min]:    12.917                   Wall time [min]:     0.413
 
 Calculation of (T) correction...
 
 
     1275.43 MB memory is utilized for (T)

 0%       25%       50%       75%       100%
 |---------|---------|---------|---------| 
 
 (T) correction [au]:                                    -0.013883566346
 (T*) correction [au]:                                   -0.014102626101
 (T+) correction [au]:                                   -0.014101811648
 CCSD(T) correlation energy [au]:                        -0.467962667005
 CCSD(T) correlation energy + MP2 correction [au]:       -0.474525507278
 CCSD(T+) correlation en. + MP2 + PPL corr. [au]:        -0.472830171231
 Total CCSD(T) energy [au]:                             -80.899194153043
 Total CCSD(T) energy + MP2 correction [au]:            -80.905756993316
 Total CCSD(T+) energy + MP2 + PPL corr. [au]:          -80.904061657269
 
 CPU time [min]:    16.932                   Wall time [min]:     0.544
 
 ************************ 2023-02-04 11:42:03 *************************
                      Normal termination of mrcc.
 **********************************************************************
