 **********************************************************************
                          MRCC program system
 **********************************************************************
 
                              Written by
     Mihaly Kallay, Peter R. Nagy, David Mester, Laszlo Gyevi-Nagy,
        Jozsef Csoka, P. Bernat Szabo, Zoltan Rolik, Gyula Samu,
     Jozsef Csontos, Bence Hegely, Adam Ganyecz, Istvan Ladjanszki,
       Lorant Szegedy, Bence Ladoczki, Klara Petrov, Mate Farkas,
                    Pal D. Mezei, and Reka A. Horvath
 
        Department of Physical Chemistry and Materials Science
            Budapest University of Technology and Economics
                  Budapest P.O.Box 91, H-1521 Hungary
 
                              www.mrcc.hu
 
                      Release date: March 18, 2022

 ************************ 2023-02-04 11:43:09 *************************
 Executing minp...

 Reading input from MINP...
 
 Input file:
 
calc=FNO-CCSD(T)
verbosity=3
mem=220GB
unit=angs
scfiguess=small
scfalg=locfit1
ccmaxit=400
ccsdalg=dfdirect
ccsdthreads=4
ccsdmkl=thr
ptthreads=4
lnoepsv=1e-5
naf_cor=1e-2
basis=aug-cc-pVTZ
basis_sm=def2-SVP
dfbasis_scf=def2-QZVPP-RI-JK
dfbasis_cor=aug-cc-pVTZ-RI
unit=angs
geom=xyz
10

C    29.54344629    29.54344629    16.97505516
H    29.54344670    30.44187631    17.60392580
H    29.54344662    28.64496649    17.60393442
H    30.44658454    29.54342777    16.34911135
H    28.64030918    29.54342779    16.34911130
C    37.98440048    33.76390703    16.97524142
H    37.08590860    33.76390727    17.60416815
H    38.88294233    33.76390723    17.60417697
H    37.98441903    32.86110881    16.34882759
H    37.98441909    34.66670636    16.34882843

--------------------Output has been truncated-------------------------


--------------------Output has been truncated-------------------------


--------------------Output has been truncated-------------------------


--------------------Output has been truncated-------------------------


--------------------Output has been truncated-------------------------


--------------------Output has been truncated-------------------------


--------------------Output has been truncated-------------------------


--------------------Output has been truncated-------------------------


--------------------Output has been truncated-------------------------


--------------------Output has been truncated-------------------------


 
 Reference energy [au]:                       -40.213014128037
 DF-MP2 singlet pair energy [au]:              -0.164419463012
 DF-MP2 triplet pair energy [au]:              -0.036594594956
 DF-SCS-MP2 correlation energy [au]:           -0.209501553933
 DF-SCS-MP2 energy [au]:                      -40.422515681970
 DF-SOS-MP2 correlation energy [au]:           -0.213745301916
 DF-SOS-MP2 energy [au]:                      -40.426759429952
 DF-MP2 correlation energy [au]:               -0.201014057968
 DF-MP2 energy [au]:                          -40.414028186005

 Results in FNO basis:
 
 
 Reference energy [au]:                       -40.213014128037
 DF-MP2 singlet pair energy [au]:              -0.163769068090
 DF-MP2 triplet pair energy [au]:              -0.036550826317
 DF-SCS-MP2 correlation energy [au]:           -0.208706490480
 DF-SCS-MP2 energy [au]:                      -40.421720618517
 DF-SOS-MP2 correlation energy [au]:           -0.212899788517
 DF-SOS-MP2 energy [au]:                      -40.425913916554
 DF-MP2 correlation energy [au]:               -0.200319894407
 DF-MP2 energy [au]:                          -40.413334022444

 Results in NAF basis:
 
 
 Reference energy [au]:                       -40.213014128037
 DF-MP2 singlet pair energy [au]:              -0.163734826972
 DF-MP2 triplet pair energy [au]:              -0.036570147882
 DF-SCS-MP2 correlation energy [au]:           -0.208671841661
 DF-SCS-MP2 energy [au]:                      -40.421685969697
 DF-SOS-MP2 correlation energy [au]:           -0.212855275064
 DF-SOS-MP2 energy [au]:                      -40.425869403101
 DF-MP2 correlation energy [au]:               -0.200304974854
 DF-MP2 energy [au]:                          -40.413319102891

 ************************ 2023-02-04 11:43:26 *************************
 Executing ccsd...

 Allocation of 220.0 Gbytes of memory...

 Direct DF-CCSD(T) calculation
 
 Convergence criterion:  1.0E-06
 
 Number of occupied/virtual/auxiliary orbitals:     4    83   221
     89.04 MB is the minimal memory requirement for (T)
     22.38 MB is the minimal memory requirement for CCSD
 
 Reference energy [au]:             -40.213014128037
 T1 contribution [au]:                0.000000000000
 Same spin MP2 energy [au]:          -0.036560459706
 Opposite spin MP2 energy [au]:      -0.163751865916
 MP2 correlation energy [au]:        -0.200312325622
 Total MP2 energy [au]:             -40.413326453659
 MP2 correction [au]:                -0.000701732346
 
 
 CPU time [min]:     0.061                   Wall time [min]:     0.004
 
 Starting CCSD iterations...
 
                     Residual norm          Energy
 Iteration  1        0.131887058698      -40.427794306942
 Iteration  2        0.033754538367      -40.433317306905
 Iteration  3        0.008181336654      -40.433783427330
 Iteration  4        0.001913840453      -40.433786029557
 Iteration  5        0.000362931423      -40.433793079150
 Iteration  6        0.000073614091      -40.433793212134
 Iteration  7        0.000017727668      -40.433793817358
 Iteration  8        0.000003099789      -40.433793835052
 
 CCSD iteration has converged in  8 steps.
      207.43 MB memory was utilized by CCSD
 
 T1 diagnostic:      7.475E-03            D1 diagnostic:      1.210E-02
 
 T1 contribution [au]:                                  0.000000000000
 PPL energy contribution [au]:                          0.057487172135
 Scaled PPL energy contribution [au]:                   0.057690227738

 OS-PPL energy contribution [au]:                       0.050872170471
 Scaled OS-PPL energy contribution [au]:                0.051084344174
 SS-PPL energy contribution [au]:                       0.006615001663
 Scaled SS-PPL energy contribution [au]:                0.006619559693

 Opposite spin CCSD energy [au]:                       -0.185468683596
 Same spin CCSD energy [au]:                           -0.035322404154
 CCSD correlation energy [au]:                         -0.220791087750
 CCSD correlation energy + MP2 correction [au]:        -0.221492820096
 CCSD correlation energy + MP2 + PPL corr. [au]:       -0.221289764493
 Total CCSD energy [au]:                              -40.433805215787
 Total CCSD energy + MP2 correction [au]:             -40.434506948133
 Total CCSD energy + MP2 + PPL corr. [au]:            -40.434303892529
 
 CPU time [min]:     0.396                   Wall time [min]:     0.013
 
 Calculation of (T) correction...
 
 
       67.65 MB memory is utilized for (T)

 0%       25%       50%       75%       100%
 |---------|---------|---------|---------| 
 
 (T) correction [au]:                                    -0.006568690231
 (T*) correction [au]:                                   -0.006591701607
 (T+) correction [au]:                                   -0.006591720493
 CCSD(T) correlation energy [au]:                        -0.227359777981
 CCSD(T) correlation energy + MP2 correction [au]:       -0.228061510327
 CCSD(T+) correlation en. + MP2 + PPL corr. [au]:        -0.227881484986
 Total CCSD(T) energy [au]:                             -40.440373906017
 Total CCSD(T) energy + MP2 correction [au]:            -40.441075638363
 Total CCSD(T+) energy + MP2 + PPL corr. [au]:          -40.440895613023
 
 CPU time [min]:     0.460                   Wall time [min]:     0.015
 
 ************************ 2023-02-04 11:43:27 *************************
                      Normal termination of mrcc.
 **********************************************************************
