 vasp.6.3.0 20Jan22 (build Apr  1 2022 16:44:48) complex                         
 executed on        HPECrayEX_GCC date 2023.01.26  18:57:53
 running  512 mpi-ranks, with    1 threads/rank
 distrk:  each k-point on  512 cores,    1 groups
 distr:  one band on NCORE=   8 cores,   64 groups


--------------------------------------------------------------------------------------------------------


 INCAR:
   SYSTEM = MgO-rocksalt
   ISMEAR = 0
   SIGMA = 0.05
   EDIFF = 1E-6
   ALGO = ALL
   ISTART = 0
   IBRION = -1
   NSW = 0
   ISYM = 0
   DIPOL = 0.5 0.5 0.5
   IDIPOL = 3
   LDIPOL = .TRUE.
   GGA = RE
   AGGAC = 0.0
   LUSE_VDW = .TRUE.
   LASPH = .TRUE.
   ENCUT = 600
   PREC = Accurate
   LASPH = .TRUE.
   LREAL = .FALSE.
   ISPIN = 1
   NELM = 200
   NELMIN = 8
   NCORE = 8
   KPAR = 1
   LWAVE = .FALSE.
   LCHARG = .FALSE.

 POTCAR:    PAW_PBE Mg_pv 13Apr2007               
 POTCAR:    PAW_PBE O 08Apr2002                   
 -----------------------------------------------------------------------------
|                                                                             |
|               ----> ADVICE to this user running VASP <----                  |
|                                                                             |
|     You have switched on vdW-DFT.                                           |
|     This routine was written and supplied by Jiri Klimes. We recommend      |
|     that you carefully read and cite the following publications:            |
|       J. Klimes, D.R. Bowler, A. Michelides                                 |
|          J. Phys.: Cond Matt. 22 022201 (2010)                              |
|       J. Klimes, D.R. Bowler, A. Michelides                                 |
|          Phys. Rev. B. 83, 195131 (2011)                                    |
|     and references therein.                                                 |
|                                                                             |
 -----------------------------------------------------------------------------

 POTCAR:    PAW_PBE Mg_pv 13Apr2007               
   SHA256 =  f474ac0dd33840b9ae76c01d57fea79fdf77cdfbb07d5ade72c65f83c709b62b Mg_pv/POTCAR          
   COPYR  = (c) Copyright 13Apr2007 Georg Kresse                                                    
   COPYR  = This file is part of the software VASP. Any use, copying, and all other rights are regul
   COPYR  = If you do not have a valid VASP license, you may not use, copy or distribute this file. 
   VRHFIN =Mg: p6s2                                                                                 
   LEXCH  = PE                                                                                      
   EATOM  =  1056.7344 eV,   77.6678 Ry                                                             
                                                                                                    
   TITEL  = PAW_PBE Mg_pv 13Apr2007                                                                 
   LULTRA =        F    use ultrasoft PP ?                                                          
   IUNSCR =        1    unscreen: 0-lin 1-nonlin 2-no                                               
   RPACOR =    1.500    partial core radius                                                         
   POMASS =   24.305; ZVAL   =    8.000    mass and valenz                                          
   RCORE  =    2.000    outmost cutoff radius                                                       
   RWIGS  =    2.000; RWIGS  =    1.058    wigner-seitz radius (au A)                               
   ENMAX  =  403.929; ENMIN  =  302.947 eV                                                          
   RCLOC  =    1.506    cutoff for local pot                                                        
   LCOR   =        T    correct aug charges                                                         
   LPAW   =        T    paw PP                                                                      
   EAUG   =  758.780                                                                                
   DEXC   =    0.000                                                                                
   RMAX   =    2.045    core radius for proj-oper                                                   
   RAUG   =    1.300    factor for augmentation sphere                                              
   RDEP   =    2.025    radius for radial grids                                                     
   RDEPT  =    1.557    core radius for aug-charge                                                  
                                                                                                    
   Atomic configuration                                                                             
    5 entries                                                                                       
     n  l   j            E        occ.                                                              
     1  0  0.50     -1259.6230   2.0000                                                             
     2  0  0.50       -79.8442   2.0000                                                             
     2  1  1.50       -46.6121   6.0000                                                             
     3  0  0.50        -4.7055   2.0000                                                             
     3  2  1.50        -1.3606   0.0000                                                             
   Description                                                                                      
     l       E           TYP  RCUT    TYP  RCUT                                                     
     1    -46.6121073     23  1.600                                                                 
     1      2.7211652     23  1.600                                                                 
     0     -4.7054661     23  2.000                                                                 
     0     61.2262170     23  2.000                                                                 
     2     -1.3605826     23  2.000                                                                 
  local pseudopotential read in
  partial core-charges read in
  partial kinetic energy density read in
  atomic valenz-charges read in
  non local Contribution for L=           1  read in
    real space projection operators read in
  non local Contribution for L=           1  read in
    real space projection operators read in
  non local Contribution for L=           0  read in
    real space projection operators read in
  non local Contribution for L=           0  read in
    real space projection operators read in
  non local Contribution for L=           2  read in
    real space projection operators read in
    PAW grid and wavefunctions read in

   number of l-projection  operators is LMAX  =           5
   number of lm-projection operators is LMMAX =          13

 POTCAR:    PAW_PBE O 08Apr2002                   
   SHA256 =  818f92134a0a090dccd8ba1447fa70422a3b330e708bb4f08108d8ae51209ddf O/POTCAR              
   COPYR  = (c) Copyright 08Apr2002 Georg Kresse                                                    
   COPYR  = This file is part of the software VASP. Any use, copying, and all other rights are regul
   COPYR  = If you do not have a valid VASP license, you may not use, copy or distribute this file. 
   VRHFIN =O: s2p4                                                                                  
   LEXCH  = PE                                                                                      
   EATOM  =   432.3788 eV,   31.7789 Ry                                                             
                                                                                                    
   TITEL  = PAW_PBE O 08Apr2002                                                                     
   LULTRA =        F    use ultrasoft PP ?                                                          
   IUNSCR =        1    unscreen: 0-lin 1-nonlin 2-no                                               
   RPACOR =    1.200    partial core radius                                                         
   POMASS =   16.000; ZVAL   =    6.000    mass and valenz                                          
   RCORE  =    1.520    outmost cutoff radius                                                       
   RWIGS  =    1.550; RWIGS  =    0.820    wigner-seitz radius (au A)                               
   ENMAX  =  400.000; ENMIN  =  300.000 eV                                                          
   ICORE  =        2    local potential                                                             
   LCOR   =        T    correct aug charges                                                         
   LPAW   =        T    paw PP                                                                      
   EAUG   =  605.392                                                                                
   DEXC   =    0.000                                                                                
   RMAX   =    1.553    core radius for proj-oper                                                   
   RAUG   =    1.300    factor for augmentation sphere                                              
   RDEP   =    1.550    radius for radial grids                                                     
   RDEPT  =    1.329    core radius for aug-charge                                                  
                                                                                                    
   Atomic configuration                                                                             
    4 entries                                                                                       
     n  l   j            E        occ.                                                              
     1  0  0.50      -514.6923   2.0000                                                             
     2  0  0.50       -23.9615   2.0000                                                             
     2  1  0.50        -9.0305   4.0000                                                             
     3  2  1.50        -9.5241   0.0000                                                             
   Description                                                                                      
     l       E           TYP  RCUT    TYP  RCUT                                                     
     0    -23.9615318     23  1.200                                                                 
     0     -9.5240782     23  1.200                                                                 
     1     -9.0304911     23  1.520                                                                 
     1      8.1634956     23  1.520                                                                 
     2     -9.5240782      7  1.500                                                                 
  local pseudopotential read in
  partial core-charges read in
  partial kinetic energy density read in
  kinetic energy density of atom read in
  atomic valenz-charges read in
  non local Contribution for L=           0  read in
    real space projection operators read in
  non local Contribution for L=           0  read in
    real space projection operators read in
  non local Contribution for L=           1  read in
    real space projection operators read in
  non local Contribution for L=           1  read in
    real space projection operators read in
    PAW grid and wavefunctions read in

   number of l-projection  operators is LMAX  =           4
   number of lm-projection operators is LMMAX =           8

 -----------------------------------------------------------------------------
|                                                                             |
|               ----> ADVICE to this user running VASP <----                  |
|                                                                             |
|     You have a (more or less) 'large supercell' and for larger cells it     |
|     might be more efficient to use real-space projection operators.         |
|     Therefore, try LREAL= Auto in the INCAR file.                           |
|     Mind: For very accurate calculation, you might also keep the            |
|     reciprocal projection scheme (i.e. LREAL=.FALSE.).                      |
|                                                                             |
 -----------------------------------------------------------------------------

 -----------------------------------------------------------------------------
|                                                                             |
|               ----> ADVICE to this user running VASP <----                  |
|                                                                             |
|     You enforced a specific xc type in the INCAR file but a different       |
|     type was found in the POTCAR file.                                      |
|     I HOPE YOU KNOW WHAT YOU ARE DOING!                                     |
|                                                                             |
 -----------------------------------------------------------------------------

  PAW_PBE Mg_pv 13Apr2007               :
 energy of atom  1       EATOM=-1056.7344
 kinetic energy error for atom=    0.0221 (will be added to EATOM!!)
  PAW_PBE O 08Apr2002                   :
 energy of atom  2       EATOM= -432.3788
 kinetic energy error for atom=    0.0168 (will be added to EATOM!!)


 POSCAR: Mg  O
  positions in direct lattice
  No initial velocities read in
 exchange correlation table for  LEXCH =       40
   RHO(1)=    0.500       N(1)  =     2000
   RHO(2)=  100.500       N(2)  =     4000



--------------------------------------------------------------------------------------------------------


 ion  position               nearest neighbor table
   1  0.250  0.000  0.353-  35 2.09  36 2.09  43 2.09  52 2.09  33 2.09
   2  0.500  0.250  0.353-  35 2.09  36 2.09  44 2.09  51 2.09  34 2.09
   3  0.250  0.250  0.451-  33 2.09  34 2.09  41 2.09  50 2.09  35 2.09  39 2.09
   4  0.500  0.000  0.451-  33 2.09  34 2.09  42 2.09  49 2.09  36 2.09  40 2.09
   5  0.250  0.000  0.550-  56 2.09  40 2.09  39 2.09  47 2.09  33 2.10  37 2.12
   6  0.500  0.250  0.550-  48 2.09  39 2.09  55 2.09  40 2.09  34 2.10  38 2.12
   7  0.250  0.250  0.647-  39 2.08  37 2.08  54 2.08  45 2.09  38 2.09
   8  0.500  0.001  0.647-  38 2.07  40 2.08  46 2.08  37 2.09  53 2.09
   9  0.250  0.500  0.353-  35 2.09  43 2.09  44 2.09  60 2.09  41 2.09
  10  0.500  0.750  0.353-  36 2.09  43 2.09  44 2.09  59 2.09  42 2.09
  11  0.250  0.750  0.451-  33 2.09  41 2.09  42 2.09  58 2.09  43 2.09  47 2.09
  12  0.500  0.500  0.451-  34 2.09  41 2.09  42 2.09  57 2.09  44 2.09  48 2.10
  13  0.250  0.500  0.550-  48 2.09  39 2.09  47 2.09  64 2.09  41 2.10  45 2.12
  14  0.500  0.750  0.550-  48 2.08  63 2.08  47 2.09  40 2.09  42 2.10  46 2.13
  15  0.249  0.750  0.647-  62 2.07  47 2.08  46 2.08  37 2.09  45 2.09
  16  0.498  0.498  0.649-  45 2.08  38 2.08  48 2.11  61 2.12  46 2.12
  17  0.750  0.000  0.353-  36 2.09  51 2.09  52 2.09  59 2.09  49 2.09
  18  0.000  0.250  0.353-  35 2.09  51 2.09  52 2.09  60 2.09  50 2.09
  19  0.750  0.250  0.451-  34 2.09  49 2.09  50 2.09  57 2.09  51 2.09  55 2.09
  20  0.000  0.000  0.451-  33 2.09  49 2.09  50 2.09  58 2.09  52 2.09  56 2.09
  21  0.750  1.000  0.550-  63 2.09  56 2.09  40 2.09  55 2.09  49 2.10  53 2.12
  22  0.000  0.250  0.550-  56 2.09  64 2.09  39 2.09  55 2.09  50 2.10  54 2.12
  23  0.750  0.249  0.647-  53 2.07  55 2.08  61 2.08  54 2.09  38 2.09
  24  0.000  0.000  0.647-  56 2.08  54 2.08  37 2.08  62 2.09  53 2.09
  25  0.750  0.500  0.353-  44 2.09  51 2.09  59 2.09  60 2.09  57 2.09
  26  0.000  0.750  0.353-  43 2.09  52 2.09  59 2.09  60 2.09  58 2.09
  27  0.750  0.750  0.451-  42 2.09  49 2.09  57 2.09  58 2.09  59 2.09  63 2.10
  28  0.000  0.500  0.451-  41 2.09  50 2.09  57 2.09  58 2.09  60 2.09  64 2.09
  29  0.750  0.500  0.550-  48 2.08  63 2.08  55 2.09  64 2.09  57 2.10  61 2.13
  30  1.000  0.750  0.550-  63 2.09  56 2.09  64 2.09  47 2.09  58 2.10  62 2.12
  31  0.752  0.752  0.649-  53 2.08  62 2.08  63 2.11  61 2.12  46 2.12
  32  0.001  0.500  0.647-  45 2.07  64 2.08  61 2.08  54 2.09  62 2.09
  33  0.250  0.000  0.451-   3 2.09   4 2.09  11 2.09  20 2.09   1 2.09   5 2.10
  34  0.500  0.250  0.451-   3 2.09   4 2.09  12 2.09  19 2.09   2 2.09   6 2.10
  35  0.250  0.250  0.353-   1 2.09   2 2.09   9 2.09  18 2.09   3 2.09
  36  0.500  0.000  0.353-   1 2.09   2 2.09  10 2.09  17 2.09   4 2.09
  37  0.250  0.000  0.649-  24 2.08   7 2.08   8 2.09  15 2.09   5 2.12
  38  0.500  0.249  0.649-   8 2.07  16 2.08   7 2.09  23 2.09   6 2.12
  39  0.250  0.250  0.549-   7 2.08  22 2.09   5 2.09   6 2.09  13 2.09   3 2.09
  40  0.500  1.000  0.549-   8 2.08   5 2.09  21 2.09  14 2.09   6 2.09   4 2.09
  41  0.250  0.500  0.451-   3 2.09  11 2.09  12 2.09  28 2.09   9 2.09  13 2.10
  42  0.500  0.750  0.451-   4 2.09  11 2.09  12 2.09  27 2.09  10 2.09  14 2.10
  43  0.250  0.750  0.353-   1 2.09   9 2.09  10 2.09  26 2.09  11 2.09
  44  0.500  0.500  0.353-   2 2.09   9 2.09  10 2.09  25 2.09  12 2.09
  45  0.249  0.500  0.649-  32 2.07  16 2.08   7 2.09  15 2.09  13 2.12
  46  0.498  0.752  0.650-   8 2.08  15 2.08  16 2.12  31 2.12  14 2.13
  47  0.250  0.750  0.549-  15 2.08   5 2.09  13 2.09  14 2.09  30 2.09  11 2.09
  48  0.500  0.500  0.550-  14 2.08  29 2.08  13 2.09   6 2.09  12 2.10  16 2.11
  49  0.750  0.000  0.451-   4 2.09  19 2.09  20 2.09  27 2.09  17 2.09  21 2.10
  50  0.000  0.250  0.451-   3 2.09  19 2.09  20 2.09  28 2.09  18 2.09  22 2.10
  51  0.750  0.250  0.353-   2 2.09  17 2.09  18 2.09  25 2.09  19 2.09
  52  0.000  0.000  0.353-   1 2.09  17 2.09  18 2.09  26 2.09  20 2.09
  53  0.750  0.001  0.649-  23 2.07  31 2.08  24 2.09   8 2.09  21 2.12
  54  0.000  0.250  0.649-  24 2.08   7 2.08  32 2.09  23 2.09  22 2.12
  55  0.750  0.250  0.549-  23 2.08  22 2.09   6 2.09  29 2.09  21 2.09  19 2.09
  56  0.000  0.000  0.549-  24 2.08  22 2.09   5 2.09  30 2.09  21 2.09  20 2.09
  57  0.750  0.500  0.451-  12 2.09  19 2.09  27 2.09  28 2.09  25 2.09  29 2.10
  58  0.000  0.750  0.451-  11 2.09  20 2.09  27 2.09  28 2.09  26 2.09  30 2.10
  59  0.750  0.750  0.353-  10 2.09  17 2.09  25 2.09  26 2.09  27 2.09
  60  0.000  0.500  0.353-   9 2.09  18 2.09  25 2.09  26 2.09  28 2.09
  61  0.752  0.498  0.650-  32 2.08  23 2.08  16 2.12  31 2.12  29 2.13
  62  0.001  0.750  0.649-  15 2.07  31 2.08  24 2.09  32 2.09  30 2.12
  63  0.750  0.750  0.550-  14 2.08  29 2.08  30 2.09  21 2.09  27 2.10  31 2.11
  64  1.000  0.500  0.549-  32 2.08  22 2.09  30 2.09  29 2.09  13 2.09  28 2.09


IMPORTANT INFORMATION: All symmetrisations will be switched off!
NOSYMM: (Re-)initialisation of all symmetry stuff for point group C_1.


----------------------------------------------------------------------------------------

                                     Primitive cell                                     

  volume of cell :    1482.1129

  direct lattice vectors                    reciprocal lattice vectors
     8.349111827  0.000000000  0.000000000     0.119773219  0.000000000  0.000000000
     0.000000000  8.349111827  0.000000000     0.000000000  0.119773219  0.000000000
     0.000000000  0.000000000 21.261833870     0.000000000  0.000000000  0.047032632

  length of vectors
     8.349111827  8.349111827 21.261833870     0.119773219  0.119773219  0.047032632

  position of ions in fractional coordinates (direct lattice)
     0.250000000  0.000000000  0.352744737
     0.500000000  0.250000000  0.352744737
     0.250000000  0.250000000  0.450914912
     0.500000000  0.000000000  0.450914912
     0.250014876  0.000025136  0.549620265
     0.499989198  0.250259504  0.549770430
     0.249758639  0.249758619  0.647266642
     0.499748175  0.001023389  0.647054146
     0.250000000  0.500000000  0.352744737
     0.500000000  0.750000000  0.352744737
     0.250000000  0.750000000  0.450914912
     0.500000000  0.500000000  0.450914912
     0.250259481  0.499989292  0.549770403
     0.500324996  0.749699633  0.549829517
     0.249046953  0.750317288  0.647055375
     0.498356583  0.498356570  0.648995922
     0.750000000  0.000000000  0.352744737
     0.000000000  0.250000000  0.352744737
     0.750000000  0.250000000  0.450914912
     0.000000000  0.000000000  0.450914912
     0.750037691  0.999802294  0.549756240
     0.000025163  0.250014856  0.549620259
     0.750317271  0.249046986  0.647055399
     0.000313378  0.000313367  0.647256968
     0.750000000  0.500000000  0.352744737
     0.000000000  0.750000000  0.352744737
     0.750000000  0.750000000  0.450914912
     0.000000000  0.500000000  0.450914912
     0.749699611  0.500324946  0.549829507
     0.999802202  0.750037702  0.549756191
     0.751781551  0.751781575  0.648898556
     0.001023446  0.499748174  0.647054129
     0.250000000  0.000000000  0.450914912
     0.500000000  0.250000000  0.450914912
     0.250000000  0.250000000  0.352744737
     0.500000000  0.000000000  0.352744737
     0.249806604  0.000263612  0.649470177
     0.499861646  0.249006867  0.649310360
     0.250005538  0.250005594  0.549318529
     0.499991448  0.999813535  0.549351126
     0.250000000  0.500000000  0.450914912
     0.500000000  0.750000000  0.450914912
     0.250000000  0.750000000  0.352744737
     0.500000000  0.500000000  0.352744737
     0.249006934  0.499861603  0.649310377
     0.498415428  0.751709167  0.650041385
     0.250251023  0.750024336  0.549354645
     0.500215285  0.500215314  0.549907598
     0.750000000  0.000000000  0.450914912
     0.000000000  0.250000000  0.450914912
     0.750000000  0.250000000  0.352744737
     0.000000000  0.000000000  0.352744737
     0.750210189  0.001113803  0.649267392
     0.000263617  0.249806570  0.649470160
     0.750024346  0.250251069  0.549354642
     0.000046170  0.000046151  0.549310103
     0.750000000  0.500000000  0.450914912
     0.000000000  0.750000000  0.450914912
     0.750000000  0.750000000  0.352744737
     0.000000000  0.500000000  0.352744737
     0.751709176  0.498415453  0.650041369
     0.001113822  0.750210210  0.649267393
     0.749828331  0.749828369  0.549884890
     0.999813545  0.499991517  0.549351106

  ion indices of the primitive-cell ions
   primitive index   ion index
                 1           1
                 2           2
                 3           3
                 4           4
                 5           5
                 6           6
                 7           7
                 8           8
                 9           9
                10          10
                11          11
                12          12
                13          13
                14          14
                15          15
                16          16
                17          17
                18          18
                19          19
                20          20
                21          21
                22          22
                23          23
                24          24
                25          25
                26          26
                27          27
                28          28
                29          29
                30          30
                31          31
                32          32
                33          33
                34          34
                35          35
                36          36
                37          37
                38          38
                39          39
                40          40
                41          41
                42          42
                43          43
                44          44
                45          45
                46          46
                47          47
                48          48
                49          49
                50          50
                51          51
                52          52
                53          53
                54          54
                55          55
                56          56
                57          57
                58          58
                59          59
                60          60
                61          61
                62          62
                63          63
                64          64

----------------------------------------------------------------------------------------



 KPOINTS: pymatgen v2020.8.13 with grid density = 

Automatic generation of k-mesh.
 Grid dimensions read from file:
 generate k-points for:    2    2    1

 Generating k-lattice:

  Cartesian coordinates                     Fractional coordinates (reciprocal lattice)
     0.059886610  0.000000000  0.000000000     0.500000000  0.000000000  0.000000000
     0.000000000  0.059886610  0.000000000     0.000000000  0.500000000  0.000000000
     0.000000000  0.000000000  0.047032632     0.000000000  0.000000000  1.000000000

  Length of vectors
     0.059886610  0.059886610  0.047032632

  Shift w.r.t. Gamma in fractional coordinates (k-lattice)
     0.000000000  0.000000000  0.000000000

 
 Subroutine IBZKPT returns following result:
 ===========================================
 
 Found      4 irreducible k-points:
 
 Following reciprocal coordinates:
            Coordinates               Weight
  0.000000  0.000000  0.000000      1.000000
  0.500000  0.000000  0.000000      1.000000
  0.000000  0.500000  0.000000      1.000000
  0.500000  0.500000  0.000000      1.000000
 
 Following cartesian coordinates:
            Coordinates               Weight
  0.000000  0.000000  0.000000      1.000000
  0.059887  0.000000  0.000000      1.000000
  0.000000  0.059887  0.000000      1.000000
  0.059887  0.059887  0.000000      1.000000
 


--------------------------------------------------------------------------------------------------------




 Dimension of arrays:
   k-points           NKPTS =      4   k-points in BZ     NKDIM =      4   number of bands    NBANDS=    320
   number of dos      NEDOS =    301   number of ions     NIONS =     64
   non local maximal  LDIM  =      5   non local SUM 2l+1 LMDIM =     13
   total plane-waves  NPLWV = 882000
   max r-space proj   IRMAX =      1   max aug-charges    IRDMAX=  11926
   dimension x,y,z NGX =    70 NGY =   70 NGZ =  180
   dimension x,y,z NGXF=   140 NGYF=  140 NGZF=  360
   support grid    NGXF=   140 NGYF=  140 NGZF=  360
   ions per type =              32  32
   NGX,Y,Z   is equivalent  to a cutoff of  13.94, 13.94, 14.07 a.u.
   NGXF,Y,Z  is equivalent  to a cutoff of  27.88, 27.88, 28.15 a.u.

 SYSTEM =  MgO-rocksalt                            
 POSCAR =  Mg  O                                   

--------------------------------------------------------------------------------------------------------


  energy-cutoff  :      600.00
  volume of cell :     1482.11
      direct lattice vectors                 reciprocal lattice vectors
     8.349111827  0.000000000  0.000000000     0.119773219  0.000000000  0.000000000
     0.000000000  8.349111827  0.000000000     0.000000000  0.119773219  0.000000000
     0.000000000  0.000000000 21.261833870     0.000000000  0.000000000  0.047032632

  length of vectors
     8.349111827  8.349111827 21.261833870     0.119773219  0.119773219  0.047032632



 k-points in units of 2pi/SCALE and weight: pymatgen v2020.8.13 with grid density = 
   0.00000000  0.00000000  0.00000000       0.250
   0.05988661  0.00000000  0.00000000       0.250
   0.00000000  0.05988661  0.00000000       0.250
   0.05988661  0.05988661  0.00000000       0.250

 k-points in reciprocal lattice and weights: pymatgen v2020.8.13 with grid density = 
   0.00000000  0.00000000  0.00000000       0.250
   0.50000000  0.00000000  0.00000000       0.250
   0.00000000  0.50000000  0.00000000       0.250
   0.50000000  0.50000000  0.00000000       0.250

 position of ions in fractional coordinates (direct lattice) 
   0.25000000  0.00000000  0.35274474
   0.50000000  0.25000000  0.35274474
   0.25000000  0.25000000  0.45091491
   0.50000000  0.00000000  0.45091491
   0.25001488  0.00002514  0.54962027
   0.49998920  0.25025950  0.54977043
   0.24975864  0.24975862  0.64726664
   0.49974817  0.00102339  0.64705415
   0.25000000  0.50000000  0.35274474
   0.50000000  0.75000000  0.35274474
   0.25000000  0.75000000  0.45091491
   0.50000000  0.50000000  0.45091491
   0.25025948  0.49998929  0.54977040
   0.50032500  0.74969963  0.54982952
   0.24904695  0.75031729  0.64705537
   0.49835658  0.49835657  0.64899592
   0.75000000  0.00000000  0.35274474
   0.00000000  0.25000000  0.35274474
   0.75000000  0.25000000  0.45091491
   0.00000000  0.00000000  0.45091491
   0.75003769  0.99980229  0.54975624
   0.00002516  0.25001486  0.54962026
   0.75031727  0.24904699  0.64705540
   0.00031338  0.00031337  0.64725697
   0.75000000  0.50000000  0.35274474
   0.00000000  0.75000000  0.35274474
   0.75000000  0.75000000  0.45091491
   0.00000000  0.50000000  0.45091491
   0.74969961  0.50032495  0.54982951
   0.99980220  0.75003770  0.54975619
   0.75178155  0.75178158  0.64889856
   0.00102345  0.49974817  0.64705413
   0.25000000  0.00000000  0.45091491
   0.50000000  0.25000000  0.45091491
   0.25000000  0.25000000  0.35274474
   0.50000000  0.00000000  0.35274474
   0.24980660  0.00026361  0.64947018
   0.49986165  0.24900687  0.64931036
   0.25000554  0.25000559  0.54931853
   0.49999145  0.99981353  0.54935113
   0.25000000  0.50000000  0.45091491
   0.50000000  0.75000000  0.45091491
   0.25000000  0.75000000  0.35274474
   0.50000000  0.50000000  0.35274474
   0.24900693  0.49986160  0.64931038
   0.49841543  0.75170917  0.65004139
   0.25025102  0.75002434  0.54935464
   0.50021529  0.50021531  0.54990760
   0.75000000  0.00000000  0.45091491
   0.00000000  0.25000000  0.45091491
   0.75000000  0.25000000  0.35274474
   0.00000000  0.00000000  0.35274474
   0.75021019  0.00111380  0.64926739
   0.00026362  0.24980657  0.64947016
   0.75002435  0.25025107  0.54935464
   0.00004617  0.00004615  0.54931010
   0.75000000  0.50000000  0.45091491
   0.00000000  0.75000000  0.45091491
   0.75000000  0.75000000  0.35274474
   0.00000000  0.50000000  0.35274474
   0.75170918  0.49841545  0.65004137
   0.00111382  0.75021021  0.64926739
   0.74982833  0.74982837  0.54988489
   0.99981355  0.49999152  0.54935111

 position of ions in cartesian coordinates  (Angst):
   2.08727796  0.00000000  7.50000000
   4.17455591  2.08727796  7.50000000
   2.08727796  2.08727796  9.58727796
   4.17455591  0.00000000  9.58727796
   2.08740215  0.00020987 11.68593477
   4.17446573  2.08944458 11.68912754
   2.08526281  2.08526264 13.76207581
   4.17245340  0.00854439 13.75755777
   2.08727796  4.17455591  7.50000000
   4.17455591  6.26183387  7.50000000
   2.08727796  6.26183387  9.58727796
   4.17455591  4.17455591  9.58727796
   2.08944439  4.17446651 11.68912698
   4.17726934  6.25932607 11.69038384
   2.07932086  6.26448294 13.75758388
   4.16083484  4.16083473 13.79884347
   6.26183387  0.00000000  7.50000000
   0.00000000  2.08727796  7.50000000
   6.26183387  2.08727796  9.58727796
   0.00000000  0.00000000  9.58727796
   6.26214856  8.34746116 11.68882585
   0.00021009  2.08740199 11.68593465
   6.26448280  2.07932113 13.75758439
   0.00261643  0.00261634 13.76187013
   6.26183387  4.17455591  7.50000000
   0.00000000  6.26183387  7.50000000
   6.26183387  6.26183387  9.58727796
   0.00000000  4.17455591  9.58727796
   6.25932589  4.17726893 11.69038363
   8.34746039  6.26214865 11.68882480
   6.27670824  6.27670844 13.79677330
   0.00854487  4.17245339 13.75755739
   2.08727796  0.00000000  9.58727796
   4.17455591  2.08727796  9.58727796
   2.08727796  2.08727796  7.50000000
   4.17455591  0.00000000  7.50000000
   2.08566327  0.00220093 13.80892700
   4.17340078  2.07898618 13.80552900
   2.08732419  2.08732466 11.67951930
   4.17448451  8.34755501 11.68021237
   2.08727796  4.17455591  9.58727796
   4.17455591  6.26183387  9.58727796
   2.08727796  6.26183387  7.50000000
   4.17455591  4.17455591  7.50000000
   2.07898673  4.17340042 13.80552936
   4.16132615  6.27610389 13.82107194
   2.08937378  6.26203706 11.68028719
   4.17635336  4.17635359 11.69204400
   6.26183387  0.00000000  9.58727796
   0.00000000  2.08727796  9.58727796
   6.26183387  2.08727796  7.50000000
   0.00000000  0.00000000  7.50000000
   6.26358876  0.00929927 13.80461542
   0.00220097  2.08566299 13.80892664
   6.26203714  2.08937416 11.68028714
   0.00038548  0.00038532 11.67934016
   6.26183387  4.17455591  9.58727796
   0.00000000  6.26183387  9.58727796
   6.26183387  6.26183387  7.50000000
   0.00000000  4.17455591  7.50000000
   6.27610397  4.16132636 13.82107159
   0.00929943  6.26358894 13.80461544
   6.26040058  6.26040091 11.69156119
   8.34755509  4.17448509 11.68021196



--------------------------------------------------------------------------------------------------------

--------------------------------------- Iteration      FINAL  ---------------------------------------


--------------------OUTCAR has been truncated-------------------------


--------------------OUTCAR has been truncated-------------------------


--------------------OUTCAR has been truncated-------------------------


--------------------OUTCAR has been truncated-------------------------


--------------------OUTCAR has been truncated-------------------------


--------------------OUTCAR has been truncated-------------------------


--------------------OUTCAR has been truncated-------------------------


--------------------OUTCAR has been truncated-------------------------


--------------------OUTCAR has been truncated-------------------------


--------------------OUTCAR has been truncated-------------------------


  FORCE on cell =-STRESS in cart. coord.  units (eV):
  Direction    XX          YY          ZZ          XY          YZ          ZX
  --------------------------------------------------------------------------------------
  Alpha Z   897.52708   897.52708   897.52708
  Ewald  166027.99208166027.99207************     0.02466     0.16196     0.16200
  Hartree176001.91657176001.91656************     0.00266     0.09305     0.09307
  E(xc)   -2526.58402 -2526.58402 -2529.39159    -0.00010     0.00040     0.00040
  Local  ************************352589.96366    -0.02013    -0.25585    -0.25591
  n-local -2811.18439 -2811.18440 -2831.32688    -0.00117     0.00515     0.00515
  augment  1076.90822  1076.90822  1067.77738    -0.00190     0.00107     0.00107
  Kinetic  7348.50635  7348.50637  7379.41715    -0.00190    -0.03115    -0.03117
  Fock        0.00000     0.00000     0.00000     0.00000     0.00000     0.00000
  -------------------------------------------------------------------------------------
  Total      11.73649    11.73650    28.38947     0.00211    -0.02536    -0.02537
  in kB      12.68725    12.68727    30.68927     0.00228    -0.02741    -0.02743
  external pressure =       18.69 kB  Pullay stress =        0.00 kB


 VOLUME and BASIS-vectors are now :
 -----------------------------------------------------------------------------
  energy-cutoff  :      600.00
  volume of cell :     1482.11
      direct lattice vectors                 reciprocal lattice vectors
     8.349111827  0.000000000  0.000000000     0.119773219  0.000000000  0.000000000
     0.000000000  8.349111827  0.000000000     0.000000000  0.119773219  0.000000000
     0.000000000  0.000000000 21.261833870     0.000000000  0.000000000  0.047032632

  length of vectors
     8.349111827  8.349111827 21.261833870     0.119773219  0.119773219  0.047032632


 FORCES acting on ions:
    Electron-Ion                     Ewald-Force                    Non-Local-Force
 -----------------------------------------------------------------------------------------------
   -.118E+00 0.113E+00 0.212E+04   0.118E+00 -.113E+00 -.212E+04   0.251E-03 -.433E-03 -.652E+01
   -.113E+00 -.165E+00 0.212E+04   0.113E+00 0.167E+00 -.212E+04   0.403E-03 -.136E-02 -.652E+01
   -.629E+00 -.629E+00 0.703E+03   0.633E+00 0.633E+00 -.704E+03   -.236E-02 -.236E-02 0.424E+00
   -.617E+00 0.524E+00 0.703E+03   0.619E+00 -.536E+00 -.703E+03   -.880E-03 0.839E-02 0.410E+00
   -.856E+00 0.845E+00 -.706E+03   0.879E+00 -.866E+00 0.707E+03   -.152E-01 0.126E-01 -.162E+00
   -.983E+00 -.249E+01 -.708E+03   0.101E+01 0.259E+01 0.708E+03   -.126E-01 -.900E-01 -.212E+00
   -.130E+01 -.130E+01 -.211E+04   0.102E+01 0.102E+01 0.210E+04   0.237E+00 0.237E+00 0.551E+01
   -.176E+01 0.432E+01 -.210E+04   0.150E+01 -.448E+01 0.210E+04   0.223E+00 0.408E-01 0.541E+01
   -.165E+00 -.113E+00 0.212E+04   0.167E+00 0.113E+00 -.212E+04   -.136E-02 0.397E-03 -.652E+01
   -.158E+00 0.165E+00 0.212E+04   0.159E+00 -.166E+00 -.212E+04   -.131E-02 0.141E-02 -.652E+01
   -.540E+00 0.641E+00 0.703E+03   0.555E+00 -.644E+00 -.703E+03   -.112E-01 0.159E-02 0.412E+00
   -.513E+00 -.513E+00 0.700E+03   0.524E+00 0.524E+00 -.700E+03   -.813E-02 -.813E-02 0.585E+00
   -.249E+01 -.983E+00 -.708E+03   0.259E+01 0.101E+01 0.708E+03   -.900E-01 -.127E-01 -.212E+00
   -.288E+01 0.290E+01 -.714E+03   0.297E+01 -.299E+01 0.714E+03   -.835E-01 0.944E-01 -.236E+00
   -.443E+01 0.174E+01 -.210E+04   0.457E+01 -.149E+01 0.210E+04   -.264E-01 -.220E+00 0.541E+01
   -.839E+01 -.839E+01 -.212E+04   0.830E+01 0.830E+01 0.211E+04   0.282E+00 0.282E+00 0.579E+01
   0.119E+00 0.158E+00 0.212E+04   -.118E+00 -.160E+00 -.212E+04   -.309E-03 0.109E-02 -.652E+01
   0.113E+00 -.118E+00 0.212E+04   -.113E+00 0.118E+00 -.212E+04   -.438E-03 0.253E-03 -.652E+01
   0.641E+00 -.540E+00 0.703E+03   -.644E+00 0.555E+00 -.703E+03   0.159E-02 -.112E-01 0.412E+00
   0.611E+00 0.611E+00 0.704E+03   -.611E+00 -.611E+00 -.704E+03   -.117E-03 -.121E-03 0.421E+00
   0.100E+01 0.243E+01 -.707E+03   -.103E+01 -.252E+01 0.707E+03   0.142E-01 0.833E-01 -.217E+00
   0.845E+00 -.856E+00 -.706E+03   -.866E+00 0.879E+00 0.707E+03   0.126E-01 -.152E-01 -.162E+00
   0.174E+01 -.443E+01 -.210E+04   -.149E+01 0.457E+01 0.210E+04   -.220E+00 -.264E-01 0.541E+01
   0.131E+01 0.131E+01 -.211E+04   -.103E+01 -.103E+01 0.210E+04   -.239E+00 -.239E+00 0.552E+01
   0.165E+00 -.158E+00 0.212E+04   -.166E+00 0.159E+00 -.212E+04   0.141E-02 -.131E-02 -.652E+01
   0.158E+00 0.119E+00 0.212E+04   -.160E+00 -.118E+00 -.212E+04   0.109E-02 -.311E-03 -.652E+01
   0.544E+00 0.544E+00 0.700E+03   -.554E+00 -.554E+00 -.701E+03   0.811E-02 0.810E-02 0.580E+00
   0.524E+00 -.617E+00 0.703E+03   -.536E+00 0.619E+00 -.703E+03   0.838E-02 -.881E-03 0.410E+00
   0.290E+01 -.288E+01 -.714E+03   -.299E+01 0.297E+01 0.714E+03   0.944E-01 -.835E-01 -.236E+00
   0.243E+01 0.100E+01 -.707E+03   -.252E+01 -.103E+01 0.707E+03   0.833E-01 0.142E-01 -.217E+00
   0.839E+01 0.839E+01 -.212E+04   -.830E+01 -.830E+01 0.211E+04   -.280E+00 -.280E+00 0.579E+01
   0.432E+01 -.176E+01 -.210E+04   -.448E+01 0.150E+01 0.210E+04   0.408E-01 0.223E+00 0.541E+01
   -.335E+00 0.325E+00 0.527E+03   0.338E+00 -.329E+00 -.527E+03   -.360E-02 0.556E-02 -.660E-01
   -.330E+00 -.635E+00 0.526E+03   0.333E+00 0.609E+00 -.526E+03   -.399E-02 0.370E-01 -.755E-01
   -.108E+00 -.108E+00 0.159E+04   0.108E+00 0.108E+00 -.160E+04   0.743E-05 0.861E-05 0.352E+01
   -.104E+00 0.968E-01 0.159E+04   0.104E+00 -.978E-01 -.160E+04   0.381E-03 0.146E-02 0.352E+01
   -.105E+01 0.105E+01 -.160E+04   0.119E+01 -.119E+01 0.161E+04   -.168E+00 0.167E+00 -.522E+01
   -.141E+01 -.292E+01 -.160E+04   0.156E+01 0.287E+01 0.161E+04   -.175E+00 0.144E+00 -.489E+01
   -.805E+00 -.805E+00 -.523E+03   0.793E+00 0.793E+00 0.523E+03   0.180E-01 0.180E-01 0.319E+00
   -.909E+00 0.151E+01 -.523E+03   0.903E+00 -.157E+01 0.523E+03   0.137E-01 0.987E-01 0.370E+00
   -.635E+00 -.330E+00 0.526E+03   0.609E+00 0.333E+00 -.526E+03   0.370E-01 -.400E-02 -.755E-01
   -.604E+00 0.627E+00 0.525E+03   0.575E+00 -.599E+00 -.525E+03   0.406E-01 -.380E-01 -.101E+00
   -.101E+00 0.108E+00 0.159E+04   0.102E+00 -.108E+00 -.160E+04   -.170E-02 0.478E-04 0.352E+01
   -.965E-01 -.965E-01 0.159E+04   0.975E-01 0.975E-01 -.160E+04   -.150E-02 -.150E-02 0.352E+01
   -.292E+01 -.141E+01 -.160E+04   0.287E+01 0.156E+01 0.161E+04   0.144E+00 -.175E+00 -.489E+01
   -.618E+01 0.619E+01 -.160E+04   0.634E+01 -.634E+01 0.161E+04   0.223E-01 -.271E-01 -.485E+01
   -.152E+01 0.916E+00 -.523E+03   0.158E+01 -.909E+00 0.523E+03   -.989E-01 -.130E-01 0.368E+00
   -.179E+01 -.179E+01 -.535E+03   0.184E+01 0.184E+01 0.535E+03   -.783E-01 -.783E-01 -.647E-01
   0.347E+00 0.616E+00 0.526E+03   -.352E+00 -.593E+00 -.526E+03   0.638E-02 -.327E-01 -.714E-01
   0.325E+00 -.335E+00 0.527E+03   -.329E+00 0.338E+00 -.527E+03   0.556E-02 -.361E-02 -.660E-01
   0.108E+00 -.101E+00 0.159E+04   -.108E+00 0.102E+00 -.160E+04   0.489E-04 -.170E-02 0.352E+01
   0.104E+00 0.104E+00 0.159E+04   -.104E+00 -.104E+00 -.160E+04   -.310E-03 -.310E-03 0.352E+01
   0.141E+01 0.297E+01 -.160E+04   -.157E+01 -.291E+01 0.161E+04   0.181E+00 -.153E+00 -.489E+01
   0.105E+01 -.105E+01 -.160E+04   -.119E+01 0.119E+01 0.161E+04   0.167E+00 -.168E+00 -.522E+01
   0.916E+00 -.152E+01 -.523E+03   -.909E+00 0.158E+01 0.523E+03   -.129E-01 -.989E-01 0.368E+00
   0.798E+00 0.798E+00 -.523E+03   -.788E+00 -.788E+00 0.523E+03   -.166E-01 -.166E-01 0.317E+00
   0.627E+00 -.604E+00 0.525E+03   -.600E+00 0.575E+00 -.525E+03   -.380E-01 0.406E-01 -.101E+00
   0.616E+00 0.347E+00 0.526E+03   -.593E+00 -.352E+00 -.526E+03   -.327E-01 0.638E-02 -.714E-01
   0.101E+00 0.101E+00 0.159E+04   -.102E+00 -.102E+00 -.160E+04   0.197E-02 0.197E-02 0.352E+01
   0.968E-01 -.104E+00 0.159E+04   -.978E-01 0.104E+00 -.160E+04   0.146E-02 0.379E-03 0.352E+01
   0.619E+01 -.618E+01 -.160E+04   -.634E+01 0.634E+01 0.161E+04   -.271E-01 0.223E-01 -.485E+01
   0.297E+01 0.141E+01 -.160E+04   -.291E+01 -.157E+01 0.161E+04   -.153E+00 0.181E+00 -.489E+01
   0.184E+01 0.184E+01 -.534E+03   -.188E+01 -.188E+01 0.534E+03   0.801E-01 0.801E-01 -.412E-01
   0.151E+01 -.909E+00 -.523E+03   -.157E+01 0.903E+00 0.523E+03   0.987E-01 0.137E-01 0.370E+00
 -----------------------------------------------------------------------------------------------
   -.194E-01 -.194E-01 0.160E+02   0.995E-13 -.312E-12 0.136E-11   0.194E-01 0.194E-01 -.160E+02


 POSITION                                       TOTAL-FORCE (eV/Angst)
 -----------------------------------------------------------------------------------
      2.08728      0.00000      7.50000        -0.000050      0.000136     -0.015297
      4.17456      2.08728      7.50000        -0.000114      0.000377     -0.016043
      2.08728      2.08728      9.58728         0.001509      0.001511      0.035447
      4.17456      0.00000      9.58728         0.001056     -0.002974      0.049270
      2.08740      0.00021     11.68593         0.007844     -0.007697      0.024761
      4.17447      2.08944     11.68913         0.010276      0.009978     -0.013522
      2.08526      2.08526     13.76208        -0.040336     -0.040334      0.371135
      4.17245      0.00854     13.75756        -0.035448     -0.117435      0.429060
      2.08728      4.17456      7.50000         0.000378     -0.000117     -0.016052
      4.17456      6.26183      7.50000         0.000323     -0.000351     -0.014979
      2.08728      6.26183      9.58728         0.004182     -0.001192      0.049268
      4.17456      4.17456      9.58728         0.002666      0.002666      0.070182
      2.08944      4.17447     11.68913         0.009979      0.010269     -0.013522
      4.17727      6.25933     11.69038         0.004551     -0.004677      0.111458
      2.07932      6.26448     13.75758         0.119375      0.035578      0.428381
      4.16083      4.16083     13.79884         0.190554      0.190546      0.138613
      6.26183      0.00000      7.50000         0.000078     -0.000286     -0.016247
      0.00000      2.08728      7.50000         0.000130     -0.000051     -0.015295
      6.26183      2.08728      9.58728        -0.001198      0.004181      0.049268
      0.00000      0.00000      9.58728        -0.000522     -0.000525      0.034822
      6.26215      8.34746     11.68883        -0.009913     -0.008313     -0.014127
      0.00021      2.08740     11.68593        -0.007698      0.007846      0.024763
      6.26448      2.07932     13.75758         0.035581      0.119382      0.428370
      0.00262      0.00262     13.76187         0.041183      0.041176      0.370164
      6.26183      4.17456      7.50000        -0.000354      0.000320     -0.014992
      0.00000      6.26183      7.50000        -0.000286      0.000078     -0.016250
      6.26183      6.26183      9.58728        -0.002501     -0.002497      0.068681
      0.00000      4.17456      9.58728        -0.002978      0.001056      0.049276
      6.25933      4.17727     11.69038        -0.004671      0.004557      0.111460
      8.34746      6.26215     11.68882        -0.008304     -0.009914     -0.014116
      6.27671      6.27671     13.79677        -0.193799     -0.193810      0.150731
      0.00854      4.17245     13.75756        -0.117444     -0.035446      0.429061
      2.08728      0.00000      9.58728        -0.000742      0.001223      0.068833
      4.17456      2.08728      9.58728        -0.000775      0.010889      0.085038
      2.08728      2.08728      7.50000        -0.000005     -0.000009     -0.720442
      4.17456      0.00000      7.50000         0.000097      0.000438     -0.720051
      2.08566      0.00220     13.80893        -0.023483      0.022989      0.178264
      4.17340      2.07899     13.80553        -0.024464      0.098242      0.271412
      2.08732      2.08732     11.67952         0.006259      0.006257      0.011793
      4.17448      8.34756     11.68021         0.007727      0.035312     -0.007230
      2.08728      4.17456      9.58728         0.010899     -0.000767      0.085029
      4.17456      6.26183      9.58728         0.011581     -0.010862      0.084382
      2.08728      6.26183      7.50000        -0.000509      0.000028     -0.720051
      4.17456      4.17456      7.50000        -0.000446     -0.000451     -0.720471
      2.07899      4.17340     13.80553         0.098240     -0.024465      0.271419
      4.16133      6.27610     13.82107         0.174585     -0.177184      0.225333
      2.08937      6.26204     11.68029        -0.036895     -0.006104     -0.008366
      4.17635      4.17635     11.69204        -0.032110     -0.032114     -0.009339
      6.26183      0.00000      9.58728         0.001391     -0.009748      0.084643
      0.00000      2.08728      9.58728         0.001228     -0.000761      0.068826
      6.26183      2.08728      7.50000         0.000026     -0.000497     -0.720055
      0.00000      0.00000      7.50000        -0.000075     -0.000078     -0.720329
      6.26359      0.00930     13.80462         0.025577     -0.102595      0.273920
      0.00220      2.08566     13.80893         0.022980     -0.023494      0.178274
      6.26204      2.08937     11.68029        -0.006114     -0.036902     -0.008351
      0.00039      0.00039     11.67934        -0.007294     -0.007291      0.011843
      6.26183      4.17456      9.58728        -0.010878      0.011579      0.084382
      0.00000      6.26183      9.58728        -0.009752      0.001398      0.084636
      6.26183      6.26183      7.50000         0.000592      0.000590     -0.720348
      0.00000      4.17456      7.50000         0.000437      0.000100     -0.720052
      6.27610      4.16133     13.82107        -0.177183      0.174581      0.225339
      0.00930      6.26359     13.80462        -0.102607      0.025570      0.273920
      6.26040      6.26040     11.69156         0.032361      0.032376     -0.008707
      8.34756      4.17449     11.68021         0.035304      0.007713     -0.007221
 -----------------------------------------------------------------------------------
    total drift:                                0.000020      0.000011     -0.016223


--------------------------------------------------------------------------------------------------------



  FREE ENERGIE OF THE ION-ELECTRON SYSTEM (eV)
  ---------------------------------------------------
  free  energy   TOTEN  =      -227.05081085 eV

  energy  without entropy=     -227.05081085  energy(sigma->0) =     -227.05081085



--------------------------------------------------------------------------------------------------------


    POTLOK:  cpu time      2.4539: real time      2.4542


--------------------------------------------------------------------------------------------------------


     LOOP+:  cpu time    186.4138: real time    186.8707
    4ORBIT:  cpu time      0.0000: real time      0.0000

 total amount of memory used by VASP MPI-rank0    59967. kBytes
=======================================================================

   base      :      30000. kBytes
   nonl-proj :      11522. kBytes
   fftplans  :       4921. kBytes
   grid      :       7379. kBytes
   one-center:         64. kBytes
   wavefun   :       6081. kBytes

  
  
 General timing and accounting informations for this job:
 ========================================================
  
                  Total CPU time used (sec):      223.595
                            User time (sec):      221.068
                          System time (sec):        2.527
                         Elapsed time (sec):      235.802
  
                   Maximum memory used (kb):      267168.
                   Average memory used (kb):          N/A
  
                          Minor page faults:        67570
                          Major page faults:           51
                 Voluntary context switches:        12966
