 **********************************************************************
                          MRCC program system
 **********************************************************************
 
                              Written by
     Mihaly Kallay, Peter R. Nagy, David Mester, Laszlo Gyevi-Nagy,
        Jozsef Csoka, P. Bernat Szabo, Zoltan Rolik, Gyula Samu,
     Jozsef Csontos, Bence Hegely, Adam Ganyecz, Istvan Ladjanszki,
       Lorant Szegedy, Bence Ladoczki, Klara Petrov, Mate Farkas,
                    Pal D. Mezei, and Reka A. Horvath
 
        Department of Physical Chemistry and Materials Science
            Budapest University of Technology and Economics
                  Budapest P.O.Box 91, H-1521 Hungary
 
                              www.mrcc.hu
 
                      Release date: March 18, 2022

 ************************ 2023-02-04 11:47:58 *************************
 Executing minp...

 Reading input from MINP...
 
 Input file:
 
calc=FNO-CCSD(T)
verbosity=3
mem=220GB
unit=angs
scfiguess=small
scfalg=locfit1
ccmaxit=400
ccsdalg=dfdirect
ccsdthreads=4
ccsdmkl=thr
ptthreads=4
lnoepsv=1e-5
naf_cor=1e-2
basis=aug-cc-pVQZ
basis_sm=def2-SVP
dfbasis_scf=def2-QZVPP-RI-JK
dfbasis_cor=aug-cc-pVQZ-RI
unit=angs
geom=xyz
10

C    29.54344629    29.54344629    16.97505516
H    29.54344670    30.44187631    17.60392580
H    29.54344662    28.64496649    17.60393442
H    30.44658454    29.54342777    16.34911135
H    28.64030918    29.54342779    16.34911130
C    46.42541560    29.54344629    16.97505516
H    46.42541600    30.44187631    17.60392580
H    46.42541593    28.64496649    17.60393442
H    47.32855385    29.54342777    16.34911135
H    45.52227849    29.54342779    16.34911130

--------------------Output has been truncated-------------------------


--------------------Output has been truncated-------------------------


--------------------Output has been truncated-------------------------


--------------------Output has been truncated-------------------------


--------------------Output has been truncated-------------------------


--------------------Output has been truncated-------------------------


--------------------Output has been truncated-------------------------


--------------------Output has been truncated-------------------------


--------------------Output has been truncated-------------------------


--------------------Output has been truncated-------------------------


 
 Reference energy [au]:                       -40.215614173211
 DF-MP2 singlet pair energy [au]:              -0.173752856944
 DF-MP2 triplet pair energy [au]:              -0.037498360441
 DF-SCS-MP2 correlation energy [au]:           -0.221002881813
 DF-SCS-MP2 energy [au]:                      -40.436617055024
 DF-SOS-MP2 correlation energy [au]:           -0.225878714027
 DF-SOS-MP2 energy [au]:                      -40.441492887238
 DF-MP2 correlation energy [au]:               -0.211251217385
 DF-MP2 energy [au]:                          -40.426865390595

 Results in FNO basis:
 
 
 Reference energy [au]:                       -40.215614173211
 DF-MP2 singlet pair energy [au]:              -0.170618196049
 DF-MP2 triplet pair energy [au]:              -0.037357058735
 DF-SCS-MP2 correlation energy [au]:           -0.217194188170
 DF-SCS-MP2 energy [au]:                      -40.432808361381
 DF-SOS-MP2 correlation energy [au]:           -0.221803654863
 DF-SOS-MP2 energy [au]:                      -40.437417828074
 DF-MP2 correlation energy [au]:               -0.207975254784
 DF-MP2 energy [au]:                          -40.423589427995

 Results in NAF basis:
 
 
 Reference energy [au]:                       -40.215614173211
 DF-MP2 singlet pair energy [au]:              -0.170600636861
 DF-MP2 triplet pair energy [au]:              -0.037363751509
 DF-SCS-MP2 correlation energy [au]:           -0.217175348069
 DF-SCS-MP2 energy [au]:                      -40.432789521280
 DF-SOS-MP2 correlation energy [au]:           -0.221780827919
 DF-SOS-MP2 energy [au]:                      -40.437395001129
 DF-MP2 correlation energy [au]:               -0.207964388370
 DF-MP2 energy [au]:                          -40.423578561581

 ************************ 2023-02-04 11:48:32 *************************
 Executing ccsd...

 Allocation of 220.0 Gbytes of memory...

 Direct DF-CCSD(T) calculation
 
 Convergence criterion:  1.0E-06
 
 Number of occupied/virtual/auxiliary orbitals:     4   101   320
    163.36 MB is the minimal memory requirement for (T)
     39.40 MB is the minimal memory requirement for CCSD
 
 Reference energy [au]:             -40.215614173211
 T1 contribution [au]:                0.000000000000
 Same spin MP2 energy [au]:          -0.037360400674
 Opposite spin MP2 energy [au]:      -0.170609406663
 MP2 correlation energy [au]:        -0.207969807338
 Total MP2 energy [au]:             -40.423583980548
 MP2 correction [au]:                -0.003281410047
 
 
 CPU time [min]:     0.178                   Wall time [min]:     0.008
 
 Starting CCSD iterations...
 
                     Residual norm          Energy
 Iteration  1        0.138680876699      -40.436528969837
 Iteration  2        0.035376072466      -40.442052522957
 Iteration  3        0.009771738466      -40.442635243499
 Iteration  4        0.002020926806      -40.442639742608
 Iteration  5        0.000374897523      -40.442646253435
 Iteration  6        0.000084797658      -40.442646130191
 Iteration  7        0.000020223469      -40.442646820220
 Iteration  8        0.000003738677      -40.442646877168
 
 CCSD iteration has converged in  8 steps.
      444.29 MB memory was utilized by CCSD
 
 T1 diagnostic:      7.996E-03            D1 diagnostic:      1.292E-02
 
 T1 contribution [au]:                                  0.000000000000
 PPL energy contribution [au]:                          0.060602205331
 Scaled PPL energy contribution [au]:                   0.061558990166

 OS-PPL energy contribution [au]:                       0.053773709469
 Scaled OS-PPL energy contribution [au]:                0.054766757105
 SS-PPL energy contribution [au]:                       0.006828495862
 Scaled SS-PPL energy contribution [au]:                0.006852794534

 Opposite spin CCSD energy [au]:                       -0.191003418114
 Same spin CCSD energy [au]:                           -0.036036035548
 CCSD correlation energy [au]:                         -0.227039453663
 CCSD correlation energy + MP2 correction [au]:        -0.230320863710
 CCSD correlation energy + MP2 + PPL corr. [au]:       -0.229364078874
 Total CCSD energy [au]:                              -40.442653626873
 Total CCSD energy + MP2 correction [au]:             -40.445935036920
 Total CCSD energy + MP2 + PPL corr. [au]:            -40.444978252085
 
 CPU time [min]:     0.875                   Wall time [min]:     0.028
 
 Calculation of (T) correction...
 
 
      124.68 MB memory is utilized for (T)

 0%       25%       50%       75%       100%
 |---------|---------|---------|---------| 
 
 (T) correction [au]:                                    -0.006941734321
 (T*) correction [au]:                                   -0.007051263089
 (T+) correction [au]:                                   -0.007050856070
 CCSD(T) correlation energy [au]:                        -0.233981187984
 CCSD(T) correlation energy + MP2 correction [au]:       -0.237262598031
 CCSD(T+) correlation en. + MP2 + PPL corr. [au]:        -0.236414934944
 Total CCSD(T) energy [au]:                             -40.449595361195
 Total CCSD(T) energy + MP2 correction [au]:            -40.452876771241
 Total CCSD(T+) energy + MP2 + PPL corr. [au]:          -40.452029108155
 
 CPU time [min]:     0.965                   Wall time [min]:     0.030
 
 ************************ 2023-02-04 11:48:33 *************************
                      Normal termination of mrcc.
 **********************************************************************
