 vasp.6.3.0 20Jan22 (build Apr  1 2022 16:44:48) complex                         
 executed on        HPECrayEX_GCC date 2023.01.23  22:12:57
 running  512 mpi-ranks, with    1 threads/rank
 distrk:  each k-point on  512 cores,    1 groups
 distr:  one band on NCORE=   8 cores,   64 groups


--------------------------------------------------------------------------------------------------------


 INCAR:
   SYSTEM = MgO-rocksalt
   ISMEAR = 0
   SIGMA = 0.05
   EDIFF = 1E-8
   ALGO = ALL
   ISTART = 0
   IBRION = 5
   POTIM = 0.01
   NFREE = 2
   ISYM = 0
   DIPOL = 0.5 0.5 0.5
   IDIPOL = 3
   LDIPOL = .TRUE.
   GGA = RE
   IVDW = 13
   VDW_S8 = 1.7468
   VDW_A1 = 0.5363
   VDW_A2 = 3.0726
   ENCUT = 600
   PREC = Accurate
   LASPH = .TRUE.
   LREAL = .FALSE.
   ISPIN = 1
   NELM = 200
   NELMIN = 8
   NCORE = 8
   KPAR = 1
   LWAVE = .FALSE.
   LCHARG = .FALSE.

 POTCAR:    PAW_PBE H 15Jun2001                   
 POTCAR:    PAW_PBE O 08Apr2002                   
 POTCAR:    PAW_PBE Mg_pv 13Apr2007               
 POTCAR:    PAW_PBE O 08Apr2002                   
 POTCAR:    PAW_PBE H 15Jun2001                   
   SHA256 =  030f79b5d3ab3cf0e668861823c8fb652ff669f3e15e46930bd03bfd63a607b6 H/POTCAR              
   COPYR  = (c) Copyright 15Jun2001 Georg Kresse                                                    
   COPYR  = This file is part of the software VASP. Any use, copying, and all other rights are regul
   COPYR  = If you do not have a valid VASP license, you may not use, copy or distribute this file. 
   VRHFIN =H: ultrasoft test                                                                        
   LEXCH  = PE                                                                                      
   EATOM  =    12.4884 eV,    0.9179 Ry                                                             
                                                                                                    
   TITEL  = PAW_PBE H 15Jun2001                                                                     
   LULTRA =        F    use ultrasoft PP ?                                                          
   IUNSCR =        0    unscreen: 0-lin 1-nonlin 2-no                                               
   RPACOR =    0.000    partial core radius                                                         
   POMASS =    1.000; ZVAL   =    1.000    mass and valenz                                          
   RCORE  =    1.100    outmost cutoff radius                                                       
   RWIGS  =    0.700; RWIGS  =    0.370    wigner-seitz radius (au A)                               
   ENMAX  =  250.000; ENMIN  =  200.000 eV                                                          
   RCLOC  =    0.701    cutoff for local pot                                                        
   LCOR   =        T    correct aug charges                                                         
   LPAW   =        T    paw PP                                                                      
   EAUG   =  400.000                                                                                
   RMAX   =    1.123    core radius for proj-oper                                                   
   RAUG   =    1.200    factor for augmentation sphere                                              
   RDEP   =    1.112    radius for radial grids                                                     
   RDEPT  =    0.926    core radius for aug-charge                                                  
                                                                                                    
   Atomic configuration                                                                             
    2 entries                                                                                       
     n  l   j            E        occ.                                                              
     1  0  0.50        -6.4927   1.0000                                                             
     2  1  0.50        -3.4015   0.0000                                                             
   Description                                                                                      
     l       E           TYP  RCUT    TYP  RCUT                                                     
     0     -6.4927494     23  1.100                                                                 
     0      6.8029130     23  1.100                                                                 
     1     -4.0817478     23  1.100                                                                 
  local pseudopotential read in
  atomic valenz-charges read in
  non local Contribution for L=           0  read in
    real space projection operators read in
  non local Contribution for L=           0  read in
    real space projection operators read in
  non local Contribution for L=           1  read in
    real space projection operators read in
    PAW grid and wavefunctions read in

   number of l-projection  operators is LMAX  =           3
   number of lm-projection operators is LMMAX =           5

 POTCAR:    PAW_PBE O 08Apr2002                   
   SHA256 =  818f92134a0a090dccd8ba1447fa70422a3b330e708bb4f08108d8ae51209ddf O/POTCAR              
   COPYR  = (c) Copyright 08Apr2002 Georg Kresse                                                    
   COPYR  = This file is part of the software VASP. Any use, copying, and all other rights are regul
   COPYR  = If you do not have a valid VASP license, you may not use, copy or distribute this file. 
   VRHFIN =O: s2p4                                                                                  
   LEXCH  = PE                                                                                      
   EATOM  =   432.3788 eV,   31.7789 Ry                                                             
                                                                                                    
   TITEL  = PAW_PBE O 08Apr2002                                                                     
   LULTRA =        F    use ultrasoft PP ?                                                          
   IUNSCR =        1    unscreen: 0-lin 1-nonlin 2-no                                               
   RPACOR =    1.200    partial core radius                                                         
   POMASS =   16.000; ZVAL   =    6.000    mass and valenz                                          
   RCORE  =    1.520    outmost cutoff radius                                                       
   RWIGS  =    1.550; RWIGS  =    0.820    wigner-seitz radius (au A)                               
   ENMAX  =  400.000; ENMIN  =  300.000 eV                                                          
   ICORE  =        2    local potential                                                             
   LCOR   =        T    correct aug charges                                                         
   LPAW   =        T    paw PP                                                                      
   EAUG   =  605.392                                                                                
   DEXC   =    0.000                                                                                
   RMAX   =    1.553    core radius for proj-oper                                                   
   RAUG   =    1.300    factor for augmentation sphere                                              
   RDEP   =    1.550    radius for radial grids                                                     
   RDEPT  =    1.329    core radius for aug-charge                                                  
                                                                                                    
   Atomic configuration                                                                             
    4 entries                                                                                       
     n  l   j            E        occ.                                                              
     1  0  0.50      -514.6923   2.0000                                                             
     2  0  0.50       -23.9615   2.0000                                                             
     2  1  0.50        -9.0305   4.0000                                                             
     3  2  1.50        -9.5241   0.0000                                                             
   Description                                                                                      
     l       E           TYP  RCUT    TYP  RCUT                                                     
     0    -23.9615318     23  1.200                                                                 
     0     -9.5240782     23  1.200                                                                 
     1     -9.0304911     23  1.520                                                                 
     1      8.1634956     23  1.520                                                                 
     2     -9.5240782      7  1.500                                                                 
  local pseudopotential read in
  partial core-charges read in
  partial kinetic energy density read in
  kinetic energy density of atom read in
  atomic valenz-charges read in
  non local Contribution for L=           0  read in
    real space projection operators read in
  non local Contribution for L=           0  read in
    real space projection operators read in
  non local Contribution for L=           1  read in
    real space projection operators read in
  non local Contribution for L=           1  read in
    real space projection operators read in
    PAW grid and wavefunctions read in

   number of l-projection  operators is LMAX  =           4
   number of lm-projection operators is LMMAX =           8

 POTCAR:    PAW_PBE Mg_pv 13Apr2007               
   SHA256 =  f474ac0dd33840b9ae76c01d57fea79fdf77cdfbb07d5ade72c65f83c709b62b Mg_pv/POTCAR          
   COPYR  = (c) Copyright 13Apr2007 Georg Kresse                                                    
   COPYR  = This file is part of the software VASP. Any use, copying, and all other rights are regul
   COPYR  = If you do not have a valid VASP license, you may not use, copy or distribute this file. 
   VRHFIN =Mg: p6s2                                                                                 
   LEXCH  = PE                                                                                      
   EATOM  =  1056.7344 eV,   77.6678 Ry                                                             
                                                                                                    
   TITEL  = PAW_PBE Mg_pv 13Apr2007                                                                 
   LULTRA =        F    use ultrasoft PP ?                                                          
   IUNSCR =        1    unscreen: 0-lin 1-nonlin 2-no                                               
   RPACOR =    1.500    partial core radius                                                         
   POMASS =   24.305; ZVAL   =    8.000    mass and valenz                                          
   RCORE  =    2.000    outmost cutoff radius                                                       
   RWIGS  =    2.000; RWIGS  =    1.058    wigner-seitz radius (au A)                               
   ENMAX  =  403.929; ENMIN  =  302.947 eV                                                          
   RCLOC  =    1.506    cutoff for local pot                                                        
   LCOR   =        T    correct aug charges                                                         
   LPAW   =        T    paw PP                                                                      
   EAUG   =  758.780                                                                                
   DEXC   =    0.000                                                                                
   RMAX   =    2.045    core radius for proj-oper                                                   
   RAUG   =    1.300    factor for augmentation sphere                                              
   RDEP   =    2.025    radius for radial grids                                                     
   RDEPT  =    1.557    core radius for aug-charge                                                  
                                                                                                    
   Atomic configuration                                                                             
    5 entries                                                                                       
     n  l   j            E        occ.                                                              
     1  0  0.50     -1259.6230   2.0000                                                             
     2  0  0.50       -79.8442   2.0000                                                             
     2  1  1.50       -46.6121   6.0000                                                             
     3  0  0.50        -4.7055   2.0000                                                             
     3  2  1.50        -1.3606   0.0000                                                             
   Description                                                                                      
     l       E           TYP  RCUT    TYP  RCUT                                                     
     1    -46.6121073     23  1.600                                                                 
     1      2.7211652     23  1.600                                                                 
     0     -4.7054661     23  2.000                                                                 
     0     61.2262170     23  2.000                                                                 
     2     -1.3605826     23  2.000                                                                 
  local pseudopotential read in
  partial core-charges read in
  partial kinetic energy density read in
  atomic valenz-charges read in
  non local Contribution for L=           1  read in
    real space projection operators read in
  non local Contribution for L=           1  read in
    real space projection operators read in
  non local Contribution for L=           0  read in
    real space projection operators read in
  non local Contribution for L=           0  read in
    real space projection operators read in
  non local Contribution for L=           2  read in
    real space projection operators read in
    PAW grid and wavefunctions read in

   number of l-projection  operators is LMAX  =           5
   number of lm-projection operators is LMMAX =          13

 POTCAR:    PAW_PBE O 08Apr2002                   
   SHA256 =  818f92134a0a090dccd8ba1447fa70422a3b330e708bb4f08108d8ae51209ddf O/POTCAR              
   COPYR  = (c) Copyright 08Apr2002 Georg Kresse                                                    
   COPYR  = This file is part of the software VASP. Any use, copying, and all other rights are regul
   COPYR  = If you do not have a valid VASP license, you may not use, copy or distribute this file. 
   VRHFIN =O: s2p4                                                                                  
   LEXCH  = PE                                                                                      
   EATOM  =   432.3788 eV,   31.7789 Ry                                                             
                                                                                                    
   TITEL  = PAW_PBE O 08Apr2002                                                                     
   LULTRA =        F    use ultrasoft PP ?                                                          
   IUNSCR =        1    unscreen: 0-lin 1-nonlin 2-no                                               
   RPACOR =    1.200    partial core radius                                                         
   POMASS =   16.000; ZVAL   =    6.000    mass and valenz                                          
   RCORE  =    1.520    outmost cutoff radius                                                       
   RWIGS  =    1.550; RWIGS  =    0.820    wigner-seitz radius (au A)                               
   ENMAX  =  400.000; ENMIN  =  300.000 eV                                                          
   ICORE  =        2    local potential                                                             
   LCOR   =        T    correct aug charges                                                         
   LPAW   =        T    paw PP                                                                      
   EAUG   =  605.392                                                                                
   DEXC   =    0.000                                                                                
   RMAX   =    1.553    core radius for proj-oper                                                   
   RAUG   =    1.300    factor for augmentation sphere                                              
   RDEP   =    1.550    radius for radial grids                                                     
   RDEPT  =    1.329    core radius for aug-charge                                                  
                                                                                                    
   Atomic configuration                                                                             
    4 entries                                                                                       
     n  l   j            E        occ.                                                              
     1  0  0.50      -514.6923   2.0000                                                             
     2  0  0.50       -23.9615   2.0000                                                             
     2  1  0.50        -9.0305   4.0000                                                             
     3  2  1.50        -9.5241   0.0000                                                             
   Description                                                                                      
     l       E           TYP  RCUT    TYP  RCUT                                                     
     0    -23.9615318     23  1.200                                                                 
     0     -9.5240782     23  1.200                                                                 
     1     -9.0304911     23  1.520                                                                 
     1      8.1634956     23  1.520                                                                 
     2     -9.5240782      7  1.500                                                                 
  local pseudopotential read in
  partial core-charges read in
  partial kinetic energy density read in
  kinetic energy density of atom read in
  atomic valenz-charges read in
  non local Contribution for L=           0  read in
    real space projection operators read in
  non local Contribution for L=           0  read in
    real space projection operators read in
  non local Contribution for L=           1  read in
    real space projection operators read in
  non local Contribution for L=           1  read in
    real space projection operators read in
    PAW grid and wavefunctions read in

   number of l-projection  operators is LMAX  =           4
   number of lm-projection operators is LMMAX =           8

 -----------------------------------------------------------------------------
|                                                                             |
|               ----> ADVICE to this user running VASP <----                  |
|                                                                             |
|     You have a (more or less) 'large supercell' and for larger cells it     |
|     might be more efficient to use real-space projection operators.         |
|     Therefore, try LREAL= Auto in the INCAR file.                           |
|     Mind: For very accurate calculation, you might also keep the            |
|     reciprocal projection scheme (i.e. LREAL=.FALSE.).                      |
|                                                                             |
 -----------------------------------------------------------------------------

 -----------------------------------------------------------------------------
|                                                                             |
|               ----> ADVICE to this user running VASP <----                  |
|                                                                             |
|     You enforced a specific xc type in the INCAR file but a different       |
|     type was found in the POTCAR file.                                      |
|     I HOPE YOU KNOW WHAT YOU ARE DOING!                                     |
|                                                                             |
 -----------------------------------------------------------------------------

  PAW_PBE H 15Jun2001                   :
 energy of atom  1       EATOM=  -12.4884
 kinetic energy error for atom=    0.0004 (will be added to EATOM!!)
  PAW_PBE O 08Apr2002                   :
 energy of atom  2       EATOM= -432.3788
 kinetic energy error for atom=    0.0168 (will be added to EATOM!!)
  PAW_PBE Mg_pv 13Apr2007               :
 energy of atom  3       EATOM=-1056.7344
 kinetic energy error for atom=    0.0221 (will be added to EATOM!!)
  PAW_PBE O 08Apr2002                   :
 energy of atom  4       EATOM= -432.3788
 kinetic energy error for atom=    0.0168 (will be added to EATOM!!)


 POSCAR:  H  O Mg  O
  positions in direct lattice
  No initial velocities read in
 -----------------------------------------------------------------------------
|                                                                             |
|           W    W    AA    RRRRR   N    N  II  N    N   GGGG   !!!           |
|           W    W   A  A   R    R  NN   N  II  NN   N  G    G  !!!           |
|           W    W  A    A  R    R  N N  N  II  N N  N  G       !!!           |
|           W WW W  AAAAAA  RRRRR   N  N N  II  N  N N  G  GGG   !            |
|           WW  WW  A    A  R   R   N   NN  II  N   NN  G    G                |
|           W    W  A    A  R    R  N    N  II  N    N   GGGG   !!!           |
|                                                                             |
|     Specifying the vdW parameters                                           |
|     VDW_S8 = 1.747                                                          |
|     VDW_A1 = 0.536                                                          |
|     VDW_A2 = 3.073                                                          |
|     in the INCAR file will overwrite the defaults for revpbe. Please        |
|     make sure that is what you intended.                                    |
|                                                                             |
 -----------------------------------------------------------------------------

 exchange correlation table for  LEXCH =       40
   RHO(1)=    0.500       N(1)  =     2000
   RHO(2)=  100.500       N(2)  =     4000



--------------------------------------------------------------------------------------------------------


 ion  position               nearest neighbor table
   1  0.617  0.554  0.767-   3 0.97
   2  0.510  0.673  0.728-   3 1.01
   3  0.508  0.572  0.754-   1 0.97   2 1.01  34 2.25
   4  0.000  0.750  0.352-  36 2.11  38 2.11  39 2.11  46 2.11  55 2.11
   5  0.250  0.000  0.352-  37 2.11  38 2.11  39 2.11  47 2.11  54 2.11
   6  0.000  0.000  0.451-  38 2.11  37 2.11  36 2.11  44 2.11  53 2.11  42 2.11
   7  0.250  0.750  0.451-  39 2.11  37 2.11  36 2.11  45 2.11  52 2.11  43 2.12
   8  0.000  0.750  0.550-  50 2.11  42 2.11  43 2.11  36 2.12  59 2.12  40 2.15
   9  0.250  0.000  0.550-  51 2.11  43 2.11  58 2.11  42 2.11  37 2.12  41 2.15
  10  0.000  0.000  0.649-  48 2.10  41 2.10  57 2.11  42 2.11  40 2.11
  11  0.248  0.750  0.648-  40 2.09  43 2.10  49 2.11  41 2.11  56 2.13
  12  0.000  0.250  0.352-  44 2.11  38 2.11  46 2.11  47 2.11  63 2.11
  13  0.250  0.500  0.352-  45 2.11  39 2.11  46 2.11  47 2.11  62 2.11
  14  0.000  0.500  0.451-  46 2.11  44 2.11  45 2.11  36 2.11  61 2.11  50 2.11
  15  0.250  0.250  0.451-  47 2.11  44 2.11  45 2.11  37 2.11  60 2.11  51 2.12
  16  0.000  0.250  0.550-  51 2.11  50 2.11  67 2.11  42 2.11  44 2.12  48 2.15
  17  0.251  0.500  0.550-  66 2.11  51 2.11  43 2.11  49 2.12  50 2.12  45 2.13
  18  0.000  0.500  0.648-  49 2.09  65 2.10  50 2.11  48 2.11  40 2.12
  19  0.249  0.250  0.649-  48 2.10  41 2.11  51 2.11  49 2.11  64 2.12
  20  0.500  0.750  0.352-  52 2.11  39 2.11  54 2.11  55 2.11  62 2.11
  21  0.750  0.000  0.352-  53 2.11  38 2.11  54 2.11  55 2.11  63 2.11
  22  0.500  0.000  0.451-  54 2.11  52 2.11  53 2.11  37 2.11  60 2.11  58 2.12
  23  0.750  0.750  0.451-  55 2.11  52 2.11  53 2.11  36 2.11  61 2.11  59 2.12
  24  0.500  0.749  0.550-  66 2.10  43 2.10  59 2.11  58 2.11  52 2.13  56 2.20
  25  0.750  0.000  0.550-  67 2.11  58 2.11  42 2.11  59 2.11  53 2.12  57 2.15
  26  0.500  0.002  0.649-  64 2.07  56 2.09  58 2.11  41 2.11  57 2.12
  27  0.752  0.751  0.648-  59 2.08  40 2.09  57 2.10  65 2.11  56 2.13
  28  0.500  0.250  0.352-  60 2.11  54 2.11  47 2.11  62 2.11  63 2.11
  29  0.750  0.500  0.352-  61 2.11  55 2.11  46 2.11  62 2.11  63 2.11
  30  0.500  0.500  0.451-  62 2.11  52 2.11  60 2.11  61 2.11  45 2.11  66 2.14
  31  0.750  0.250  0.451-  63 2.11  53 2.11  60 2.11  61 2.11  44 2.11  67 2.12
  32  0.500  0.251  0.550-  51 2.11  66 2.11  67 2.11  58 2.12  60 2.13  64 2.14
  33  0.749  0.500  0.550-  66 2.10  67 2.11  59 2.11  50 2.12  61 2.13  65 2.15
  34  0.498  0.494  0.653-  64 2.08  49 2.11  65 2.14  66 2.19  56 2.20   3 2.25
  35  0.751  0.250  0.648-  48 2.10  67 2.10  57 2.11  64 2.12  65 2.12
  36  0.000  0.750  0.451-   4 2.11   6 2.11   7 2.11  14 2.11  23 2.11   8 2.12
  37  0.250  0.000  0.451-   5 2.11   6 2.11   7 2.11  15 2.11  22 2.11   9 2.12
  38  0.000  0.000  0.352-   6 2.11   5 2.11   4 2.11  12 2.11  21 2.11
  39  0.250  0.750  0.352-   7 2.11   5 2.11   4 2.11  13 2.11  20 2.11
  40  1.000  0.750  0.651-  27 2.09  11 2.09  10 2.11  18 2.12   8 2.15
  41  0.249  1.000  0.651-  10 2.10  19 2.11  11 2.11  26 2.11   9 2.15
  42  1.000  1.000  0.550-  10 2.11   8 2.11  25 2.11   9 2.11  16 2.11   6 2.11
  43  0.251  0.750  0.550-  11 2.10  24 2.10   9 2.11   8 2.11  17 2.11   7 2.12
  44  0.000  0.250  0.451-  12 2.11   6 2.11  14 2.11  15 2.11  31 2.11  16 2.12
  45  0.250  0.500  0.451-  13 2.11   7 2.11  14 2.11  15 2.11  30 2.11  17 2.13
  46  0.000  0.500  0.352-  14 2.11  12 2.11  13 2.11   4 2.11  29 2.11
  47  0.250  0.250  0.352-  15 2.11  12 2.11  13 2.11   5 2.11  28 2.11
  48  1.000  0.250  0.651-  35 2.10  10 2.10  19 2.10  18 2.11  16 2.15
  49  0.248  0.500  0.650-  18 2.09  11 2.11  34 2.11  19 2.11  17 2.12
  50  1.000  0.500  0.550-   8 2.11  18 2.11  16 2.11  14 2.11  33 2.12  17 2.12
  51  0.250  0.250  0.550-   9 2.11  32 2.11  16 2.11  17 2.11  19 2.11  15 2.12
  52  0.500  0.750  0.451-  20 2.11   7 2.11  22 2.11  23 2.11  30 2.11  24 2.13
  53  0.750  0.000  0.451-  21 2.11   6 2.11  22 2.11  23 2.11  31 2.11  25 2.12
  54  0.500  0.000  0.352-  22 2.11  20 2.11  21 2.11   5 2.11  28 2.11
  55  0.750  0.750  0.352-  23 2.11  20 2.11  21 2.11   4 2.11  29 2.11
  56  0.500  0.754  0.653-  26 2.09  11 2.13  27 2.13  24 2.20  34 2.20
  57  0.750  1.000  0.651-  27 2.10  10 2.11  35 2.11  26 2.12  25 2.15
  58  0.500  0.999  0.550-  26 2.11  25 2.11   9 2.11  24 2.11  22 2.12  32 2.12
  59  0.749  0.750  0.550-  27 2.08  24 2.11  25 2.11  33 2.11   8 2.12  23 2.12
  60  0.500  0.250  0.451-  28 2.11  22 2.11  15 2.11  30 2.11  31 2.11  32 2.13
  61  0.750  0.500  0.451-  29 2.11  23 2.11  14 2.11  30 2.11  31 2.11  33 2.13
  62  0.500  0.500  0.352-  30 2.11  20 2.11  28 2.11  29 2.11  13 2.11
  63  0.750  0.250  0.352-  31 2.11  21 2.11  28 2.11  29 2.11  12 2.11
  64  0.500  0.248  0.651-  26 2.07  34 2.08  35 2.12  19 2.12  32 2.14
  65  0.752  0.500  0.651-  18 2.10  27 2.11  35 2.12  34 2.14  33 2.15
  66  0.500  0.500  0.551-  24 2.10  33 2.10  17 2.11  32 2.11  30 2.14  34 2.19
  67  0.750  0.250  0.550-  35 2.10  25 2.11  33 2.11  32 2.11  16 2.11  31 2.12


IMPORTANT INFORMATION: All symmetrisations will be switched off!
NOSYMM: (Re-)initialisation of all symmetry stuff for point group C_1.


----------------------------------------------------------------------------------------

                                     Primitive cell                                     

  volume of cell :    1519.8199

  direct lattice vectors                    reciprocal lattice vectors
     8.440984654  0.000000000  0.000000000     0.118469591  0.000000000  0.000000000
     0.000000000  8.440984654  0.000000000     0.000000000  0.118469591  0.000000000
     0.000000000  0.000000000 21.330738491     0.000000000  0.000000000  0.046880702

  length of vectors
     8.440984654  8.440984654 21.330738491     0.118469591  0.118469591  0.046880702

  position of ions in fractional coordinates (direct lattice)
     0.616747350  0.554373542  0.766913467
     0.509929304  0.672789327  0.728458732
     0.507505033  0.572133215  0.754100542
     0.000000000  0.750000000  0.351605267
     0.250000000  0.000000000  0.351605267
     0.000000000  0.000000000  0.450535089
     0.250000000  0.750000000  0.450535089
     0.000207284  0.749768794  0.549791295
     0.250042949  0.000125680  0.550039895
     0.000073806  0.000410042  0.648595353
     0.247683155  0.749917871  0.648435248
     0.000000000  0.250000000  0.351605267
     0.250000000  0.500000000  0.351605267
     0.000000000  0.500000000  0.450535089
     0.250000000  0.250000000  0.450535089
     0.000031262  0.250140480  0.549909578
     0.250686002  0.499742672  0.550400910
     0.000425668  0.499513881  0.648371969
     0.248982972  0.249855834  0.648744198
     0.500000000  0.750000000  0.351605267
     0.750000000  0.000000000  0.351605267
     0.500000000  0.000000000  0.450535089
     0.750000000  0.750000000  0.450535089
     0.499726028  0.748980267  0.550355635
     0.749777797  0.000284338  0.549933824
     0.499677098  0.001992687  0.648655524
     0.752464721  0.750671887  0.647526815
     0.500000000  0.250000000  0.351605267
     0.750000000  0.500000000  0.351605267
     0.500000000  0.500000000  0.450535089
     0.750000000  0.250000000  0.450535089
     0.499781674  0.250547524  0.550270665
     0.749015091  0.499678732  0.550464135
     0.498120585  0.493518517  0.653381840
     0.750669226  0.249556903  0.648459532
     0.000000000  0.750000000  0.450535089
     0.250000000  0.000000000  0.450535089
     0.000000000  0.000000000  0.351605267
     0.250000000  0.750000000  0.351605267
     0.999772439  0.750337934  0.650565869
     0.249261806  0.999887658  0.650737238
     0.999830501  0.999774756  0.549663713
     0.250559146  0.750233236  0.549968787
     0.000000000  0.250000000  0.450535089
     0.250000000  0.500000000  0.450535089
     0.000000000  0.500000000  0.351605267
     0.250000000  0.250000000  0.351605267
     0.999743677  0.249577840  0.650728320
     0.248180911  0.500092169  0.649707399
     0.999581945  0.500107963  0.549555474
     0.249909182  0.249616938  0.549731899
     0.500000000  0.750000000  0.450535089
     0.750000000  0.000000000  0.450535089
     0.500000000  0.000000000  0.351605267
     0.750000000  0.750000000  0.351605267
     0.500123741  0.754388696  0.653283345
     0.750494219  0.999865950  0.650705881
     0.499995285  0.999294473  0.549889090
     0.749328569  0.750031466  0.549907032
     0.500000000  0.250000000  0.450535089
     0.750000000  0.500000000  0.450535089
     0.500000000  0.500000000  0.351605267
     0.750000000  0.250000000  0.351605267
     0.500015049  0.247731826  0.650515981
     0.751682008  0.500293977  0.651056757
     0.500150597  0.500452340  0.550757543
     0.749901199  0.249887127  0.549801611

  ion indices of the primitive-cell ions
   primitive index   ion index
                 1           1
                 2           2
                 3           3
                 4           4
                 5           5
                 6           6
                 7           7
                 8           8
                 9           9
                10          10
                11          11
                12          12
                13          13
                14          14
                15          15
                16          16
                17          17
                18          18
                19          19
                20          20
                21          21
                22          22
                23          23
                24          24
                25          25
                26          26
                27          27
                28          28
                29          29
                30          30
                31          31
                32          32
                33          33
                34          34
                35          35
                36          36
                37          37
                38          38
                39          39
                40          40
                41          41
                42          42
                43          43
                44          44
                45          45
                46          46
                47          47
                48          48
                49          49
                50          50
                51          51
                52          52
                53          53
                54          54
                55          55
                56          56
                57          57
                58          58
                59          59
                60          60
                61          61
                62          62
                63          63
                64          64
                65          65
                66          66
                67          67

----------------------------------------------------------------------------------------



 KPOINTS: pymatgen v2020.8.13 with grid density = 

Automatic generation of k-mesh.
 Grid dimensions read from file:
 generate k-points for:    2    2    1

 Generating k-lattice:

  Cartesian coordinates                     Fractional coordinates (reciprocal lattice)
     0.059234796  0.000000000  0.000000000     0.500000000  0.000000000  0.000000000
     0.000000000  0.059234796  0.000000000     0.000000000  0.500000000  0.000000000
     0.000000000  0.000000000  0.046880702     0.000000000  0.000000000  1.000000000

  Length of vectors
     0.059234796  0.059234796  0.046880702

  Shift w.r.t. Gamma in fractional coordinates (k-lattice)
     0.000000000  0.000000000  0.000000000

 
 Subroutine IBZKPT returns following result:
 ===========================================
 
 Found      4 irreducible k-points:
 
 Following reciprocal coordinates:
            Coordinates               Weight
  0.000000  0.000000  0.000000      1.000000
  0.500000  0.000000  0.000000      1.000000
  0.000000  0.500000  0.000000      1.000000
  0.500000  0.500000  0.000000      1.000000
 
 Following cartesian coordinates:
            Coordinates               Weight
  0.000000  0.000000  0.000000      1.000000
  0.059235  0.000000  0.000000      1.000000
  0.000000  0.059235  0.000000      1.000000
  0.059235  0.059235  0.000000      1.000000
 
 
 Subroutine IBZKPT_HF returns following result:
 ==============================================
 
 Found      4 k-points in 1st BZ
 the following      4 k-points will be used (e.g. in the exchange kernel)
 Following reciprocal coordinates:   # in IRBZ
  0.000000  0.000000  0.000000    0.25000000   1 t-inv F
  0.500000  0.000000  0.000000    0.25000000   2 t-inv F
  0.000000  0.500000  0.000000    0.25000000   3 t-inv F
  0.500000  0.500000  0.000000    0.25000000   4 t-inv F


--------------------------------------------------------------------------------------------------------




 Dimension of arrays:
   k-points           NKPTS =      4   k-points in BZ     NKDIM =      4   number of bands    NBANDS=    320
   number of dos      NEDOS =    301   number of ions     NIONS =     67
   non local maximal  LDIM  =      5   non local SUM 2l+1 LMDIM =     13
   total plane-waves  NPLWV = 882000
   max r-space proj   IRMAX =      1   max aug-charges    IRDMAX=  11635
   dimension x,y,z NGX =    70 NGY =   70 NGZ =  180
   dimension x,y,z NGXF=   140 NGYF=  140 NGZF=  360
   support grid    NGXF=   140 NGYF=  140 NGZF=  360
   ions per type =               2   1  32  32
   NGX,Y,Z   is equivalent  to a cutoff of  13.79, 13.79, 14.03 a.u.
   NGXF,Y,Z  is equivalent  to a cutoff of  27.57, 27.57, 28.06 a.u.

 SYSTEM =  MgO-rocksalt                            
 POSCAR =   H  O Mg  O                             

--------------------------------------------------------------------------------------------------------


  energy-cutoff  :      600.00
  volume of cell :     1519.82
      direct lattice vectors                 reciprocal lattice vectors
     8.440984654  0.000000000  0.000000000     0.118469591  0.000000000  0.000000000
     0.000000000  8.440984654  0.000000000     0.000000000  0.118469591  0.000000000
     0.000000000  0.000000000 21.330738491     0.000000000  0.000000000  0.046880702

  length of vectors
     8.440984654  8.440984654 21.330738491     0.118469591  0.118469591  0.046880702



 k-points in units of 2pi/SCALE and weight: pymatgen v2020.8.13 with grid density = 
   0.00000000  0.00000000  0.00000000       0.250
   0.05923480  0.00000000  0.00000000       0.250
   0.00000000  0.05923480  0.00000000       0.250
   0.05923480  0.05923480  0.00000000       0.250

 k-points in reciprocal lattice and weights: pymatgen v2020.8.13 with grid density = 
   0.00000000  0.00000000  0.00000000       0.250
   0.50000000  0.00000000  0.00000000       0.250
   0.00000000  0.50000000  0.00000000       0.250
   0.50000000  0.50000000  0.00000000       0.250

 position of ions in fractional coordinates (direct lattice) 
   0.61674735  0.55437354  0.76691347
   0.50992930  0.67278933  0.72845873
   0.50750503  0.57213321  0.75410054
   0.00000000  0.75000000  0.35160527
   0.25000000  0.00000000  0.35160527
   0.00000000  0.00000000  0.45053509
   0.25000000  0.75000000  0.45053509
   0.00020728  0.74976879  0.54979129
   0.25004295  0.00012568  0.55003989
   0.00007381  0.00041004  0.64859535
   0.24768316  0.74991787  0.64843525
   0.00000000  0.25000000  0.35160527
   0.25000000  0.50000000  0.35160527
   0.00000000  0.50000000  0.45053509
   0.25000000  0.25000000  0.45053509
   0.00003126  0.25014048  0.54990958
   0.25068600  0.49974267  0.55040091
   0.00042567  0.49951388  0.64837197
   0.24898297  0.24985583  0.64874420
   0.50000000  0.75000000  0.35160527
   0.75000000  0.00000000  0.35160527
   0.50000000  0.00000000  0.45053509
   0.75000000  0.75000000  0.45053509
   0.49972603  0.74898027  0.55035563
   0.74977780  0.00028434  0.54993382
   0.49967710  0.00199269  0.64865552
   0.75246472  0.75067189  0.64752682
   0.50000000  0.25000000  0.35160527
   0.75000000  0.50000000  0.35160527
   0.50000000  0.50000000  0.45053509
   0.75000000  0.25000000  0.45053509
   0.49978167  0.25054752  0.55027066
   0.74901509  0.49967873  0.55046413
   0.49812059  0.49351852  0.65338184
   0.75066923  0.24955690  0.64845953
   0.00000000  0.75000000  0.45053509
   0.25000000  0.00000000  0.45053509
   0.00000000  0.00000000  0.35160527
   0.25000000  0.75000000  0.35160527
   0.99977244  0.75033793  0.65056587
   0.24926181  0.99988766  0.65073724
   0.99983050  0.99977476  0.54966371
   0.25055915  0.75023324  0.54996879
   0.00000000  0.25000000  0.45053509
   0.25000000  0.50000000  0.45053509
   0.00000000  0.50000000  0.35160527
   0.25000000  0.25000000  0.35160527
   0.99974368  0.24957784  0.65072832
   0.24818091  0.50009217  0.64970740
   0.99958195  0.50010796  0.54955547
   0.24990918  0.24961694  0.54973190
   0.50000000  0.75000000  0.45053509
   0.75000000  0.00000000  0.45053509
   0.50000000  0.00000000  0.35160527
   0.75000000  0.75000000  0.35160527
   0.50012374  0.75438870  0.65328335
   0.75049422  0.99986595  0.65070588
   0.49999529  0.99929447  0.54988909
   0.74932857  0.75003147  0.54990703
   0.50000000  0.25000000  0.45053509
   0.75000000  0.50000000  0.45053509
   0.50000000  0.50000000  0.35160527
   0.75000000  0.25000000  0.35160527
   0.50001505  0.24773183  0.65051598
   0.75168201  0.50029398  0.65105676
   0.50015060  0.50045234  0.55075754
   0.74990120  0.24988713  0.54980161

 position of ions in cartesian coordinates  (Angst):
   5.20595492  4.67945856 16.35883060
   4.30430543  5.67900439 15.53856272
   4.28384219  4.82936768 16.08552147
   0.00000000  6.33073849  7.50000000
   2.11024616  0.00000000  7.50000000
   0.00000000  0.00000000  9.61024616
   2.11024616  6.33073849  9.61024616
   0.00174968  6.32878688 11.72745433
   2.11060869  0.00106086 11.73275716
   0.00062299  0.00346116 13.83501786
   2.09068971  6.33004524 13.83160269
   0.00000000  2.11024616  7.50000000
   2.11024616  4.22049233  7.50000000
   0.00000000  4.22049233  9.61024616
   2.11024616  2.11024616  9.61024616
   0.00026388  2.11143195 11.72997741
   2.11603670  4.21832022 11.74045787
   0.00359306  4.21638900 13.83025292
   2.10166144  2.10902926 13.83819283
   4.22049233  6.33073849  7.50000000
   6.33073849  0.00000000  7.50000000
   4.22049233  0.00000000  9.61024616
   6.33073849  6.33073849  9.61024616
   4.21817974  6.32213094 11.73949212
   6.32886287  0.00240009 11.73049459
   4.21776672  0.01682024 13.83630135
   6.35154316  6.33640988 13.81222516
   4.22049233  2.11024616  7.50000000
   6.33073849  4.22049233  7.50000000
   4.22049233  4.22049233  9.61024616
   6.33073849  2.11024616  9.61024616
   4.21864944  2.11486781 11.73767965
   6.32242489  4.21778051 11.74180651
   4.20462822  4.16578223 13.93711716
   6.33638741  2.10650599 13.83212070
   0.00000000  6.33073849  9.61024616
   2.11024616  0.00000000  9.61024616
   0.00000000  0.00000000  7.50000000
   2.11024616  6.33073849  7.50000000
   8.43906381  6.33359099 13.87705043
   2.10401508  8.44003638 13.88070586
   8.43955392  8.43908338 11.72473292
   2.11496591  6.33270723 11.73124038
   0.00000000  2.11024616  9.61024616
   2.11024616  4.22049233  9.61024616
   0.00000000  4.22049233  7.50000000
   2.11024616  2.11024616  7.50000000
   8.43882104  2.10668272 13.88051562
   2.09489126  4.22127032 13.85873863
   8.43745586  4.22140364 11.72242410
   2.10947957  2.10701274 11.72618737
   4.22049233  6.33073849  9.61024616
   6.33073849  0.00000000  9.61024616
   4.22049233  0.00000000  7.50000000
   6.33073849  6.33073849  7.50000000
   4.22153682  6.36778340 13.93501619
   6.33491019  8.43985314 13.88003698
   4.22045253  8.43502931 11.72954038
   6.32507095  6.33100409 11.72992309
   4.22049233  2.11024616  9.61024616
   6.33073849  4.22049233  9.61024616
   4.22049233  4.22049233  7.50000000
   6.33073849  2.11024616  7.50000000
   4.22061936  2.09110054 13.87598627
   6.34493629  4.22297378 13.88752142
   4.22176351  4.22431052 11.74806512
   6.32990452  2.10929340 11.72767439



--------------------------------------------------------------------------------------------------------

--------------------------------------- Iteration      FINAL  ---------------------------------------


--------------------OUTCAR has been truncated-------------------------


--------------------OUTCAR has been truncated-------------------------


--------------------OUTCAR has been truncated-------------------------


--------------------OUTCAR has been truncated-------------------------


--------------------OUTCAR has been truncated-------------------------


--------------------OUTCAR has been truncated-------------------------


--------------------OUTCAR has been truncated-------------------------


--------------------OUTCAR has been truncated-------------------------


--------------------OUTCAR has been truncated-------------------------


--------------------OUTCAR has been truncated-------------------------



  FORCE on cell =-STRESS in cart. coord.  units (eV):
  Direction    XX          YY          ZZ          XY          YZ          ZX
  --------------------------------------------------------------------------------------
  Alpha Z   899.29934   899.29934   899.29934
  Ewald  160268.07711160282.64661************   -13.68151   -25.56933    31.77181
  Hartree170525.86904170542.43804************    -2.99952    -0.48350     6.98784
  E(xc)   -2502.17131 -2502.17079 -2510.01303    -0.07498    -0.32512     0.12149
  Local  ************************340654.44561    13.02480    15.65170   -30.58177
  n-local -2825.71272 -2825.53429 -2846.18176    -0.23179     0.27389     0.38810
  augment  1052.98345  1053.34873  1044.55131     0.23600     0.66209    -0.56142
  Kinetic  7456.22748  7461.34297  7507.06177     3.79236     9.76718    -8.13783
  Fock        0.00000     0.00000     0.00000     0.00000     0.00000     0.00000
  vdW       -21.76478   -21.74010   -16.68867     0.00869    -0.00907     0.00866
  -------------------------------------------------------------------------------------
  Total     -25.40838   -24.96950    -1.60901     0.07404    -0.03217    -0.00313
  in kB     -26.78524   -26.32257    -1.69620     0.07805    -0.03391    -0.00330
  external pressure =      -18.27 kB  Pullay stress =        0.00 kB


 VOLUME and BASIS-vectors are now :
 -----------------------------------------------------------------------------
  energy-cutoff  :      600.00
  volume of cell :     1519.82
      direct lattice vectors                 reciprocal lattice vectors
     8.440984654  0.000000000  0.000000000     0.118469591  0.000000000  0.000000000
     0.000000000  8.440984654  0.000000000     0.000000000  0.118469591  0.000000000
     0.000000000  0.000000000 21.330738491     0.000000000  0.000000000  0.046880702

  length of vectors
     8.440984654  8.440984654 21.330738491     0.118469591  0.118469591  0.046880702


 FORCES acting on ions:
    Electron-Ion                     Ewald-Force                    Non-Local-Force
 -----------------------------------------------------------------------------------------------
   -.814E+02 0.154E+02 -.293E+03   0.890E+02 -.168E+02 0.296E+03   -.768E+01 0.145E+01 -.249E+01
   0.677E+00 -.680E+02 -.264E+03   -.772E+00 0.743E+02 0.261E+03   0.105E+00 -.614E+01 0.382E+01
   0.481E+02 0.278E+02 -.170E+04   -.850E+02 -.484E+02 0.171E+04   0.370E+02 0.205E+02 -.105E+02
   -.170E-01 -.218E-01 0.208E+04   0.185E-01 0.184E-01 -.208E+04   -.111E-02 0.237E-02 -.713E+01
   -.309E-01 -.306E-01 0.208E+04   0.323E-01 0.328E-01 -.208E+04   -.102E-02 -.150E-02 -.716E+01
   -.148E+00 -.261E+00 0.715E+03   0.164E+00 0.297E+00 -.715E+03   -.114E-01 -.257E-01 0.448E+00
   -.258E-01 -.776E-02 0.715E+03   0.106E+00 -.329E-02 -.716E+03   -.591E-01 0.618E-02 0.596E+00
   -.400E+00 -.285E+01 -.640E+03   0.480E+00 0.280E+01 0.640E+03   -.788E-01 0.532E-01 -.128E+00
   0.258E+01 -.108E+01 -.645E+03   -.254E+01 0.116E+01 0.646E+03   -.405E-01 -.709E-01 -.242E+00
   -.928E+00 -.434E+01 -.202E+04   0.996E+00 0.449E+01 0.201E+04   -.675E-01 -.155E+00 0.610E+01
   0.252E+02 -.213E+02 -.198E+04   -.262E+02 0.213E+02 0.198E+04   0.959E+00 -.343E-01 0.628E+01
   -.966E-02 0.211E-01 0.208E+04   0.104E-01 -.179E-01 -.208E+04   -.462E-03 -.218E-02 -.716E+01
   -.619E-01 0.313E-01 0.208E+04   0.682E-01 -.337E-01 -.208E+04   -.483E-02 0.172E-02 -.717E+01
   -.919E-01 0.252E+00 0.716E+03   0.615E-01 -.291E+00 -.716E+03   0.223E-01 0.283E-01 0.353E+00
   -.147E+00 -.250E-01 0.715E+03   0.142E+00 0.316E-01 -.716E+03   0.421E-02 -.286E-02 0.455E+00
   -.669E-01 0.286E+01 -.646E+03   0.109E+00 -.280E+01 0.646E+03   -.415E-01 -.594E-01 -.128E+00
   0.360E+01 0.113E+01 -.636E+03   -.339E+01 -.119E+01 0.637E+03   -.212E+00 0.602E-01 -.977E+00
   -.121E+01 0.515E+01 -.200E+04   0.138E+01 -.529E+01 0.200E+04   -.171E+00 0.146E+00 0.614E+01
   0.166E+02 0.181E+02 -.201E+04   -.169E+02 -.182E+02 0.200E+04   0.312E+00 0.535E-01 0.621E+01
   0.178E-01 0.777E-02 0.208E+04   -.194E-01 -.165E-01 -.208E+04   0.120E-02 0.653E-02 -.717E+01
   0.298E-01 -.381E-01 0.208E+04   -.317E-01 0.411E-01 -.208E+04   0.135E-02 -.212E-02 -.715E+01
   0.141E+00 -.310E+00 0.715E+03   -.164E+00 0.265E+00 -.715E+03   0.161E-01 0.330E-01 0.501E+00
   -.616E-02 0.414E-01 0.715E+03   -.757E-01 -.951E-01 -.716E+03   0.603E-01 0.379E-01 0.612E+00
   0.414E+00 -.301E+01 -.645E+03   -.486E+00 0.279E+01 0.644E+03   0.715E-01 0.223E+00 0.912E+00
   -.258E+01 -.143E+01 -.643E+03   0.255E+01 0.154E+01 0.643E+03   0.382E-01 -.106E+00 -.187E+00
   0.118E+01 -.112E+02 -.200E+04   -.124E+01 0.117E+02 0.199E+04   0.636E-01 -.449E+00 0.601E+01
   -.261E+02 -.222E+02 -.197E+04   0.272E+02 0.225E+02 0.196E+04   -.104E+01 -.253E+00 0.633E+01
   0.938E-02 -.114E-01 0.208E+04   -.105E-01 0.191E-01 -.208E+04   0.784E-03 -.578E-02 -.715E+01
   0.603E-01 0.396E-01 0.208E+04   -.673E-01 -.426E-01 -.208E+04   0.542E-02 0.216E-02 -.718E+01
   0.759E-01 0.340E+00 0.713E+03   -.582E-01 -.312E+00 -.714E+03   -.141E-01 -.230E-01 0.711E+00
   0.125E+00 -.787E-01 0.715E+03   -.128E+00 0.132E+00 -.716E+03   0.417E-03 -.374E-01 0.511E+00
   0.702E-01 0.368E+01 -.638E+03   -.108E+00 -.351E+01 0.639E+03   0.374E-01 -.178E+00 -.491E+00
   -.344E+01 0.150E+01 -.641E+03   0.322E+01 -.159E+01 0.641E+03   0.220E+00 0.918E-01 -.368E+00
   0.487E+01 0.307E+02 -.191E+04   -.524E+01 -.325E+02 0.190E+04   0.376E+00 0.181E+01 0.268E+01
   -.169E+02 0.183E+02 -.200E+04   0.172E+02 -.185E+02 0.199E+04   -.289E+00 0.197E+00 0.620E+01
   -.226E-01 -.224E+00 0.537E+03   0.203E-01 0.209E+00 -.537E+03   0.175E-02 0.213E-01 0.189E-01
   -.171E-01 -.212E-01 0.536E+03   0.211E-01 0.401E-01 -.536E+03   -.459E-02 -.282E-01 -.107E+00
   -.149E-01 -.276E-01 0.156E+04   0.182E-01 0.341E-01 -.157E+04   -.457E-02 -.915E-02 0.341E+01
   -.316E-01 -.536E-02 0.156E+04   0.399E-01 0.209E-02 -.157E+04   -.116E-01 0.454E-02 0.341E+01
   -.224E+01 -.719E+01 -.153E+04   0.230E+01 0.709E+01 0.153E+04   -.521E-01 0.107E+00 -.500E+01
   0.844E+01 -.586E+01 -.153E+04   -.823E+01 0.581E+01 0.153E+04   -.208E+00 0.556E-01 -.498E+01
   -.375E+00 -.125E+01 -.480E+03   0.385E+00 0.127E+01 0.480E+03   -.101E-01 -.270E-01 0.184E+00
   0.204E+01 -.248E+01 -.475E+03   -.212E+01 0.242E+01 0.474E+03   0.864E-01 0.576E-01 0.435E+00
   0.106E-01 0.215E+00 0.536E+03   -.162E-02 -.196E+00 -.536E+03   -.133E-01 -.280E-01 -.852E-01
   -.174E+00 0.224E-01 0.535E+03   0.124E+00 -.354E-01 -.535E+03   0.683E-01 0.202E-01 -.161E+00
   -.735E-02 0.281E-01 0.156E+04   0.620E-02 -.345E-01 -.157E+04   0.162E-02 0.891E-02 0.340E+01
   -.348E-01 0.474E-02 0.156E+04   0.351E-01 -.132E-02 -.157E+04   -.386E-03 -.476E-02 0.340E+01
   -.938E+00 0.662E+01 -.153E+04   0.936E+00 -.652E+01 0.154E+04   0.419E-02 -.967E-01 -.496E+01
   0.296E+02 0.823E+01 -.149E+04   -.293E+02 -.816E+01 0.150E+04   -.393E+00 -.752E-01 -.512E+01
   0.255E-01 0.126E+01 -.474E+03   0.890E-02 -.129E+01 0.473E+03   -.339E-01 0.310E-01 0.242E+00
   0.236E+01 0.242E+01 -.476E+03   -.236E+01 -.236E+01 0.476E+03   -.543E-02 -.611E-01 0.198E+00
   0.305E-01 -.813E-01 0.536E+03   -.263E-01 0.130E+00 -.536E+03   -.448E-02 -.645E-01 -.143E+00
   -.351E-02 -.588E-01 0.536E+03   0.891E-02 0.670E-01 -.536E+03   -.773E-02 -.141E-01 -.524E-01
   0.157E-01 -.297E-01 0.156E+04   -.186E-01 0.286E-01 -.157E+04   0.413E-02 0.165E-02 0.341E+01
   0.309E-01 0.165E-02 0.156E+04   -.392E-01 -.960E-02 -.157E+04   0.116E-01 0.111E-01 0.341E+01
   0.383E+01 -.375E+02 -.147E+04   -.393E+01 0.373E+02 0.147E+04   0.961E-01 0.268E+00 -.203E+01
   -.856E+01 -.721E+01 -.153E+04   0.835E+01 0.721E+01 0.153E+04   0.222E+00 -.271E-02 -.500E+01
   0.412E+00 -.635E+00 -.476E+03   -.430E+00 0.680E+00 0.476E+03   0.203E-01 -.453E-01 0.315E+00
   -.204E+01 -.209E+01 -.471E+03   0.212E+01 0.207E+01 0.470E+03   -.838E-01 0.216E-01 0.747E+00
   -.239E-01 0.800E-02 0.536E+03   0.237E-01 -.349E-01 -.535E+03   0.159E-02 0.363E-01 -.963E-01
   0.146E+00 0.747E-01 0.535E+03   -.803E-01 -.827E-01 -.535E+03   -.898E-01 0.135E-01 -.196E+00
   0.850E-02 0.323E-01 0.156E+04   -.679E-02 -.305E-01 -.157E+04   -.243E-02 -.266E-02 0.340E+01
   0.349E-01 -.283E-02 0.156E+04   -.349E-01 0.107E-01 -.157E+04   0.348E-04 -.110E-01 0.340E+01
   0.113E+01 0.264E+02 -.151E+04   -.114E+01 -.265E+02 0.151E+04   0.840E-02 0.273E-01 -.487E+01
   -.313E+02 0.107E+02 -.149E+04   0.306E+02 -.106E+02 0.150E+04   0.650E+00 -.651E-01 -.478E+01
   -.131E+00 0.171E+00 -.484E+03   0.846E-01 -.241E+00 0.484E+03   0.476E-01 0.691E-01 -.758E+00
   -.237E+01 0.204E+01 -.476E+03   0.236E+01 -.201E+01 0.476E+03   0.824E-02 -.251E-01 0.334E+00
 -----------------------------------------------------------------------------------------------
   -.299E+02 -.173E+02 0.265E+02   -.199E-12 0.711E-13 0.495E-11   0.299E+02 0.173E+02 -.265E+02


 POSITION                                       TOTAL-FORCE (eV/Angst)
 -----------------------------------------------------------------------------------
      5.20595      4.67946     16.35883        -0.139192      0.026614     -0.041197
      4.30431      5.67900     15.53856         0.013539      0.143651     -0.101440
      4.28384      4.82937     16.07552         0.115900     -0.182320      0.180927
      0.00000      6.33074      7.50000         0.000429     -0.001000      0.333119
      2.11025      0.00000      7.50000         0.000420      0.000683      0.339981
      0.00000      0.00000      9.61025         0.004267      0.009910      0.064334
      2.11025      6.33074      9.61025         0.020641     -0.004518      0.071465
      0.00175      6.32879     11.72745         0.002156     -0.001448     -0.001380
      2.11061      0.00106     11.73276         0.002949      0.001232      0.003280
      0.00062      0.00346     13.83502        -0.000063     -0.002110     -0.003362
      2.09069      6.33005     13.83160         0.001597      0.002017     -0.000133
      0.00000      2.11025      7.50000         0.000258      0.000912      0.341055
      2.11025      4.22049      7.50000         0.001394     -0.000733      0.340395
      0.00000      4.22049      9.61025        -0.007997     -0.011274      0.088704
      2.11025      2.11025      9.61025        -0.000611      0.003365      0.076567
      0.00026      2.11143     11.72998         0.001302      0.000898     -0.000010
      2.11604      4.21832     11.74046         0.003600     -0.000106      0.004118
      0.00359      4.21639     13.83025        -0.000988      0.003150     -0.000989
      2.10166      2.10903     13.83819         0.006195     -0.000076      0.000857
      4.22049      6.33074      7.50000        -0.000375     -0.002060      0.340767
      6.33074      0.00000      7.50000        -0.000460      0.000845      0.336352
      4.22049      0.00000      9.61025        -0.006747     -0.011614      0.091098
      6.33074      6.33074      9.61025        -0.020778     -0.015304      0.067655
      4.21818      6.32213     11.73949        -0.000575      0.000288      0.004727
      6.32886      0.00240     11.73049        -0.001227      0.002117      0.002968
      4.21777      0.01682     13.83630         0.001695     -0.001147     -0.000873
      6.35154      6.33641     13.81223         0.000005      0.001460     -0.001782
      4.22049      2.11025      7.50000        -0.000268      0.001825      0.337513
      6.33074      4.22049      7.50000        -0.001501     -0.000844      0.343063
      4.22049      4.22049      9.61025         0.003578      0.005139      0.108376
      6.33074      2.11025      9.61025        -0.001456      0.015758      0.072175
      4.21865      2.11487     11.73768        -0.000473      0.002707      0.004507
      6.32242      4.21778     11.74181        -0.001753     -0.000538      0.003825
      4.20463      4.16578     13.93712         0.003507     -0.005591     -0.013953
      6.33639      2.10651     13.83212        -0.004287      0.000576     -0.000341
      0.00000      6.33074      9.61025        -0.000566      0.006927      0.078732
      2.11025      0.00000      9.61025        -0.000852     -0.009318      0.066093
      0.00000      0.00000      7.50000        -0.001275     -0.002598     -0.499412
      2.11025      6.33074      7.50000        -0.003354      0.001283     -0.499981
      8.43906      6.33359     13.87705         0.002958      0.000078      0.004654
      2.10402      8.44004     13.88071        -0.000763      0.001637      0.002441
      8.43955      8.43908     11.72473        -0.000202     -0.000040     -0.000018
      2.11497      6.33271     11.73124        -0.001616      0.001269     -0.001420
      0.00000      2.11025      9.61025        -0.004237     -0.008622      0.058848
      2.11025      4.22049      9.61025         0.018167      0.007192      0.090324
      0.00000      4.22049      7.50000         0.000506      0.002495     -0.501653
      2.11025      2.11025      7.50000        -0.000122     -0.001381     -0.501875
      8.43882      2.10668     13.88052         0.002336      0.004380     -0.001116
      2.09489      4.22127     13.85874        -0.006753     -0.001200      0.000740
      8.43746      4.22140     11.72242         0.000609      0.002346     -0.002297
      2.10948      2.10701     11.72619        -0.000540      0.000734     -0.002602
      4.22049      6.33074      9.61025        -0.000188     -0.015377      0.087444
      6.33074      0.00000      9.61025        -0.002102     -0.005817      0.071675
      4.22049      0.00000      7.50000         0.001191      0.000493     -0.500041
      6.33074      6.33074      7.50000         0.003402      0.003180     -0.499254
      4.22154      6.36778     13.93502        -0.000944      0.017566     -0.017448
      6.33491      8.43985     13.88004         0.003431      0.001750      0.004597
      4.22045      8.43503     11.72954         0.002083     -0.000230     -0.002489
      6.32507      6.33100     11.72992         0.003008      0.001990     -0.002346
      4.22049      2.11025      9.61025         0.001403      0.009018      0.096380
      6.33074      4.22049      9.61025        -0.023453      0.005462      0.084581
      4.22049      4.22049      7.50000        -0.000704     -0.000830     -0.504140
      6.33074      2.11025      7.50000         0.000067     -0.003188     -0.501411
      4.22062      2.09110     13.87599         0.000170      0.000260      0.004743
      6.34494      4.22297     13.88752         0.010640     -0.002079     -0.001159
      4.22176      4.22431     11.74807         0.001019     -0.000110     -0.001652
      6.32990      2.10929     11.72767         0.001997      0.000267     -0.003305
 -----------------------------------------------------------------------------------
    total drift:                               -0.001951      0.000823      0.002954


--------------------------------------------------------------------------------------------------------



  FREE ENERGIE OF THE ION-ELECTRON SYSTEM (eV)
  ---------------------------------------------------
  free  energy   TOTEN  =      -386.03120510 eV

  energy  without entropy=     -386.03120510  energy(sigma->0) =     -386.03120510

 d Force = 0.4237271E-04[-0.362E-02, 0.370E-02]  d Energy = 0.7067132E-04-0.283E-04
 d Force =-0.3422052E+02[-0.343E+02,-0.342E+02]  d Ewald  =-0.3422050E+02-0.225E-04


--------------------------------------------------------------------------------------------------------


    POTLOK:  cpu time      0.3710: real time      0.3710


--------------------------------------------------------------------------------------------------------


 Finite differences progress:
  Degree of freedom:   9/  9
  Displacement:        2/  2
  Total:              18/ 18

 SECOND DERIVATIVES (NOT SYMMETRIZED)
 ------------------------------------
               1X          1Y          1Z          2X          2Y          2Z          3X          3Y          3Z 
  1X   -43.061516    7.130251  -13.377095    0.379173    0.462393   -0.112767   42.494683   -7.708009   13.519133
  1Y     7.117007   -4.612120    3.743278   -3.542343    0.436018   -0.873863   -4.039490    4.021096   -2.655410
  1Z   -13.355865    3.742057   -5.557868    2.101433    0.011192    0.462568   10.778823   -3.405407    4.787730
  2X     0.375633   -3.541566    2.099630   -5.972216   -0.229111   -0.667915    4.529314    3.559824   -1.216631
  2Y     0.461664    0.437744    0.010627   -0.227355  -25.609218   11.850412   -0.411381   23.819523  -14.418342
  2Z    -0.113787   -0.874296    0.462412   -0.668508   11.837709   -8.956762    0.908915  -12.589319    9.567393
  3X    42.499604   -4.048568   10.799995    4.524919   -0.413392    0.909042  -47.343782    4.835267  -12.068180
  3Y    -7.694817    4.016390   -3.406236    3.563509   23.821762  -12.607236    4.825378  -29.067415   18.400518
  3Z    13.504207   -2.653699    4.781581   -1.217936  -14.409921    9.564416  -12.045610   18.391430  -18.304588


 Eigenvectors and eigenvalues of the dynamical matrix
 ----------------------------------------------------


   1 f  =  112.422588 THz   706.371953 2PiTHz 3750.013882 cm-1   464.942256 meV
             X         Y         Z           dx          dy          dz
      5.205955  4.679459 16.358831     0.908249   -0.169178    0.293761  
      4.304305  5.679004 15.538563    -0.030213   -0.045479    0.017406  
      4.283842  4.829368 16.085521    -0.218702    0.053665   -0.078562  
      0.000000  6.330738  7.500000            0           0           0  
      2.110246  0.000000  7.500000            0           0           0  
      0.000000  0.000000  9.610246            0           0           0  
      2.110246  6.330738  9.610246            0           0           0  
      0.001750  6.328787 11.727454            0           0           0  
      2.110609  0.001061 11.732757            0           0           0  
      0.000623  0.003461 13.835018            0           0           0  
      2.090690  6.330045 13.831603            0           0           0  
      0.000000  2.110246  7.500000            0           0           0  
      2.110246  4.220492  7.500000            0           0           0  
      0.000000  4.220492  9.610246            0           0           0  
      2.110246  2.110246  9.610246            0           0           0  
      0.000264  2.111432 11.729977            0           0           0  
      2.116037  4.218320 11.740458            0           0           0  
      0.003593  4.216389 13.830253            0           0           0  
      2.101661  2.109029 13.838193            0           0           0  
      4.220492  6.330738  7.500000            0           0           0  
      6.330738  0.000000  7.500000            0           0           0  
      4.220492  0.000000  9.610246            0           0           0  
      6.330738  6.330738  9.610246            0           0           0  
      4.218180  6.322131 11.739492            0           0           0  
      6.328863  0.002400 11.730495            0           0           0  
      4.217767  0.016820 13.836301            0           0           0  
      6.351543  6.336410 13.812225            0           0           0  
      4.220492  2.110246  7.500000            0           0           0  
      6.330738  4.220492  7.500000            0           0           0  
      4.220492  4.220492  9.610246            0           0           0  
      6.330738  2.110246  9.610246            0           0           0  
      4.218649  2.114868 11.737680            0           0           0  
      6.322425  4.217781 11.741807            0           0           0  
      4.204628  4.165782 13.937117            0           0           0  
      6.336387  2.106506 13.832121            0           0           0  
      0.000000  6.330738  9.610246            0           0           0  
      2.110246  0.000000  9.610246            0           0           0  
      0.000000  0.000000  7.500000            0           0           0  
      2.110246  6.330738  7.500000            0           0           0  
      8.439064  6.333591 13.877050            0           0           0  
      2.104015  8.440036 13.880706            0           0           0  
      8.439554  8.439083 11.724733            0           0           0  
      2.114966  6.332707 11.731240            0           0           0  
      0.000000  2.110246  9.610246            0           0           0  
      2.110246  4.220492  9.610246            0           0           0  
      0.000000  4.220492  7.500000            0           0           0  
      2.110246  2.110246  7.500000            0           0           0  
      8.438821  2.106683 13.880516            0           0           0  
      2.094891  4.221270 13.858739            0           0           0  
      8.437456  4.221404 11.722424            0           0           0  
      2.109480  2.107013 11.726187            0           0           0  
      4.220492  6.330738  9.610246            0           0           0  
      6.330738  0.000000  9.610246            0           0           0  
      4.220492  0.000000  7.500000            0           0           0  
      6.330738  6.330738  7.500000            0           0           0  
      4.221537  6.367783 13.935016            0           0           0  
      6.334910  8.439853 13.880037            0           0           0  
      4.220453  8.435029 11.729540            0           0           0  
      6.325071  6.331004 11.729923            0           0           0  
      4.220492  2.110246  9.610246            0           0           0  
      6.330738  4.220492  9.610246            0           0           0  
      4.220492  4.220492  7.500000            0           0           0  
      6.330738  2.110246  7.500000            0           0           0  
      4.220619  2.091101 13.875986            0           0           0  
      6.344936  4.222974 13.887521            0           0           0  
      4.221764  4.224311 11.748065            0           0           0  
      6.329905  2.109293 11.727674            0           0           0  

   2 f  =   90.815907 THz   570.613174 2PiTHz 3029.292590 cm-1   375.584244 meV
             X         Y         Z           dx          dy          dz
      5.205955  4.679459 16.358831     0.056189   -0.034494    0.028034  
      4.304305  5.679004 15.538563    -0.002659    0.857527   -0.449271  
      4.283842  4.829368 16.085521    -0.011589   -0.203426    0.127068  
      0.000000  6.330738  7.500000            0           0           0  
      2.110246  0.000000  7.500000            0           0           0  
      0.000000  0.000000  9.610246            0           0           0  
      2.110246  6.330738  9.610246            0           0           0  
      0.001750  6.328787 11.727454            0           0           0  
      2.110609  0.001061 11.732757            0           0           0  
      0.000623  0.003461 13.835018            0           0           0  
      2.090690  6.330045 13.831603            0           0           0  
      0.000000  2.110246  7.500000            0           0           0  
      2.110246  4.220492  7.500000            0           0           0  
      0.000000  4.220492  9.610246            0           0           0  
      2.110246  2.110246  9.610246            0           0           0  
      0.000264  2.111432 11.729977            0           0           0  
      2.116037  4.218320 11.740458            0           0           0  
      0.003593  4.216389 13.830253            0           0           0  
      2.101661  2.109029 13.838193            0           0           0  
      4.220492  6.330738  7.500000            0           0           0  
      6.330738  0.000000  7.500000            0           0           0  
      4.220492  0.000000  9.610246            0           0           0  
      6.330738  6.330738  9.610246            0           0           0  
      4.218180  6.322131 11.739492            0           0           0  
      6.328863  0.002400 11.730495            0           0           0  
      4.217767  0.016820 13.836301            0           0           0  
      6.351543  6.336410 13.812225            0           0           0  
      4.220492  2.110246  7.500000            0           0           0  
      6.330738  4.220492  7.500000            0           0           0  
      4.220492  4.220492  9.610246            0           0           0  
      6.330738  2.110246  9.610246            0           0           0  
      4.218649  2.114868 11.737680            0           0           0  
      6.322425  4.217781 11.741807            0           0           0  
      4.204628  4.165782 13.937117            0           0           0  
      6.336387  2.106506 13.832121            0           0           0  
      0.000000  6.330738  9.610246            0           0           0  
      2.110246  0.000000  9.610246            0           0           0  
      0.000000  0.000000  7.500000            0           0           0  
      2.110246  6.330738  7.500000            0           0           0  
      8.439064  6.333591 13.877050            0           0           0  
      2.104015  8.440036 13.880706            0           0           0  
      8.439554  8.439083 11.724733            0           0           0  
      2.114966  6.332707 11.731240            0           0           0  
      0.000000  2.110246  9.610246            0           0           0  
      2.110246  4.220492  9.610246            0           0           0  
      0.000000  4.220492  7.500000            0           0           0  
      2.110246  2.110246  7.500000            0           0           0  
      8.438821  2.106683 13.880516            0           0           0  
      2.094891  4.221270 13.858739            0           0           0  
      8.437456  4.221404 11.722424            0           0           0  
      2.109480  2.107013 11.726187            0           0           0  
      4.220492  6.330738  9.610246            0           0           0  
      6.330738  0.000000  9.610246            0           0           0  
      4.220492  0.000000  7.500000            0           0           0  
      6.330738  6.330738  7.500000            0           0           0  
      4.221537  6.367783 13.935016            0           0           0  
      6.334910  8.439853 13.880037            0           0           0  
      4.220453  8.435029 11.729540            0           0           0  
      6.325071  6.331004 11.729923            0           0           0  
      4.220492  2.110246  9.610246            0           0           0  
      6.330738  4.220492  9.610246            0           0           0  
      4.220492  4.220492  7.500000            0           0           0  
      6.330738  2.110246  7.500000            0           0           0  
      4.220619  2.091101 13.875986            0           0           0  
      6.344936  4.222974 13.887521            0           0           0  
      4.221764  4.224311 11.748065            0           0           0  
      6.329905  2.109293 11.727674            0           0           0  

   3 f  =   48.278790 THz   303.344583 2PiTHz 1610.407086 cm-1   199.664942 meV
             X         Y         Z           dx          dy          dz
      5.205955  4.679459 16.358831    -0.160529   -0.507921    0.249049  
      4.304305  5.679004 15.538563    -0.759767   -0.051591   -0.127597  
      4.283842  4.829368 16.085521     0.205065    0.124308   -0.023007  
      0.000000  6.330738  7.500000            0           0           0  
      2.110246  0.000000  7.500000            0           0           0  
      0.000000  0.000000  9.610246            0           0           0  
      2.110246  6.330738  9.610246            0           0           0  
      0.001750  6.328787 11.727454            0           0           0  
      2.110609  0.001061 11.732757            0           0           0  
      0.000623  0.003461 13.835018            0           0           0  
      2.090690  6.330045 13.831603            0           0           0  
      0.000000  2.110246  7.500000            0           0           0  
      2.110246  4.220492  7.500000            0           0           0  
      0.000000  4.220492  9.610246            0           0           0  
      2.110246  2.110246  9.610246            0           0           0  
      0.000264  2.111432 11.729977            0           0           0  
      2.116037  4.218320 11.740458            0           0           0  
      0.003593  4.216389 13.830253            0           0           0  
      2.101661  2.109029 13.838193            0           0           0  
      4.220492  6.330738  7.500000            0           0           0  
      6.330738  0.000000  7.500000            0           0           0  
      4.220492  0.000000  9.610246            0           0           0  
      6.330738  6.330738  9.610246            0           0           0  
      4.218180  6.322131 11.739492            0           0           0  
      6.328863  0.002400 11.730495            0           0           0  
      4.217767  0.016820 13.836301            0           0           0  
      6.351543  6.336410 13.812225            0           0           0  
      4.220492  2.110246  7.500000            0           0           0  
      6.330738  4.220492  7.500000            0           0           0  
      4.220492  4.220492  9.610246            0           0           0  
      6.330738  2.110246  9.610246            0           0           0  
      4.218649  2.114868 11.737680            0           0           0  
      6.322425  4.217781 11.741807            0           0           0  
      4.204628  4.165782 13.937117            0           0           0  
      6.336387  2.106506 13.832121            0           0           0  
      0.000000  6.330738  9.610246            0           0           0  
      2.110246  0.000000  9.610246            0           0           0  
      0.000000  0.000000  7.500000            0           0           0  
      2.110246  6.330738  7.500000            0           0           0  
      8.439064  6.333591 13.877050            0           0           0  
      2.104015  8.440036 13.880706            0           0           0  
      8.439554  8.439083 11.724733            0           0           0  
      2.114966  6.332707 11.731240            0           0           0  
      0.000000  2.110246  9.610246            0           0           0  
      2.110246  4.220492  9.610246            0           0           0  
      0.000000  4.220492  7.500000            0           0           0  
      2.110246  2.110246  7.500000            0           0           0  
      8.438821  2.106683 13.880516            0           0           0  
      2.094891  4.221270 13.858739            0           0           0  
      8.437456  4.221404 11.722424            0           0           0  
      2.109480  2.107013 11.726187            0           0           0  
      4.220492  6.330738  9.610246            0           0           0  
      6.330738  0.000000  9.610246            0           0           0  
      4.220492  0.000000  7.500000            0           0           0  
      6.330738  6.330738  7.500000            0           0           0  
      4.221537  6.367783 13.935016            0           0           0  
      6.334910  8.439853 13.880037            0           0           0  
      4.220453  8.435029 11.729540            0           0           0  
      6.325071  6.331004 11.729923            0           0           0  
      4.220492  2.110246  9.610246            0           0           0  
      6.330738  4.220492  9.610246            0           0           0  
      4.220492  4.220492  7.500000            0           0           0  
      6.330738  2.110246  7.500000            0           0           0  
      4.220619  2.091101 13.875986            0           0           0  
      6.344936  4.222974 13.887521            0           0           0  
      4.221764  4.224311 11.748065            0           0           0  
      6.329905  2.109293 11.727674            0           0           0  

   4 f  =   26.121661 THz   164.127235 2PiTHz  871.324812 cm-1   108.030460 meV
             X         Y         Z           dx          dy          dz
      5.205955  4.679459 16.358831    -0.020241   -0.050271   -0.005393  
      4.304305  5.679004 15.538563    -0.114268    0.485995    0.838597  
      4.283842  4.829368 16.085521     0.018230    0.077063   -0.195626  
      0.000000  6.330738  7.500000            0           0           0  
      2.110246  0.000000  7.500000            0           0           0  
      0.000000  0.000000  9.610246            0           0           0  
      2.110246  6.330738  9.610246            0           0           0  
      0.001750  6.328787 11.727454            0           0           0  
      2.110609  0.001061 11.732757            0           0           0  
      0.000623  0.003461 13.835018            0           0           0  
      2.090690  6.330045 13.831603            0           0           0  
      0.000000  2.110246  7.500000            0           0           0  
      2.110246  4.220492  7.500000            0           0           0  
      0.000000  4.220492  9.610246            0           0           0  
      2.110246  2.110246  9.610246            0           0           0  
      0.000264  2.111432 11.729977            0           0           0  
      2.116037  4.218320 11.740458            0           0           0  
      0.003593  4.216389 13.830253            0           0           0  
      2.101661  2.109029 13.838193            0           0           0  
      4.220492  6.330738  7.500000            0           0           0  
      6.330738  0.000000  7.500000            0           0           0  
      4.220492  0.000000  9.610246            0           0           0  
      6.330738  6.330738  9.610246            0           0           0  
      4.218180  6.322131 11.739492            0           0           0  
      6.328863  0.002400 11.730495            0           0           0  
      4.217767  0.016820 13.836301            0           0           0  
      6.351543  6.336410 13.812225            0           0           0  
      4.220492  2.110246  7.500000            0           0           0  
      6.330738  4.220492  7.500000            0           0           0  
      4.220492  4.220492  9.610246            0           0           0  
      6.330738  2.110246  9.610246            0           0           0  
      4.218649  2.114868 11.737680            0           0           0  
      6.322425  4.217781 11.741807            0           0           0  
      4.204628  4.165782 13.937117            0           0           0  
[...]
      6.330738  0.000000  7.500000            0           0           0  
      4.220492  0.000000  9.610246            0           0           0  
      6.330738  6.330738  9.610246            0           0           0  
      4.218180  6.322131 11.739492            0           0           0  
      6.328863  0.002400 11.730495            0           0           0  
      4.217767  0.016820 13.836301            0           0           0  
      6.351543  6.336410 13.812225            0           0           0  
      4.220492  2.110246  7.500000            0           0           0  
      6.330738  4.220492  7.500000            0           0           0  
      4.220492  4.220492  9.610246            0           0           0  
      6.330738  2.110246  9.610246            0           0           0  
      4.218649  2.114868 11.737680            0           0           0  
      6.322425  4.217781 11.741807            0           0           0  
      4.204628  4.165782 13.937117            0           0           0  
      6.336387  2.106506 13.832121            0           0           0  
      0.000000  6.330738  9.610246            0           0           0  
      2.110246  0.000000  9.610246            0           0           0  
      0.000000  0.000000  7.500000            0           0           0  
      2.110246  6.330738  7.500000            0           0           0  
      8.439064  6.333591 13.877050            0           0           0  
      2.104015  8.440036 13.880706            0           0           0  
      8.439554  8.439083 11.724733            0           0           0  
      2.114966  6.332707 11.731240            0           0           0  
      0.000000  2.110246  9.610246            0           0           0  
      2.110246  4.220492  9.610246            0           0           0  
      0.000000  4.220492  7.500000            0           0           0  
      2.110246  2.110246  7.500000            0           0           0  
      8.438821  2.106683 13.880516            0           0           0  
      2.094891  4.221270 13.858739            0           0           0  
      8.437456  4.221404 11.722424            0           0           0  
      2.109480  2.107013 11.726187            0           0           0  
      4.220492  6.330738  9.610246            0           0           0  
      6.330738  0.000000  9.610246            0           0           0  
      4.220492  0.000000  7.500000            0           0           0  
      6.330738  6.330738  7.500000            0           0           0  
      4.221537  6.367783 13.935016            0           0           0  
      6.334910  8.439853 13.880037            0           0           0  
      4.220453  8.435029 11.729540            0           0           0  
      6.325071  6.331004 11.729923            0           0           0  
      4.220492  2.110246  9.610246            0           0           0  
      6.330738  4.220492  9.610246            0           0           0  
      4.220492  4.220492  7.500000            0           0           0  
      6.330738  2.110246  7.500000            0           0           0  
      4.220619  2.091101 13.875986            0           0           0  
      6.344936  4.222974 13.887521            0           0           0  
      4.221764  4.224311 11.748065            0           0           0  
      6.329905  2.109293 11.727674            0           0           0  

   7 f  =    6.303478 THz    39.605919 2PiTHz  210.261385 cm-1    26.069077 meV
             X         Y         Z           dx          dy          dz
      5.205955  4.679459 16.358831    -0.011387    0.023562   -0.197492  
      4.304305  5.679004 15.538563    -0.001280    0.033678   -0.245987  
      4.283842  4.829368 16.085521    -0.002599    0.060087   -0.946071  
      0.000000  6.330738  7.500000            0           0           0  
      2.110246  0.000000  7.500000            0           0           0  
      0.000000  0.000000  9.610246            0           0           0  
      2.110246  6.330738  9.610246            0           0           0  
      0.001750  6.328787 11.727454            0           0           0  
      2.110609  0.001061 11.732757            0           0           0  
      0.000623  0.003461 13.835018            0           0           0  
      2.090690  6.330045 13.831603            0           0           0  
      0.000000  2.110246  7.500000            0           0           0  
      2.110246  4.220492  7.500000            0           0           0  
      0.000000  4.220492  9.610246            0           0           0  
      2.110246  2.110246  9.610246            0           0           0  
      0.000264  2.111432 11.729977            0           0           0  
      2.116037  4.218320 11.740458            0           0           0  
      0.003593  4.216389 13.830253            0           0           0  
      2.101661  2.109029 13.838193            0           0           0  
      4.220492  6.330738  7.500000            0           0           0  
      6.330738  0.000000  7.500000            0           0           0  
      4.220492  0.000000  9.610246            0           0           0  
      6.330738  6.330738  9.610246            0           0           0  
      4.218180  6.322131 11.739492            0           0           0  
      6.328863  0.002400 11.730495            0           0           0  
      4.217767  0.016820 13.836301            0           0           0  
      6.351543  6.336410 13.812225            0           0           0  
      4.220492  2.110246  7.500000            0           0           0  
      6.330738  4.220492  7.500000            0           0           0  
      4.220492  4.220492  9.610246            0           0           0  
      6.330738  2.110246  9.610246            0           0           0  
      4.218649  2.114868 11.737680            0           0           0  
      6.322425  4.217781 11.741807            0           0           0  
      4.204628  4.165782 13.937117            0           0           0  
      6.336387  2.106506 13.832121            0           0           0  
      0.000000  6.330738  9.610246            0           0           0  
      2.110246  0.000000  9.610246            0           0           0  
      0.000000  0.000000  7.500000            0           0           0  
      2.110246  6.330738  7.500000            0           0           0  
      8.439064  6.333591 13.877050            0           0           0  
      2.104015  8.440036 13.880706            0           0           0  
      8.439554  8.439083 11.724733            0           0           0  
      2.114966  6.332707 11.731240            0           0           0  
      0.000000  2.110246  9.610246            0           0           0  
      2.110246  4.220492  9.610246            0           0           0  
      0.000000  4.220492  7.500000            0           0           0  
      2.110246  2.110246  7.500000            0           0           0  
      8.438821  2.106683 13.880516            0           0           0  
      2.094891  4.221270 13.858739            0           0           0  
      8.437456  4.221404 11.722424            0           0           0  
      2.109480  2.107013 11.726187            0           0           0  
      4.220492  6.330738  9.610246            0           0           0  
      6.330738  0.000000  9.610246            0           0           0  
      4.220492  0.000000  7.500000            0           0           0  
      6.330738  6.330738  7.500000            0           0           0  
      4.221537  6.367783 13.935016            0           0           0  
      6.334910  8.439853 13.880037            0           0           0  
      4.220453  8.435029 11.729540            0           0           0  
      6.325071  6.331004 11.729923            0           0           0  
      4.220492  2.110246  9.610246            0           0           0  
      6.330738  4.220492  9.610246            0           0           0  
      4.220492  4.220492  7.500000            0           0           0  
      6.330738  2.110246  7.500000            0           0           0  
      4.220619  2.091101 13.875986            0           0           0  
      6.344936  4.222974 13.887521            0           0           0  
      4.221764  4.224311 11.748065            0           0           0  
      6.329905  2.109293 11.727674            0           0           0  

   8 f  =    4.042387 THz    25.399064 2PiTHz  134.839503 cm-1    16.717960 meV
             X         Y         Z           dx          dy          dz
      5.205955  4.679459 16.358831    -0.099678   -0.236457    0.006905  
      4.304305  5.679004 15.538563    -0.064805   -0.138053    0.120002  
      4.283842  4.829368 16.085521    -0.354014   -0.872803   -0.096620  
      0.000000  6.330738  7.500000            0           0           0  
      2.110246  0.000000  7.500000            0           0           0  
      0.000000  0.000000  9.610246            0           0           0  
      2.110246  6.330738  9.610246            0           0           0  
      0.001750  6.328787 11.727454            0           0           0  
      2.110609  0.001061 11.732757            0           0           0  
      0.000623  0.003461 13.835018            0           0           0  
      2.090690  6.330045 13.831603            0           0           0  
      0.000000  2.110246  7.500000            0           0           0  
      2.110246  4.220492  7.500000            0           0           0  
      0.000000  4.220492  9.610246            0           0           0  
      2.110246  2.110246  9.610246            0           0           0  
      0.000264  2.111432 11.729977            0           0           0  
      2.116037  4.218320 11.740458            0           0           0  
      0.003593  4.216389 13.830253            0           0           0  
      2.101661  2.109029 13.838193            0           0           0  
      4.220492  6.330738  7.500000            0           0           0  
      6.330738  0.000000  7.500000            0           0           0  
      4.220492  0.000000  9.610246            0           0           0  
      6.330738  6.330738  9.610246            0           0           0  
      4.218180  6.322131 11.739492            0           0           0  
      6.328863  0.002400 11.730495            0           0           0  
      4.217767  0.016820 13.836301            0           0           0  
      6.351543  6.336410 13.812225            0           0           0  
      4.220492  2.110246  7.500000            0           0           0  
      6.330738  4.220492  7.500000            0           0           0  
      4.220492  4.220492  9.610246            0           0           0  
      6.330738  2.110246  9.610246            0           0           0  
      4.218649  2.114868 11.737680            0           0           0  
      6.322425  4.217781 11.741807            0           0           0  
      4.204628  4.165782 13.937117            0           0           0  
      6.336387  2.106506 13.832121            0           0           0  
      0.000000  6.330738  9.610246            0           0           0  
      2.110246  0.000000  9.610246            0           0           0  
      0.000000  0.000000  7.500000            0           0           0  
      2.110246  6.330738  7.500000            0           0           0  
      8.439064  6.333591 13.877050            0           0           0  
      2.104015  8.440036 13.880706            0           0           0  
      8.439554  8.439083 11.724733            0           0           0  
      2.114966  6.332707 11.731240            0           0           0  
      0.000000  2.110246  9.610246            0           0           0  
      2.110246  4.220492  9.610246            0           0           0  
      0.000000  4.220492  7.500000            0           0           0  
      2.110246  2.110246  7.500000            0           0           0  
      8.438821  2.106683 13.880516            0           0           0  
      2.094891  4.221270 13.858739            0           0           0  
      8.437456  4.221404 11.722424            0           0           0  
      2.109480  2.107013 11.726187            0           0           0  
      4.220492  6.330738  9.610246            0           0           0  
      6.330738  0.000000  9.610246            0           0           0  
      4.220492  0.000000  7.500000            0           0           0  
      6.330738  6.330738  7.500000            0           0           0  
      4.221537  6.367783 13.935016            0           0           0  
      6.334910  8.439853 13.880037            0           0           0  
      4.220453  8.435029 11.729540            0           0           0  
      6.325071  6.331004 11.729923            0           0           0  
      4.220492  2.110246  9.610246            0           0           0  
      6.330738  4.220492  9.610246            0           0           0  
      4.220492  4.220492  7.500000            0           0           0  
      6.330738  2.110246  7.500000            0           0           0  
      4.220619  2.091101 13.875986            0           0           0  
      6.344936  4.222974 13.887521            0           0           0  
      4.221764  4.224311 11.748065            0           0           0  
      6.329905  2.109293 11.727674            0           0           0  

   9 f  =    2.283817 THz    14.349644 2PiTHz   76.179928 cm-1     9.445103 meV
             X         Y         Z           dx          dy          dz
      5.205955  4.679459 16.358831     0.283896   -0.142316   -0.275529  
      4.304305  5.679004 15.538563     0.110329   -0.053241    0.056888  
      4.283842  4.829368 16.085521     0.835086   -0.327884    0.010601  
      0.000000  6.330738  7.500000            0           0           0  
      2.110246  0.000000  7.500000            0           0           0  
      0.000000  0.000000  9.610246            0           0           0  
      2.110246  6.330738  9.610246            0           0           0  
      0.001750  6.328787 11.727454            0           0           0  
      2.110609  0.001061 11.732757            0           0           0  
      0.000623  0.003461 13.835018            0           0           0  
      2.090690  6.330045 13.831603            0           0           0  
      0.000000  2.110246  7.500000            0           0           0  
      2.110246  4.220492  7.500000            0           0           0  
      0.000000  4.220492  9.610246            0           0           0  
      2.110246  2.110246  9.610246            0           0           0  
      0.000264  2.111432 11.729977            0           0           0  
      2.116037  4.218320 11.740458            0           0           0  
      0.003593  4.216389 13.830253            0           0           0  
      2.101661  2.109029 13.838193            0           0           0  
      4.220492  6.330738  7.500000            0           0           0  
      6.330738  0.000000  7.500000            0           0           0  
      4.220492  0.000000  9.610246            0           0           0  
      6.330738  6.330738  9.610246            0           0           0  
      4.218180  6.322131 11.739492            0           0           0  
      6.328863  0.002400 11.730495            0           0           0  
      4.217767  0.016820 13.836301            0           0           0  
      6.351543  6.336410 13.812225            0           0           0  
      4.220492  2.110246  7.500000            0           0           0  
      6.330738  4.220492  7.500000            0           0           0  
      4.220492  4.220492  9.610246            0           0           0  
      6.330738  2.110246  9.610246            0           0           0  
      4.218649  2.114868 11.737680            0           0           0  
      6.322425  4.217781 11.741807            0           0           0  
      4.204628  4.165782 13.937117            0           0           0  
      6.336387  2.106506 13.832121            0           0           0  
      0.000000  6.330738  9.610246            0           0           0  
      2.110246  0.000000  9.610246            0           0           0  
      0.000000  0.000000  7.500000            0           0           0  
      2.110246  6.330738  7.500000            0           0           0  
      8.439064  6.333591 13.877050            0           0           0  
      2.104015  8.440036 13.880706            0           0           0  
      8.439554  8.439083 11.724733            0           0           0  
      2.114966  6.332707 11.731240            0           0           0  
      0.000000  2.110246  9.610246            0           0           0  
      2.110246  4.220492  9.610246            0           0           0  
      0.000000  4.220492  7.500000            0           0           0  
      2.110246  2.110246  7.500000            0           0           0  
      8.438821  2.106683 13.880516            0           0           0  
      2.094891  4.221270 13.858739            0           0           0  
      8.437456  4.221404 11.722424            0           0           0  
      2.109480  2.107013 11.726187            0           0           0  
      4.220492  6.330738  9.610246            0           0           0  
      6.330738  0.000000  9.610246            0           0           0  
      4.220492  0.000000  7.500000            0           0           0  
      6.330738  6.330738  7.500000            0           0           0  
      4.221537  6.367783 13.935016            0           0           0  
      6.334910  8.439853 13.880037            0           0           0  
      4.220453  8.435029 11.729540            0           0           0  
      6.325071  6.331004 11.729923            0           0           0  
      4.220492  2.110246  9.610246            0           0           0  
      6.330738  4.220492  9.610246            0           0           0  
      4.220492  4.220492  7.500000            0           0           0  
      6.330738  2.110246  7.500000            0           0           0  
      4.220619  2.091101 13.875986            0           0           0  
      6.344936  4.222974 13.887521            0           0           0  
      4.221764  4.224311 11.748065            0           0           0  
      6.329905  2.109293 11.727674            0           0           0  

 Finite differences POTIM=   1.0000000000000000E-002
     LOOP+:  cpu time     44.0420: real time     44.1932
    4ORBIT:  cpu time      0.0000: real time      0.0000

 total amount of memory used by VASP MPI-rank0    66960. kBytes
=======================================================================

   base      :      30000. kBytes
   nonl-proj :      17510. kBytes
   fftplans  :       4923. kBytes
   grid      :       8190. kBytes
   one-center:         73. kBytes
   wavefun   :       6264. kBytes

  
  
 General timing and accounting informations for this job:
 ========================================================
  
                  Total CPU time used (sec):      856.959
                            User time (sec):      853.864
                          System time (sec):        3.095
                         Elapsed time (sec):      875.962
  
                   Maximum memory used (kb):      164068.
                   Average memory used (kb):          N/A
  
                          Minor page faults:        36211
                          Major page faults:           51
                 Voluntary context switches:        22302
