 vasp.6.3.0 20Jan22 (build Mar 11 2022 13:48:16) complex                        
  
 executed on             LinuxIFC date 2024.01.22  06:52:44
 running on  304 total cores
 distrk:  each k-point on  304 cores,    1 groups
 distr:  one band on NCORE=   2 cores,  152 groups


--------------------------------------------------------------------------------------------------------


 INCAR:
   SYSTEM = TiO2
   ISMEAR = 0
   SIGMA = 0.05
   EDIFF = 1E-5
   ALGO = ALL
   ISTART = 0
   IBRION = -1
   NSW = 0
   ISYM = 0
   ISIF = 2
   EDIFFG = -0.01
   DIPOL = 0.5 0.5 0.5
   IDIPOL = 3
   LDIPOL = .TRUE.
   GGA = MK
   LUSE_VDW = .TRUE.
   PARAM1 = 0.1234
   PARAM2 = 0.711357
   ZAB_VDW = -1.8867
   AGGAC = 0.0
   ENCUT = 600
   PREC = Accurate
   LASPH = .TRUE.
   LREAL = .FALSE.
   ISPIN = 1
   NELM = 200
   NELMIN = 8
   NCORE = 2
   KPAR = 1
   LWAVE = .FALSE.
   LCHARG = .FALSE.

 POTCAR:    PAW_PBE C 08Apr2002                   
 POTCAR:    PAW_PBE H 15Jun2001                   
 POTCAR:    PAW_PBE Ti_pv 07Sep2000               
 POTCAR:    PAW_PBE O 08Apr2002                   
 -----------------------------------------------------------------------------
|                                                                             |
|           W    W    AA    RRRRR   N    N  II  N    N   GGGG   !!!           |
|           W    W   A  A   R    R  NN   N  II  NN   N  G    G  !!!           |
|           W    W  A    A  R    R  N N  N  II  N N  N  G       !!!           |
|           W WW W  AAAAAA  RRRRR   N  N N  II  N  N N  G  GGG   !            |
|           WW  WW  A    A  R   R   N   NN  II  N   NN  G    G                |
|           W    W  A    A  R    R  N    N  II  N    N   GGGG   !!!           |
|                                                                             |
|     For optimal performance we recommend to set                             |
|       NCORE = 2 up to number-of-cores-per-socket                            |
|     NCORE specifies how many cores store one orbital (NPAR=cpu/NCORE).      |
|     This setting can greatly improve the performance of VASP for DFT.       |
|     The default, NCORE=1 might be grossly inefficient on modern             |
|     multi-core architectures or massively parallel machines. Do your        |
|     own testing! More info at https://www.vasp.at/wiki/index.php/NCORE      |
|     Unfortunately you need to use the default for GW and RPA                |
|     calculations (for HF NCORE is supported but not extensively tested      |
|     yet).                                                                   |
|                                                                             |
 -----------------------------------------------------------------------------

 -----------------------------------------------------------------------------
|                                                                             |
|               ----> ADVICE to this user running VASP <----                  |
|                                                                             |
|     You have switched on vdW-DFT.                                           |
|     This routine was written and supplied by Jiri Klimes. We recommend      |
|     that you carefully read and cite the following publications:            |
|       J. Klimes, D.R. Bowler, A. Michelides                                 |
|          J. Phys.: Cond Matt. 22 022201 (2010)                              |
|       J. Klimes, D.R. Bowler, A. Michelides                                 |
|          Phys. Rev. B. 83, 195131 (2011)                                    |
|     and references therein.                                                 |
|                                                                             |
 -----------------------------------------------------------------------------

 POTCAR:    PAW_PBE C 08Apr2002                   
   SHA256 =  253f7b50bb8d59471dbedb8285d89021f4a42ed1a2c5d38a03a736e69125dd95 C/POTCAR              
   COPYR  = (c) Copyright 08Apr2002 Georg Kresse                                                    
   COPYR  = This file is part of the software VASP. Any use, copying, and all other rights are regul
   COPYR  = If you do not have a valid VASP license, you may not use, copy or distribute this file. 
   VRHFIN =C: s2p2                                                                                  
   LEXCH  = PE                                                                                      
   EATOM  =   147.1560 eV,   10.8157 Ry                                                             
                                                                                                    
   TITEL  = PAW_PBE C 08Apr2002                                                                     
   LULTRA =        F    use ultrasoft PP ?                                                          
   IUNSCR =        1    unscreen: 0-lin 1-nonlin 2-no                                               
   RPACOR =    1.200    partial core radius                                                         
   POMASS =   12.011; ZVAL   =    4.000    mass and valenz                                          
   RCORE  =    1.500    outmost cutoff radius                                                       
   RWIGS  =    1.630; RWIGS  =    0.863    wigner-seitz radius (au A)                               
   ENMAX  =  400.000; ENMIN  =  300.000 eV                                                          
   ICORE  =        2    local potential                                                             
   LCOR   =        T    correct aug charges                                                         
   LPAW   =        T    paw PP                                                                      
   EAUG   =  644.873                                                                                
   DEXC   =    0.000                                                                                
   RMAX   =    1.529    core radius for proj-oper                                                   
   RAUG   =    1.300    factor for augmentation sphere                                              
   RDEP   =    1.501    radius for radial grids                                                     
   RDEPT  =    1.300    core radius for aug-charge                                                  
                                                                                                    
   Atomic configuration                                                                             
    4 entries                                                                                       
     n  l   j            E        occ.                                                              
     1  0  0.50      -273.3789   2.0000                                                             
     2  0  0.50       -13.7508   2.0000                                                             
     2  1  0.50        -5.2854   2.0000                                                             
     3  2  1.50        -5.4423   0.0000                                                             
   Description                                                                                      
     l       E           TYP  RCUT    TYP  RCUT                                                     
     0    -13.7508458     23  1.200                                                                 
     0     -8.2022199     23  1.200                                                                 
     1     -5.2854383     23  1.500                                                                 
     1     34.0145650     23  1.500                                                                 
     2     -5.4423304      7  1.500                                                                 
  local pseudopotential read in
  partial core-charges read in
  partial kinetic energy density read in
  atomic valenz-charges read in
  non local Contribution for L=           0  read in
    real space projection operators read in
  non local Contribution for L=           0  read in
    real space projection operators read in
  non local Contribution for L=           1  read in
    real space projection operators read in
  non local Contribution for L=           1  read in
    real space projection operators read in
    PAW grid and wavefunctions read in
 
   number of l-projection  operators is LMAX  =           4
   number of lm-projection operators is LMMAX =           8
 
 POTCAR:    PAW_PBE H 15Jun2001                   
   SHA256 =  030f79b5d3ab3cf0e668861823c8fb652ff669f3e15e46930bd03bfd63a607b6 H/POTCAR              
   COPYR  = (c) Copyright 15Jun2001 Georg Kresse                                                    
   COPYR  = This file is part of the software VASP. Any use, copying, and all other rights are regul
   COPYR  = If you do not have a valid VASP license, you may not use, copy or distribute this file. 
   VRHFIN =H: ultrasoft test                                                                        
   LEXCH  = PE                                                                                      
   EATOM  =    12.4884 eV,    0.9179 Ry                                                             
                                                                                                    
   TITEL  = PAW_PBE H 15Jun2001                                                                     
   LULTRA =        F    use ultrasoft PP ?                                                          
   IUNSCR =        0    unscreen: 0-lin 1-nonlin 2-no                                               
   RPACOR =    0.000    partial core radius                                                         
   POMASS =    1.000; ZVAL   =    1.000    mass and valenz                                          
   RCORE  =    1.100    outmost cutoff radius                                                       
   RWIGS  =    0.700; RWIGS  =    0.370    wigner-seitz radius (au A)                               
   ENMAX  =  250.000; ENMIN  =  200.000 eV                                                          
   RCLOC  =    0.701    cutoff for local pot                                                        
   LCOR   =        T    correct aug charges                                                         
   LPAW   =        T    paw PP                                                                      
   EAUG   =  400.000                                                                                
   RMAX   =    1.123    core radius for proj-oper                                                   
   RAUG   =    1.200    factor for augmentation sphere                                              
   RDEP   =    1.112    radius for radial grids                                                     
   RDEPT  =    0.926    core radius for aug-charge                                                  
                                                                                                    
   Atomic configuration                                                                             
    2 entries                                                                                       
     n  l   j            E        occ.                                                              
     1  0  0.50        -6.4927   1.0000                                                             
     2  1  0.50        -3.4015   0.0000                                                             
   Description                                                                                      
     l       E           TYP  RCUT    TYP  RCUT                                                     
     0     -6.4927494     23  1.100                                                                 
     0      6.8029130     23  1.100                                                                 
     1     -4.0817478     23  1.100                                                                 
  local pseudopotential read in
  atomic valenz-charges read in
  non local Contribution for L=           0  read in
    real space projection operators read in
  non local Contribution for L=           0  read in
    real space projection operators read in
  non local Contribution for L=           1  read in
    real space projection operators read in
    PAW grid and wavefunctions read in
 
   number of l-projection  operators is LMAX  =           3
   number of lm-projection operators is LMMAX =           5
 
 POTCAR:    PAW_PBE Ti_pv 07Sep2000               
   SHA256 =  f757a1b2c6d082f4c628fa3d987464a8763bf92e53844ac0500b0e2ddc9ce5c0 Ti_pv/POTCAR          
   COPYR  = (c) Copyright 07Sep2000 Georg Kresse                                                    
   COPYR  = This file is part of the software VASP. Any use, copying, and all other rights are regul
   COPYR  = If you do not have a valid VASP license, you may not use, copy or distribute this file. 
   VRHFIN =Ti: d3 s1                                                                                
   LEXCH  = PE                                                                                      
   EATOM  =  1042.5995 eV,   76.6289 Ry                                                             
                                                                                                    
   TITEL  = PAW_PBE Ti_pv 07Sep2000                                                                 
   LULTRA =        F    use ultrasoft PP ?                                                          
   IUNSCR =        1    unscreen: 0-lin 1-nonlin 2-no                                               
   RPACOR =    2.200    partial core radius                                                         
   POMASS =   47.880; ZVAL   =   10.000    mass and valenz                                          
   RCORE  =    2.500    outmost cutoff radius                                                       
   RWIGS  =    2.500; RWIGS  =    1.323    wigner-seitz radius (au A)                               
   ENMAX  =  222.335; ENMIN  =  166.751 eV                                                          
   RCLOC  =    1.701    cutoff for local pot                                                        
   LCOR   =        T    correct aug charges                                                         
   LPAW   =        T    paw PP                                                                      
   EAUG   =  482.848                                                                                
   DEXC   =    0.000                                                                                
   RMAX   =    2.564    core radius for proj-oper                                                   
   RAUG   =    1.300    factor for augmentation sphere                                              
   RDEP   =    2.538    radius for radial grids                                                     
   RDEPT  =    1.952    core radius for aug-charge                                                  
                                                                                                    
   Atomic configuration                                                                             
    8 entries                                                                                       
     n  l   j            E        occ.                                                              
     1  0  0.50     -4865.3608   2.0000                                                             
     2  0  0.50      -533.1368   2.0000                                                             
     2  1  1.50      -440.5031   6.0000                                                             
     3  0  0.50       -59.3186   2.0000                                                             
     3  1  1.50       -35.7012   6.0000                                                             
     3  2  2.50        -1.9157   3.0000                                                             
     4  0  0.50        -3.7291   1.0000                                                             
     4  3  2.50        -1.3606   0.0000                                                             
   Description                                                                                      
     l       E           TYP  RCUT    TYP  RCUT                                                     
     1    -35.7012140     23  2.300                                                                 
     1     -1.3605826     23  2.300                                                                 
     2     -1.9156996     23  2.500                                                                 
     2     -0.4063033     23  2.500                                                                 
     0     -3.7290856     23  2.500                                                                 
     0     20.4087390     23  2.500                                                                 
  local pseudopotential read in
  partial core-charges read in
  partial kinetic energy density read in
  atomic valenz-charges read in
  non local Contribution for L=           1  read in
    real space projection operators read in
  non local Contribution for L=           1  read in
    real space projection operators read in
  non local Contribution for L=           2  read in
    real space projection operators read in
  non local Contribution for L=           2  read in
    real space projection operators read in
  non local Contribution for L=           0  read in
    real space projection operators read in
  non local Contribution for L=           0  read in
    real space projection operators read in
    PAW grid and wavefunctions read in
 
   number of l-projection  operators is LMAX  =           6
   number of lm-projection operators is LMMAX =          18
 
 POTCAR:    PAW_PBE O 08Apr2002                   
   SHA256 =  818f92134a0a090dccd8ba1447fa70422a3b330e708bb4f08108d8ae51209ddf O/POTCAR              
   COPYR  = (c) Copyright 08Apr2002 Georg Kresse                                                    
   COPYR  = This file is part of the software VASP. Any use, copying, and all other rights are regul
   COPYR  = If you do not have a valid VASP license, you may not use, copy or distribute this file. 
   VRHFIN =O: s2p4                                                                                  
   LEXCH  = PE                                                                                      
   EATOM  =   432.3788 eV,   31.7789 Ry                                                             
                                                                                                    
   TITEL  = PAW_PBE O 08Apr2002                                                                     
   LULTRA =        F    use ultrasoft PP ?                                                          
   IUNSCR =        1    unscreen: 0-lin 1-nonlin 2-no                                               
   RPACOR =    1.200    partial core radius                                                         
   POMASS =   16.000; ZVAL   =    6.000    mass and valenz                                          
   RCORE  =    1.520    outmost cutoff radius                                                       
   RWIGS  =    1.550; RWIGS  =    0.820    wigner-seitz radius (au A)                               
   ENMAX  =  400.000; ENMIN  =  300.000 eV                                                          
   ICORE  =        2    local potential                                                             
   LCOR   =        T    correct aug charges                                                         
   LPAW   =        T    paw PP                                                                      
   EAUG   =  605.392                                                                                
   DEXC   =    0.000                                                                                
   RMAX   =    1.553    core radius for proj-oper                                                   
   RAUG   =    1.300    factor for augmentation sphere                                              
   RDEP   =    1.550    radius for radial grids                                                     
   RDEPT  =    1.329    core radius for aug-charge                                                  
                                                                                                    
   Atomic configuration                                                                             
    4 entries                                                                                       
     n  l   j            E        occ.                                                              
     1  0  0.50      -514.6923   2.0000                                                             
     2  0  0.50       -23.9615   2.0000                                                             
     2  1  0.50        -9.0305   4.0000                                                             
     3  2  1.50        -9.5241   0.0000                                                             
   Description                                                                                      
     l       E           TYP  RCUT    TYP  RCUT                                                     
     0    -23.9615318     23  1.200                                                                 
     0     -9.5240782     23  1.200                                                                 
     1     -9.0304911     23  1.520                                                                 
     1      8.1634956     23  1.520                                                                 
     2     -9.5240782      7  1.500                                                                 
  local pseudopotential read in
  partial core-charges read in
  partial kinetic energy density read in
  kinetic energy density of atom read in
  atomic valenz-charges read in
  non local Contribution for L=           0  read in
    real space projection operators read in
  non local Contribution for L=           0  read in
    real space projection operators read in
  non local Contribution for L=           1  read in
    real space projection operators read in
  non local Contribution for L=           1  read in
    real space projection operators read in
    PAW grid and wavefunctions read in
 
   number of l-projection  operators is LMAX  =           4
   number of lm-projection operators is LMMAX =           8
 
 -----------------------------------------------------------------------------
|                                                                             |
|               ----> ADVICE to this user running VASP <----                  |
|                                                                             |
|     You have a (more or less) 'large supercell' and for larger cells it     |
|     might be more efficient to use real-space projection operators.         |
|     Therefore, try LREAL= Auto in the INCAR file.                           |
|     Mind: For very accurate calculation, you might also keep the            |
|     reciprocal projection scheme (i.e. LREAL=.FALSE.).                      |
|                                                                             |
 -----------------------------------------------------------------------------

 -----------------------------------------------------------------------------
|                                                                             |
|               ----> ADVICE to this user running VASP <----                  |
|                                                                             |
|     You enforced a specific xc type in the INCAR file but a different       |
|     type was found in the POTCAR file.                                      |
|     I HOPE YOU KNOW WHAT YOU ARE DOING!                                     |
|                                                                             |
 -----------------------------------------------------------------------------

  PAW_PBE C 08Apr2002                   :
 energy of atom  1       EATOM= -147.1560
 kinetic energy error for atom=    0.0057 (will be added to EATOM!!)
  PAW_PBE H 15Jun2001                   :
 energy of atom  2       EATOM=  -12.4884
 kinetic energy error for atom=    0.0004 (will be added to EATOM!!)
  PAW_PBE Ti_pv 07Sep2000               :
 energy of atom  3       EATOM=-1042.5995
 kinetic energy error for atom=    0.0007 (will be added to EATOM!!)
  PAW_PBE O 08Apr2002                   :
 energy of atom  4       EATOM= -432.3788
 kinetic energy error for atom=    0.0168 (will be added to EATOM!!)
 
 
 POSCAR:  C  H Ti  O
  positions in direct lattice
  No initial velocities read in
 exchange correlation table for  LEXCH =       43
   RHO(1)=    0.500       N(1)  =     2000
   RHO(2)=  100.500       N(2)  =     4000
 


--------------------------------------------------------------------------------------------------------


 ion  position               nearest neighbor table
   1  0.500  0.500  0.812-   2 1.10   3 1.10   4 1.10   5 1.10
   2  0.496  0.576  0.832-   1 1.10
   3  0.504  0.424  0.832-   1 1.10
   4  0.571  0.504  0.792-   1 1.10
   5  0.430  0.496  0.792-   1 1.10
   6  0.750  0.625  0.287-  86 1.96  87 1.96 146 1.96 147 1.96 168 1.99  89 1.99  16 2.96  36 2.96

   7  0.000  0.750  0.287-  89 1.96 109 1.96 108 1.96  88 1.96  90 1.99  37 2.96  17 2.96
   8  0.000  0.625  0.393-  90 1.96  91 1.96 150 1.96 151 1.96  92 1.99  93 1.99  18 2.96  38 2.96

   9  0.750  0.750  0.393- 173 1.96 193 1.96  92 1.96 112 1.96  94 1.99  87 1.99  19 2.96  39 2.96

  10  0.750  0.625  0.500-  94 1.96  95 1.96 154 1.96 155 1.96 176 1.99  97 1.99  20 2.96  40 2.96

  11  0.000  0.750  0.500-  97 1.96 117 1.96 116 1.96  96 1.96  91 1.99  98 2.00  21 2.96  41 2.96

  12  1.000  0.625  0.604-  98 1.90 158 1.90 100 1.96 101 1.96 159 2.02  99 2.02  22 2.96  42 2.96

  13  0.750  0.750  0.611- 102 1.87 201 1.98 181 1.98 100 1.98 120 1.98  95 2.11  23 2.96  43 2.96

  14  0.750  0.625  0.720- 103 1.83 163 1.84 105 2.04 184 2.04 102 2.10 162 2.10  24 2.96  44 2.96

  15  0.000  0.750  0.709-  99 1.82 124 1.95 125 1.95 104 1.95 105 1.95  25 2.96  45 2.96
  16  0.750  0.875  0.287-  86 1.96  87 1.96 106 1.96 107 1.96 188 1.99 109 1.99   6 2.96  26 2.96

  17  0.000  0.000  0.287- 109 1.96 129 1.96 128 1.96 108 1.96 110 1.99  27 2.96   7 2.96
  18  0.000  0.875  0.393-  90 1.96  91 1.96 110 1.96 111 1.96 112 1.99 113 1.99   8 2.96  28 2.96

  19  0.750  0.000  0.393- 193 1.96 213 1.96 112 1.96 132 1.96 114 1.99 107 1.99   9 2.96  29 2.96

  20  0.750  0.875  0.500-  94 1.96  95 1.96 114 1.96 115 1.96 196 1.99 117 1.99  10 2.96  30 2.96

  21  0.000  0.000  0.500- 117 1.96 137 1.96 136 1.96 116 1.96 111 1.99 118 2.00  11 2.96  31 2.96

  22  1.000  0.875  0.604- 118 1.90  98 1.90 120 1.96 121 1.96 119 2.02  99 2.02  32 2.96  12 2.96

  23  0.750  0.000  0.611- 122 1.87 221 1.98 201 1.98 140 1.98 120 1.98 115 2.11  33 2.96  13 2.96

  24  0.750  0.875  0.720- 123 1.83 103 1.83 204 2.04 125 2.04 122 2.10 102 2.10  14 2.96  34 2.96

  25  1.000  1.000  0.709- 119 1.82 125 1.95 144 1.95 145 1.95 124 1.95  15 2.96  35 2.96
  26  0.750  0.125  0.287- 106 1.96 107 1.96 126 1.96 127 1.96 208 1.99 129 1.99  16 2.96  36 2.96

  27  0.000  0.250  0.287- 129 1.96 149 1.96 148 1.96 128 1.96 130 1.99  37 2.96  17 2.96
  28  0.000  0.125  0.393- 110 1.96 111 1.96 130 1.96 131 1.96 132 1.99 133 1.99  18 2.96  38 2.96

  29  0.750  0.250  0.393- 213 1.96 233 1.96 132 1.96 152 1.96 134 1.99 127 1.99  19 2.96  39 2.96

  30  0.750  0.125  0.500- 114 1.96 115 1.96 134 1.96 135 1.96 216 1.99 137 1.99  20 2.96  40 2.96

  31  0.000  0.250  0.500- 137 1.96 157 1.96 156 1.96 136 1.96 131 1.99 138 2.00  21 2.96  41 2.96

  32  0.000  0.125  0.604- 118 1.90 138 1.90 141 1.96 140 1.96 119 2.02 139 2.02  22 2.96  42 2.96

  33  0.750  0.250  0.611- 142 1.87 221 1.98 241 1.98 160 1.98 140 1.98 135 2.11  23 2.96  43 2.96

  34  0.750  0.125  0.720- 123 1.83 143 1.83 224 2.04 145 2.04 122 2.10 142 2.10  44 2.96  24 2.96

  35  1.000  0.250  0.709- 139 1.82 145 1.95 144 1.95 165 1.95 164 1.95  25 2.96  45 2.96
  36  0.750  0.375  0.287- 126 1.96 127 1.96 146 1.96 147 1.96 228 1.99 149 1.99   6 2.96  26 2.96

  37  0.000  0.500  0.287-  89 1.96 149 1.96 148 1.96  88 1.96 150 1.99  27 2.96   7 2.96
  38  0.000  0.375  0.393- 130 1.96 131 1.96 150 1.96 151 1.96 152 1.99 153 1.99   8 2.96  28 2.96

  39  0.750  0.500  0.393- 173 1.96 233 1.96  92 1.96 152 1.96 147 1.99 154 1.99   9 2.96  29 2.96

  40  0.750  0.375  0.500- 134 1.96 135 1.96 154 1.96 155 1.96 236 1.99 157 1.99  10 2.96  30 2.96

  41  0.000  0.500  0.500-  97 1.96 157 1.96 156 1.96  96 1.96 151 1.99 158 2.00  11 2.96  31 2.96

  42  0.000  0.375  0.604- 138 1.90 158 1.90 161 1.96 160 1.96 159 2.02 139 2.02  32 2.96  12 2.96

  43  0.750  0.500  0.611- 162 1.87 241 1.98 181 1.98 160 1.98 100 1.98 155 2.11  33 2.96  13 2.96

  44  0.750  0.375  0.720- 143 1.83 163 1.84 165 2.04 244 2.04 142 2.10 162 2.10  34 2.96  14 2.96

  45  0.000  0.500  0.709- 159 1.82 164 1.95 105 1.95 104 1.95 165 1.95  15 2.96  35 2.96
  46  0.250  0.625  0.287- 166 1.96 167 1.96 226 1.96 227 1.96  88 1.99 169 1.99  56 2.96  76 2.96

  47  0.500  0.750  0.287- 169 1.96 189 1.96 188 1.96 168 1.96 170 1.99  77 2.96  57 2.96
  48  0.500  0.625  0.393- 170 1.96 171 1.96 230 1.96 231 1.96 172 1.99 173 1.99  58 2.96  78 2.96

  49  0.250  0.750  0.393-  93 1.96 113 1.96 172 1.96 192 1.96 174 1.99 167 1.99  59 2.96  79 2.96

  50  0.250  0.625  0.500- 174 1.96 175 1.96 234 1.96 235 1.96  96 1.99 177 1.99  60 2.96  80 2.96

  51  0.500  0.750  0.500- 177 1.96 197 1.96 196 1.96 176 1.96 171 1.99 178 2.01  61 2.96  81 2.96

  52  0.500  0.625  0.605- 238 1.90 178 1.91 180 1.96 181 1.96 179 2.02 239 2.02  82 2.95  62 2.96

  53  0.250  0.750  0.611- 182 1.87 200 1.98 180 1.98 101 1.98 121 1.98 175 2.11  63 2.96  83 2.96

  54  0.250  0.625  0.720- 183 1.83 243 1.84 104 2.04 185 2.04 182 2.10 242 2.10  64 2.96  84 2.96

  55  0.500  0.750  0.708- 179 1.82 184 1.94 185 1.94 204 1.95 205 1.95  65 2.96  85 2.96
  56  0.250  0.875  0.287- 166 1.96 167 1.96 186 1.96 187 1.96 108 1.99 189 1.99  46 2.96  66 2.96

  57  0.500  0.000  0.287- 189 1.96 209 1.96 208 1.96 188 1.96 190 1.99  67 2.96  47 2.96
  58  0.500  0.875  0.393- 170 1.96 171 1.96 190 1.96 191 1.96 192 1.99 193 1.99  48 2.96  68 2.96

  59  0.250  0.000  0.393- 113 1.96 133 1.96 192 1.96 212 1.96 194 1.99 187 1.99  49 2.96  69 2.96

  60  0.250  0.875  0.500- 174 1.96 175 1.96 194 1.96 195 1.96 116 1.99 197 1.99  50 2.96  70 2.96

  61  0.500  0.000  0.500- 197 1.96 217 1.96 216 1.96 196 1.96 191 1.99 198 2.00  51 2.96  71 2.96

  62  0.500  0.875  0.604- 178 1.90 198 1.90 200 1.96 201 1.96 179 2.01 199 2.02  52 2.96  72 2.97

  63  0.250  1.000  0.611- 202 1.87 200 1.98 220 1.98 121 1.98 141 1.98 195 2.11  53 2.96  73 2.96

  64  0.250  0.875  0.720- 203 1.83 183 1.83 205 2.04 124 2.04 202 2.10 182 2.10  54 2.96  74 2.96

  65  0.500  1.000  0.708- 199 1.82 205 1.95 224 1.95 225 1.95 204 1.95  55 2.96  75 2.96
  66  0.250  0.125  0.287- 186 1.96 187 1.96 206 1.96 207 1.96 128 1.99 209 1.99  56 2.96  76 2.96

  67  0.500  0.250  0.287- 209 1.96 229 1.96 228 1.96 208 1.96 210 1.99  77 2.96  57 2.96
  68  0.500  0.125  0.393- 190 1.96 191 1.96 210 1.96 211 1.96 212 1.99 213 1.99  58 2.96  78 2.96

  69  0.250  0.250  0.393- 133 1.96 153 1.96 212 1.96 232 1.96 214 1.99 207 1.99  59 2.96  79 2.96

  70  0.250  0.125  0.500- 194 1.96 195 1.96 214 1.96 215 1.96 136 1.99 217 1.99  60 2.96  80 2.96

  71  0.500  0.250  0.500- 217 1.96 237 1.96 236 1.96 216 1.96 211 1.99 218 2.01  61 2.96  81 2.96

  72  0.500  0.125  0.604- 218 1.90 198 1.90 221 1.96 220 1.96 219 2.01 199 2.02  82 2.96  62 2.97

  73  0.250  0.250  0.611- 222 1.87 220 1.98 240 1.98 161 1.98 141 1.98 215 2.11  63 2.96  83 2.96

  74  0.250  0.125  0.720- 203 1.83 223 1.83 225 2.04 144 2.04 202 2.10 222 2.10  84 2.96  64 2.96

  75  0.500  0.250  0.708- 219 1.82 245 1.94 244 1.94 225 1.95 224 1.95  65 2.96  85 2.96
  76  0.250  0.375  0.287- 206 1.96 207 1.96 226 1.96 227 1.96 148 1.99 229 1.99  46 2.96  66 2.96

  77  0.500  0.500  0.287- 169 1.96 229 1.96 228 1.96 168 1.96 230 1.99  67 2.96  47 2.96
  78  0.500  0.375  0.393- 210 1.96 211 1.96 230 1.96 231 1.96 232 1.99 233 1.99  48 2.96  68 2.96

  79  0.250  0.500  0.393-  93 1.96 153 1.96 172 1.96 232 1.96 227 1.99 234 1.99  49 2.96  69 2.96

  80  0.250  0.375  0.500- 214 1.96 215 1.96 234 1.96 235 1.96 156 1.99 237 1.99  50 2.96  70 2.96

  81  0.500  0.500  0.500- 177 1.96 237 1.96 236 1.96 176 1.96 231 1.99 238 2.01  51 2.96  71 2.96

  82  0.500  0.375  0.605- 238 1.90 218 1.91 241 1.96 240 1.96 219 2.02 239 2.02  52 2.95  72 2.96

  83  0.250  0.500  0.611- 242 1.87 180 1.98 240 1.98 101 1.98 161 1.98 235 2.11  53 2.96  73 2.96

  84  0.250  0.375  0.720- 223 1.83 243 1.84 164 2.04 245 2.04 222 2.10 242 2.10  74 2.96  54 2.96

  85  0.500  0.500  0.710- 239 1.83 244 1.95 185 1.95 184 1.95 245 1.95  75 2.96  55 2.96
  86  0.750  0.750  0.245-   6 1.96  16 1.96
  87  0.750  0.750  0.328-   6 1.96  16 1.96   9 1.99
  88  0.098  0.625  0.287-   7 1.96  37 1.96  46 1.99
  89  0.902  0.625  0.287-   7 1.96  37 1.96   6 1.99
  90  0.000  0.750  0.352-   8 1.96  18 1.96   7 1.99
  91  0.000  0.750  0.435-   8 1.96  18 1.96  11 1.99
  92  0.848  0.625  0.393-   9 1.96  39 1.96   8 1.99
  93  0.152  0.625  0.393-  49 1.96  79 1.96   8 1.99
  94  0.750  0.750  0.458-  10 1.96  20 1.96   9 1.99
  95  0.750  0.750  0.542-  10 1.96  20 1.96  13 2.11
  96  0.098  0.625  0.500-  11 1.96  41 1.96  50 1.99
  97  0.902  0.625  0.500-  11 1.96  41 1.96  10 1.99
  98  1.000  0.750  0.565-  12 1.90  22 1.90  11 2.00
  99  0.000  0.750  0.649-  15 1.82  22 2.02  12 2.02
 100  0.850  0.625  0.607-  12 1.96  13 1.98  43 1.98
 101  0.150  0.625  0.607-  12 1.96  53 1.98  83 1.98
 102  0.750  0.750  0.672-  13 1.87  14 2.10  24 2.10
 103  0.750  0.750  0.756-  14 1.83  24 1.83
 104  0.094  0.625  0.719-  45 1.95  15 1.95  54 2.04
 105  0.906  0.625  0.719-  45 1.95  15 1.95  14 2.04
 106  0.750  0.000  0.245-  16 1.96  26 1.96
 107  0.750  0.000  0.328-  16 1.96  26 1.96  19 1.99
 108  0.098  0.875  0.287-   7 1.96  17 1.96  56 1.99
 109  0.902  0.875  0.287-   7 1.96  17 1.96  16 1.99
 110  0.000  0.000  0.352-  18 1.96  28 1.96  17 1.99
 111  0.000  0.000  0.435-  18 1.96  28 1.96  21 1.99
 112  0.848  0.875  0.393-   9 1.96  19 1.96  18 1.99
 113  0.152  0.875  0.393-  49 1.96  59 1.96  18 1.99
 114  0.750  0.000  0.458-  20 1.96  30 1.96  19 1.99
 115  0.750  0.000  0.542-  20 1.96  30 1.96  23 2.11
 116  0.098  0.875  0.500-  11 1.96  21 1.96  60 1.99
 117  0.902  0.875  0.500-  11 1.96  21 1.96  20 1.99
 118  0.000  1.000  0.565-  32 1.90  22 1.90  21 2.00
 119  1.000  1.000  0.649-  25 1.82  22 2.02  32 2.02
 120  0.850  0.875  0.607-  22 1.96  13 1.98  23 1.98
 121  0.150  0.875  0.607-  22 1.96  53 1.98  63 1.98
 122  0.750  0.000  0.672-  23 1.87  24 2.10  34 2.10
 123  0.750  0.000  0.756-  24 1.83  34 1.83
 124  0.094  0.875  0.719-  15 1.95  25 1.95  64 2.04
 125  0.906  0.875  0.719-  15 1.95  25 1.95  24 2.04
 126  0.750  0.250  0.245-  26 1.96  36 1.96
 127  0.750  0.250  0.328-  26 1.96  36 1.96  29 1.99
 128  0.098  0.125  0.287-  17 1.96  27 1.96  66 1.99
 129  0.902  0.125  0.287-  17 1.96  27 1.96  26 1.99
 130  0.000  0.250  0.352-  28 1.96  38 1.96  27 1.99
 131  0.000  0.250  0.435-  28 1.96  38 1.96  31 1.99
 132  0.848  0.125  0.393-  19 1.96  29 1.96  28 1.99
 133  0.152  0.125  0.393-  59 1.96  69 1.96  28 1.99
 134  0.750  0.250  0.458-  30 1.96  40 1.96  29 1.99
 135  0.750  0.250  0.542-  30 1.96  40 1.96  33 2.11
 136  0.098  0.125  0.500-  21 1.96  31 1.96  70 1.99
 137  0.902  0.125  0.500-  21 1.96  31 1.96  30 1.99
 138  0.000  0.250  0.565-  42 1.90  32 1.90  31 2.00
 139  1.000  0.250  0.649-  35 1.82  32 2.02  42 2.02
 140  0.850  0.125  0.607-  32 1.96  33 1.98  23 1.98
 141  0.150  0.125  0.607-  32 1.96  73 1.98  63 1.98
 142  0.750  0.250  0.672-  33 1.87  44 2.10  34 2.10
 143  0.750  0.250  0.756-  44 1.83  34 1.83
 144  0.094  0.125  0.719-  35 1.95  25 1.95  74 2.04
 145  0.906  0.125  0.719-  35 1.95  25 1.95  34 2.04
 146  0.750  0.500  0.245-   6 1.96  36 1.96
 147  0.750  0.500  0.328-   6 1.96  36 1.96  39 1.99
 148  0.098  0.375  0.287-  27 1.96  37 1.96  76 1.99
 149  0.902  0.375  0.287-  27 1.96  37 1.96  36 1.99
 150  0.000  0.500  0.352-   8 1.96  38 1.96  37 1.99
 151  0.000  0.500  0.435-   8 1.96  38 1.96  41 1.99
 152  0.848  0.375  0.393-  29 1.96  39 1.96  38 1.99
 153  0.152  0.375  0.393-  69 1.96  79 1.96  38 1.99
 154  0.750  0.500  0.458-  10 1.96  40 1.96  39 1.99
 155  0.750  0.500  0.542-  10 1.96  40 1.96  43 2.11
 156  0.098  0.375  0.500-  31 1.96  41 1.96  80 1.99
 157  0.902  0.375  0.500-  31 1.96  41 1.96  40 1.99
 158  0.000  0.500  0.565-  42 1.90  12 1.90  41 2.00
 159  0.000  0.500  0.649-  45 1.82  42 2.02  12 2.02
 160  0.850  0.375  0.607-  42 1.96  33 1.98  43 1.98
 161  0.150  0.375  0.607-  42 1.96  73 1.98  83 1.98
 162  0.751  0.500  0.672-  43 1.87  14 2.10  44 2.10
 163  0.749  0.500  0.756-  44 1.84  14 1.84
 164  0.094  0.375  0.719-  45 1.95  35 1.95  84 2.04
 165  0.906  0.375  0.719-  45 1.95  35 1.95  44 2.04
 166  0.250  0.750  0.245-  46 1.96  56 1.96
 167  0.250  0.750  0.328-  46 1.96  56 1.96  49 1.99
 168  0.598  0.625  0.287-  47 1.96  77 1.96   6 1.99
 169  0.402  0.625  0.287-  47 1.96  77 1.96  46 1.99
 170  0.500  0.750  0.352-  48 1.96  58 1.96  47 1.99
 171  0.500  0.750  0.435-  48 1.96  58 1.96  51 1.99
 172  0.348  0.625  0.393-  49 1.96  79 1.96  48 1.99
 173  0.652  0.625  0.393-   9 1.96  39 1.96  48 1.99
 174  0.250  0.750  0.458-  50 1.96  60 1.96  49 1.99
 175  0.250  0.750  0.542-  50 1.96  60 1.96  53 2.11
 176  0.598  0.625  0.500-  51 1.96  81 1.96  10 1.99
 177  0.402  0.625  0.500-  51 1.96  81 1.96  50 1.99
 178  0.500  0.750  0.566-  62 1.90  52 1.91  51 2.01
 179  0.500  0.750  0.649-  55 1.82  62 2.01  52 2.02
 180  0.350  0.625  0.607-  52 1.96  83 1.98  53 1.98
 181  0.650  0.625  0.607-  52 1.96  43 1.98  13 1.98
 182  0.250  0.750  0.672-  53 1.87  54 2.10  64 2.10
 183  0.250  0.750  0.756-  54 1.83  64 1.83
 184  0.594  0.626  0.718-  55 1.94  85 1.95  14 2.04
 185  0.406  0.626  0.719-  55 1.94  85 1.95  54 2.04
 186  0.250  0.000  0.245-  56 1.96  66 1.96
 187  0.250  0.000  0.328-  56 1.96  66 1.96  59 1.99
 188  0.598  0.875  0.287-  47 1.96  57 1.96  16 1.99
 189  0.402  0.875  0.287-  47 1.96  57 1.96  56 1.99
 190  0.500  0.000  0.352-  58 1.96  68 1.96  57 1.99
 191  0.500  0.000  0.435-  58 1.96  68 1.96  61 1.99
 192  0.348  0.875  0.393-  49 1.96  59 1.96  58 1.99
 193  0.652  0.875  0.393-   9 1.96  19 1.96  58 1.99
 194  0.250  0.000  0.458-  60 1.96  70 1.96  59 1.99
 195  0.250  0.000  0.542-  60 1.96  70 1.96  63 2.11
 196  0.598  0.875  0.500-  51 1.96  61 1.96  20 1.99
 197  0.402  0.875  0.500-  51 1.96  61 1.96  60 1.99
 198  0.500  1.000  0.565-  72 1.90  62 1.90  61 2.00
 199  0.500  0.000  0.649-  65 1.82  62 2.02  72 2.02
 200  0.350  0.875  0.607-  62 1.96  63 1.98  53 1.98
 201  0.650  0.875  0.607-  62 1.96  23 1.98  13 1.98
 202  0.250  1.000  0.672-  63 1.87  74 2.10  64 2.10
 203  0.250  1.000  0.756-  74 1.83  64 1.83
 204  0.594  0.875  0.719-  65 1.95  55 1.95  24 2.04
 205  0.406  0.875  0.719-  65 1.95  55 1.95  64 2.04
 206  0.250  0.250  0.245-  66 1.96  76 1.96
 207  0.250  0.250  0.328-  66 1.96  76 1.96  69 1.99
 208  0.598  0.125  0.287-  57 1.96  67 1.96  26 1.99
 209  0.402  0.125  0.287-  57 1.96  67 1.96  66 1.99
 210  0.500  0.250  0.352-  68 1.96  78 1.96  67 1.99
 211  0.500  0.250  0.435-  68 1.96  78 1.96  71 1.99
 212  0.348  0.125  0.393-  59 1.96  69 1.96  68 1.99
 213  0.652  0.125  0.393-  19 1.96  29 1.96  68 1.99
 214  0.250  0.250  0.458-  70 1.96  80 1.96  69 1.99
 215  0.250  0.250  0.542-  70 1.96  80 1.96  73 2.11
 216  0.598  0.125  0.500-  61 1.96  71 1.96  30 1.99
 217  0.402  0.125  0.500-  61 1.96  71 1.96  70 1.99
 218  0.500  0.250  0.566-  72 1.90  82 1.91  71 2.01
 219  0.500  0.250  0.649-  75 1.82  72 2.01  82 2.02
 220  0.350  0.125  0.607-  72 1.96  63 1.98  73 1.98
 221  0.650  0.125  0.607-  72 1.96  23 1.98  33 1.98
 222  0.250  0.250  0.672-  73 1.87  84 2.10  74 2.10
 223  0.250  0.250  0.756-  84 1.83  74 1.83
 224  0.594  0.125  0.719-  65 1.95  75 1.95  34 2.04
 225  0.406  0.125  0.719-  65 1.95  75 1.95  74 2.04
 226  0.250  0.500  0.245-  46 1.96  76 1.96
 227  0.250  0.500  0.328-  46 1.96  76 1.96  79 1.99
 228  0.598  0.375  0.287-  67 1.96  77 1.96  36 1.99
 229  0.402  0.375  0.287-  67 1.96  77 1.96  76 1.99
 230  0.500  0.500  0.352-  48 1.96  78 1.96  77 1.99
 231  0.500  0.500  0.435-  48 1.96  78 1.96  81 1.99
 232  0.348  0.375  0.393-  69 1.96  79 1.96  78 1.99
 233  0.652  0.375  0.393-  29 1.96  39 1.96  78 1.99
 234  0.250  0.500  0.458-  50 1.96  80 1.96  79 1.99
 235  0.250  0.500  0.542-  50 1.96  80 1.96  83 2.11
 236  0.598  0.375  0.500-  71 1.96  81 1.96  40 1.99
 237  0.402  0.375  0.500-  71 1.96  81 1.96  80 1.99
 238  0.500  0.500  0.566-  82 1.90  52 1.90  81 2.01
 239  0.500  0.500  0.650-  85 1.83  82 2.02  52 2.02
 240  0.350  0.375  0.607-  82 1.96  83 1.98  73 1.98
 241  0.650  0.375  0.607-  82 1.96  43 1.98  33 1.98
 242  0.249  0.500  0.672-  83 1.87  84 2.10  54 2.10
 243  0.251  0.500  0.756-  54 1.84  84 1.84
 244  0.594  0.374  0.719-  75 1.94  85 1.95  44 2.04
 245  0.406  0.374  0.718-  75 1.94  85 1.95  84 2.04
 

IMPORTANT INFORMATION: All symmetrisations will be switched off!
NOSYMM: (Re-)initialisation of all symmetry stuff for point group C_1.


----------------------------------------------------------------------------------------

                                     Primitive cell                                     

  volume of cell :    4737.1524

  direct lattice vectors                    reciprocal lattice vectors
    13.061127704  0.000000000  0.000000000     0.076563067  0.000000000  0.000000000
     0.000000000 11.845298948  0.000000000     0.000000000  0.084421677  0.000000000
     0.000000000  0.000000000 30.618975621     0.000000000  0.000000000  0.032659486

  length of vectors
    13.061127704 11.845298948 30.618975621     0.076563067  0.084421677  0.032659486

  position of ions in fractional coordinates (direct lattice)
     0.500059689  0.500008011  0.811837894
     0.496252497  0.575784910  0.832394015
     0.503872442  0.424211505  0.832398826
     0.570598932  0.504156823  0.792221298
     0.429504262  0.495833918  0.792227117
     0.750000000  0.625000000  0.286715143
     0.000000000  0.750000000  0.286715143
     0.000000000  0.625000000  0.393357571
     0.750000000  0.750000000  0.393357571
     0.750000000  0.625000000  0.500000000
     0.000000000  0.750000000  0.500000000
     0.999999625  0.625015376  0.604444969
     0.750030164  0.750039124  0.610671635
     0.750207450  0.625164804  0.720210052
     0.000022175  0.750121738  0.708568275
     0.750000000  0.875000000  0.286715143
     0.000000000  0.000000000  0.286715143
     0.000000000  0.875000000  0.393357571
     0.750000000  0.000000000  0.393357571
     0.750000000  0.875000000  0.500000000
     0.000000000  0.000000000  0.500000000
     0.999996762  0.875018295  0.604461287
     0.749966535  0.000002502  0.610731719
     0.749856862  0.875049787  0.720416936
     0.999999875  0.999999989  0.708576685
     0.750000000  0.125000000  0.286715143
     0.000000000  0.250000000  0.286715143
     0.000000000  0.125000000  0.393357571
     0.750000000  0.250000000  0.393357571
     0.750000000  0.125000000  0.500000000
     0.000000000  0.250000000  0.500000000
     0.000003328  0.124981688  0.604461284
     0.750029610  0.249962992  0.610681858
     0.749839637  0.124964502  0.720420132
     0.999978510  0.249878242  0.708568270
     0.750000000  0.375000000  0.286715143
     0.000000000  0.500000000  0.286715143
     0.000000000  0.375000000  0.393357571
     0.750000000  0.500000000  0.393357571
     0.750000000  0.375000000  0.500000000
     0.000000000  0.500000000  0.500000000
     0.000000454  0.374984630  0.604444972
     0.750054049  0.499997446  0.610684810
     0.750156935  0.374872934  0.720244024
     0.000000529  0.499999997  0.708549465
     0.250000000  0.625000000  0.286715143
     0.500000000  0.750000000  0.286715143
     0.500000000  0.625000000  0.393357571
     0.250000000  0.750000000  0.393357571
     0.250000000  0.625000000  0.500000000
     0.500000000  0.750000000  0.500000000
     0.499999015  0.624590740  0.604831395
     0.249970471  0.750036919  0.610682017
     0.249844431  0.625126597  0.720244699
     0.500006285  0.750056596  0.708432550
     0.250000000  0.875000000  0.286715143
     0.500000000  0.000000000  0.286715143
     0.500000000  0.875000000  0.393357571
     0.250000000  0.000000000  0.393357571
     0.250000000  0.875000000  0.500000000
     0.500000000  0.000000000  0.500000000
     0.499998080  0.874803564  0.604277912
     0.250033427  0.999997508  0.610731697
     0.250160407  0.875035446  0.720420134
     0.500000036  0.999999948  0.708401382
     0.250000000  0.125000000  0.286715143
     0.500000000  0.250000000  0.286715143
     0.500000000  0.125000000  0.393357571
     0.250000000  0.250000000  0.393357571
     0.250000000  0.125000000  0.500000000
     0.500000000  0.250000000  0.500000000
     0.500001766  0.125196399  0.604277881
     0.249969966  0.249961038  0.610671802
     0.250143144  0.124950226  0.720416889
     0.499993689  0.249943414  0.708432488
     0.250000000  0.375000000  0.286715143
     0.500000000  0.500000000  0.286715143
     0.500000000  0.375000000  0.393357571
     0.250000000  0.500000000  0.393357571
     0.250000000  0.375000000  0.500000000
     0.500000000  0.500000000  0.500000000
     0.500001063  0.375409317  0.604831408
     0.249946083  0.500002571  0.610685065
     0.249793898  0.374835707  0.720210642
     0.500001624  0.499999829  0.709593157
     0.750000000  0.750000000  0.244946144
     0.750000000  0.750000000  0.328484141
     0.097918341  0.625000000  0.286715143
     0.902081659  0.625000000  0.286715143
     0.000000000  0.750000000  0.351588572
     0.000000000  0.750000000  0.435126570
     0.847918341  0.625000000  0.393357571
     0.152081659  0.625000000  0.393357571
     0.750000000  0.750000000  0.458231001
     0.750000000  0.750000000  0.541768999
     0.097918341  0.625000000  0.500000000
     0.902081659  0.625000000  0.500000000
     0.999999900  0.750032945  0.565471076
     0.000004801  0.750007638  0.649223528
     0.850124881  0.625047457  0.607164630
     0.149876456  0.625052484  0.607165541
     0.750368042  0.750181755  0.671772440
     0.749882077  0.749860930  0.755650582
     0.093898920  0.624949304  0.719113374
     0.906119810  0.624962523  0.719103665
     0.750000000  0.000000000  0.244946144
     0.750000000  0.000000000  0.328484141
     0.097918341  0.875000000  0.286715143
     0.902081659  0.875000000  0.286715143
     0.000000000  0.000000000  0.351588572
     0.000000000  0.000000000  0.435126570
     0.847918341  0.875000000  0.393357571
     0.152081659  0.875000000  0.393357571
     0.750000000  0.000000000  0.458231001
     0.750000000  0.000000000  0.541768999
     0.097918341  0.875000000  0.500000000
     0.902081659  0.875000000  0.500000000
     0.000000050  0.999999991  0.565471871
     0.999999974  0.999999995  0.649225155
     0.850108863  0.875055088  0.607189030
     0.149895764  0.875046758  0.607195192
     0.750033745  0.000000734  0.671830460
     0.750150417  0.000001588  0.755718075
     0.093905726  0.874983891  0.719066442
     0.906108610  0.874977469  0.719070733
     0.750000000  0.250000000  0.244946144
     0.750000000  0.250000000  0.328484141
     0.097918341  0.125000000  0.286715143
     0.902081659  0.125000000  0.286715143
     0.000000000  0.250000000  0.351588572
     0.000000000  0.250000000  0.435126570
     0.847918341  0.125000000  0.393357571
     0.152081659  0.125000000  0.393357571
     0.750000000  0.250000000  0.458231001
     0.750000000  0.250000000  0.541768999
     0.097918341  0.125000000  0.500000000
     0.902081659  0.125000000  0.500000000
     0.000000116  0.249967047  0.565471073
     0.999995341  0.249992356  0.649223523
     0.850104257  0.124953044  0.607195126
     0.149891167  0.124945083  0.607189091
     0.750317104  0.249853366  0.671784174
     0.749899249  0.250136068  0.755662199
     0.093891664  0.125022411  0.719070665
     0.906094547  0.125016198  0.719066498
     0.750000000  0.500000000  0.244946144
     0.750000000  0.500000000  0.328484141
     0.097918341  0.375000000  0.286715143
     0.902081659  0.375000000  0.286715143
     0.000000000  0.500000000  0.351588572
     0.000000000  0.500000000  0.435126570
     0.847918341  0.375000000  0.393357571
     0.152081659  0.375000000  0.393357571
     0.750000000  0.500000000  0.458231001
     0.750000000  0.500000000  0.541768999
     0.097918341  0.375000000  0.500000000
     0.902081659  0.375000000  0.500000000
     0.000000021  0.499999998  0.565469045
     0.000000060  0.499999996  0.649208764
     0.850123620  0.374947414  0.607165411
     0.149875216  0.374952635  0.607164762
     0.750544450  0.499979557  0.671746948
     0.749058654  0.500045059  0.755582757
     0.093880949  0.375037570  0.719103784
     0.906101845  0.375050610  0.719113225
     0.250000000  0.750000000  0.244946144
     0.250000000  0.750000000  0.328484141
     0.597918341  0.625000000  0.286715143
     0.402081659  0.625000000  0.286715143
     0.500000000  0.750000000  0.351588572
     0.500000000  0.750000000  0.435126570
     0.347918341  0.625000000  0.393357571
     0.652081659  0.625000000  0.393357571
     0.250000000  0.750000000  0.458231001
     0.250000000  0.750000000  0.541768999
     0.597918341  0.625000000  0.500000000
     0.402081659  0.625000000  0.500000000
     0.500001245  0.749567065  0.565510926
     0.499972928  0.750448639  0.649107304
     0.350001777  0.624995548  0.607330680
     0.649997469  0.625001226  0.607334518
     0.249683958  0.750146089  0.671784322
     0.250100884  0.749864266  0.755662366
     0.594263935  0.625762910  0.718453797
     0.405807508  0.625719287  0.718552639
     0.250000000  0.000000000  0.244946144
     0.250000000  0.000000000  0.328484141
     0.597918341  0.875000000  0.286715143
     0.402081659  0.875000000  0.286715143
     0.500000000  0.000000000  0.351588572
     0.500000000  0.000000000  0.435126570
     0.347918341  0.875000000  0.393357571
     0.652081659  0.875000000  0.393357571
     0.250000000  0.000000000  0.458231001
     0.250000000  0.000000000  0.541768999
     0.597918341  0.875000000  0.500000000
     0.402081659  0.875000000  0.500000000
     0.499999992  0.999999994  0.565382275
     0.500000038  0.000000003  0.649075551
     0.349992066  0.875009555  0.607164665
     0.650004304  0.875006875  0.607165718
     0.249966211  0.999999240  0.671830391
     0.249849731  0.999998361  0.755718015
     0.593954717  0.875166614  0.719044264
     0.406043592  0.875181108  0.719044999
     0.250000000  0.250000000  0.244946144
     0.250000000  0.250000000  0.328484141
     0.597918341  0.125000000  0.286715143
     0.402081659  0.125000000  0.286715143
     0.500000000  0.250000000  0.351588572
     0.500000000  0.250000000  0.435126570
     0.347918341  0.125000000  0.393357571
     0.652081659  0.125000000  0.393357571
     0.250000000  0.250000000  0.458231001
     0.250000000  0.250000000  0.541768999
     0.597918341  0.125000000  0.500000000
     0.402081659  0.125000000  0.500000000
     0.499998751  0.250432962  0.565510930
     0.500026298  0.249551309  0.649107235
     0.349995688  0.124993068  0.607165692
     0.650007905  0.124990495  0.607164689
     0.249632971  0.249818755  0.671772569
     0.250117856  0.250138699  0.755650700
     0.593956576  0.124818931  0.719044989
     0.406045411  0.124833084  0.719044154
     0.250000000  0.500000000  0.244946144
     0.250000000  0.500000000  0.328484141
     0.597918341  0.375000000  0.286715143
     0.402081659  0.375000000  0.286715143
     0.500000000  0.500000000  0.351588572
     0.500000000  0.500000000  0.435126570
     0.347918341  0.375000000  0.393357571
     0.652081659  0.375000000  0.393357571
     0.250000000  0.500000000  0.458231001
     0.250000000  0.500000000  0.541768999
     0.597918341  0.375000000  0.500000000
     0.402081659  0.375000000  0.500000000
     0.500000014  0.499999984  0.565644733
     0.499999795  0.500000019  0.649743789
     0.350002491  0.374998919  0.607334526
     0.649998162  0.375004271  0.607330698
     0.249456338  0.500020426  0.671747354
     0.250942838  0.499955013  0.755583400
     0.594194504  0.374279646  0.718551030
     0.405737963  0.374238058  0.718455073

  ion indices of the primitive-cell ions
   primitive index   ion index
                 1           1
                 2           2
                 3           3
                 4           4
                 5           5
                 6           6
                 7           7
                 8           8
                 9           9
                10          10
                11          11
                12          12
                13          13
                14          14
                15          15
                16          16
                17          17
                18          18
                19          19
                20          20
                21          21
                22          22
                23          23
                24          24
                25          25
                26          26
                27          27
                28          28
                29          29
                30          30
                31          31
                32          32
                33          33
                34          34
                35          35
                36          36
                37          37
                38          38
                39          39
                40          40
                41          41
                42          42
                43          43
                44          44
                45          45
                46          46
                47          47
                48          48
                49          49
                50          50
                51          51
                52          52
                53          53
                54          54
                55          55
                56          56
                57          57
                58          58
                59          59
                60          60
                61          61
                62          62
                63          63
                64          64
                65          65
                66          66
                67          67
                68          68
                69          69
                70          70
                71          71
                72          72
                73          73
                74          74
                75          75
                76          76
                77          77
                78          78
                79          79
                80          80
                81          81
                82          82
                83          83
                84          84
                85          85
                86          86
                87          87
                88          88
                89          89
                90          90
                91          91
                92          92
                93          93
                94          94
                95          95
                96          96
                97          97
                98          98
                99          99
               100         100
               101         101
               102         102
               103         103
               104         104
               105         105
               106         106
               107         107
               108         108
               109         109
               110         110
               111         111
               112         112
               113         113
               114         114
               115         115
               116         116
               117         117
               118         118
               119         119
               120         120
               121         121
               122         122
               123         123
               124         124
               125         125
               126         126
               127         127
               128         128
               129         129
               130         130
               131         131
               132         132
               133         133
               134         134
               135         135
               136         136
               137         137
               138         138
               139         139
               140         140
               141         141
               142         142
               143         143
               144         144
               145         145
               146         146
               147         147
               148         148
               149         149
               150         150
               151         151
               152         152
               153         153
               154         154
               155         155
               156         156
               157         157
               158         158
               159         159
               160         160
               161         161
               162         162
               163         163
               164         164
               165         165
               166         166
               167         167
               168         168
               169         169
               170         170
               171         171
               172         172
               173         173
               174         174
               175         175
               176         176
               177         177
               178         178
               179         179
               180         180
               181         181
               182         182
               183         183
               184         184
               185         185
               186         186
               187         187
               188         188
               189         189
               190         190
               191         191
               192         192
               193         193
               194         194
               195         195
               196         196
               197         197
               198         198
               199         199
               200         200
               201         201
               202         202
               203         203
               204         204
               205         205
               206         206
               207         207
               208         208
               209         209
               210         210
               211         211
               212         212
               213         213
               214         214
               215         215
               216         216
               217         217
               218         218
               219         219
               220         220
               221         221
               222         222
               223         223
               224         224
               225         225
               226         226
               227         227
               228         228
               229         229
               230         230
               231         231
               232         232
               233         233
               234         234
               235         235
               236         236
               237         237
               238         238
               239         239
               240         240
               241         241
               242         242
               243         243
               244         244
               245         245

----------------------------------------------------------------------------------------

 
 
 KPOINTS: pymatgen v2020.8.13 with grid density = 

Automatic generation of k-mesh.
 Grid dimensions read from file:
 generate k-points for:    2    2    1

 Generating k-lattice:

  Cartesian coordinates                     Fractional coordinates (reciprocal lattice)
     0.038281534  0.000000000  0.000000000     0.500000000  0.000000000  0.000000000
     0.000000000  0.042210838  0.000000000     0.000000000  0.500000000  0.000000000
     0.000000000  0.000000000  0.032659486     0.000000000  0.000000000  1.000000000

  Length of vectors
     0.038281534  0.042210838  0.032659486

  Shift w.r.t. Gamma in fractional coordinates (k-lattice)
     0.000000000  0.000000000  0.000000000

 
 Subroutine IBZKPT returns following result:
 ===========================================
 
 Found      4 irreducible k-points:
 
 Following reciprocal coordinates:
            Coordinates               Weight
  0.000000  0.000000  0.000000      1.000000
  0.500000  0.000000  0.000000      1.000000
  0.000000  0.500000  0.000000      1.000000
  0.500000  0.500000  0.000000      1.000000
 
 Following cartesian coordinates:
            Coordinates               Weight
  0.000000  0.000000  0.000000      1.000000
  0.038282  0.000000  0.000000      1.000000
  0.000000  0.042211  0.000000      1.000000
  0.038282  0.042211  0.000000      1.000000
 


--------------------------------------------------------------------------------------------------------




 Dimension of arrays:
   k-points           NKPTS =      4   k-points in BZ     NKDIM =      4   number of bands    NBANDS=   1064
   number of dos      NEDOS =    301   number of ions     NIONS =    245
   non local maximal  LDIM  =      6   non local SUM 2l+1 LMDIM =     18
   total plane-waves  NPLWV = ******
   max r-space proj   IRMAX =      1   max aug-charges    IRDMAX=  21440
   dimension x,y,z NGX =   108 NGY =   96 NGZ =  250
   dimension x,y,z NGXF=   216 NGYF=  192 NGZF=  500
   support grid    NGXF=   216 NGYF=  192 NGZF=  500
   ions per type =               1   4  80 160
   NGX,Y,Z   is equivalent  to a cutoff of  13.75, 13.47, 13.57 a.u.
   NGXF,Y,Z  is equivalent  to a cutoff of  27.49, 26.95, 27.15 a.u.

 SYSTEM =  TiO2                                    
 POSCAR =   C  H Ti  O                             

--------------------------------------------------------------------------------------------------------


  energy-cutoff  :      600.00
  volume of cell :     4737.15
      direct lattice vectors                 reciprocal lattice vectors
    13.061127704  0.000000000  0.000000000     0.076563067  0.000000000  0.000000000
     0.000000000 11.845298948  0.000000000     0.000000000  0.084421677  0.000000000
     0.000000000  0.000000000 30.618975621     0.000000000  0.000000000  0.032659486

  length of vectors
    13.061127704 11.845298948 30.618975621     0.076563067  0.084421677  0.032659486


 
 k-points in units of 2pi/SCALE and weight: pymatgen v2020.8.13 with grid density = 
   0.00000000  0.00000000  0.00000000       0.250
   0.03828153  0.00000000  0.00000000       0.250
   0.00000000  0.04221084  0.00000000       0.250
   0.03828153  0.04221084  0.00000000       0.250
 
 k-points in reciprocal lattice and weights: pymatgen v2020.8.13 with grid density = 
   0.00000000  0.00000000  0.00000000       0.250
   0.50000000  0.00000000  0.00000000       0.250
   0.00000000  0.50000000  0.00000000       0.250
   0.50000000  0.50000000  0.00000000       0.250
 
 position of ions in fractional coordinates (direct lattice) 
   0.50005969  0.50000801  0.81183789
   0.49625250  0.57578491  0.83239402
   0.50387244  0.42421150  0.83239883
   0.57059893  0.50415682  0.79222130
   0.42950426  0.49583392  0.79222712
   0.75000000  0.62500000  0.28671514
   0.00000000  0.75000000  0.28671514
   0.00000000  0.62500000  0.39335757
   0.75000000  0.75000000  0.39335757
   0.75000000  0.62500000  0.50000000
   0.00000000  0.75000000  0.50000000
   0.99999963  0.62501538  0.60444497
   0.75003016  0.75003912  0.61067164
   0.75020745  0.62516480  0.72021005
   0.00002218  0.75012174  0.70856827
   0.75000000  0.87500000  0.28671514
   0.00000000  0.00000000  0.28671514
   0.00000000  0.87500000  0.39335757
   0.75000000  0.00000000  0.39335757
   0.75000000  0.87500000  0.50000000
   0.00000000  0.00000000  0.50000000
   0.99999676  0.87501830  0.60446129
   0.74996653  0.00000250  0.61073172
   0.74985686  0.87504979  0.72041694
   0.99999987  0.99999999  0.70857669
   0.75000000  0.12500000  0.28671514
   0.00000000  0.25000000  0.28671514
   0.00000000  0.12500000  0.39335757
   0.75000000  0.25000000  0.39335757
   0.75000000  0.12500000  0.50000000
   0.00000000  0.25000000  0.50000000
   0.00000333  0.12498169  0.60446128
   0.75002961  0.24996299  0.61068186
   0.74983964  0.12496450  0.72042013
   0.99997851  0.24987824  0.70856827
   0.75000000  0.37500000  0.28671514
   0.00000000  0.50000000  0.28671514
   0.00000000  0.37500000  0.39335757
   0.75000000  0.50000000  0.39335757
   0.75000000  0.37500000  0.50000000
   0.00000000  0.50000000  0.50000000
   0.00000045  0.37498463  0.60444497
   0.75005405  0.49999745  0.61068481
   0.75015694  0.37487293  0.72024402
   0.00000053  0.50000000  0.70854947
   0.25000000  0.62500000  0.28671514
   0.50000000  0.75000000  0.28671514
   0.50000000  0.62500000  0.39335757
   0.25000000  0.75000000  0.39335757
   0.25000000  0.62500000  0.50000000
   0.50000000  0.75000000  0.50000000
   0.49999901  0.62459074  0.60483140
   0.24997047  0.75003692  0.61068202
   0.24984443  0.62512660  0.72024470
   0.50000628  0.75005660  0.70843255
   0.25000000  0.87500000  0.28671514
   0.50000000  0.00000000  0.28671514
   0.50000000  0.87500000  0.39335757
   0.25000000  0.00000000  0.39335757
   0.25000000  0.87500000  0.50000000
   0.50000000  0.00000000  0.50000000
   0.49999808  0.87480356  0.60427791
   0.25003343  0.99999751  0.61073170
   0.25016041  0.87503545  0.72042013
   0.50000004  0.99999995  0.70840138
   0.25000000  0.12500000  0.28671514
   0.50000000  0.25000000  0.28671514
   0.50000000  0.12500000  0.39335757
   0.25000000  0.25000000  0.39335757
   0.25000000  0.12500000  0.50000000
   0.50000000  0.25000000  0.50000000
   0.50000177  0.12519640  0.60427788
   0.24996997  0.24996104  0.61067180
   0.25014314  0.12495023  0.72041689
   0.49999369  0.24994341  0.70843249
   0.25000000  0.37500000  0.28671514
   0.50000000  0.50000000  0.28671514
   0.50000000  0.37500000  0.39335757
   0.25000000  0.50000000  0.39335757
   0.25000000  0.37500000  0.50000000
   0.50000000  0.50000000  0.50000000
   0.50000106  0.37540932  0.60483141
   0.24994608  0.50000257  0.61068506
   0.24979390  0.37483571  0.72021064
   0.50000162  0.49999983  0.70959316
   0.75000000  0.75000000  0.24494614
   0.75000000  0.75000000  0.32848414
   0.09791834  0.62500000  0.28671514
   0.90208166  0.62500000  0.28671514
   0.00000000  0.75000000  0.35158857
   0.00000000  0.75000000  0.43512657
   0.84791834  0.62500000  0.39335757
   0.15208166  0.62500000  0.39335757
   0.75000000  0.75000000  0.45823100
   0.75000000  0.75000000  0.54176900
   0.09791834  0.62500000  0.50000000
   0.90208166  0.62500000  0.50000000
   0.99999990  0.75003295  0.56547108
   0.00000480  0.75000764  0.64922353
   0.85012488  0.62504746  0.60716463
   0.14987646  0.62505248  0.60716554
   0.75036804  0.75018176  0.67177244
   0.74988208  0.74986093  0.75565058
   0.09389892  0.62494930  0.71911337
   0.90611981  0.62496252  0.71910366
   0.75000000  0.00000000  0.24494614
   0.75000000  0.00000000  0.32848414
   0.09791834  0.87500000  0.28671514
   0.90208166  0.87500000  0.28671514
   0.00000000  0.00000000  0.35158857
   0.00000000  0.00000000  0.43512657
   0.84791834  0.87500000  0.39335757
   0.15208166  0.87500000  0.39335757
   0.75000000  0.00000000  0.45823100
   0.75000000  0.00000000  0.54176900
   0.09791834  0.87500000  0.50000000
   0.90208166  0.87500000  0.50000000
   0.00000005  0.99999999  0.56547187
   0.99999997  0.99999999  0.64922516
   0.85010886  0.87505509  0.60718903
   0.14989576  0.87504676  0.60719519
   0.75003375  0.00000073  0.67183046
   0.75015042  0.00000159  0.75571808
   0.09390573  0.87498389  0.71906644
   0.90610861  0.87497747  0.71907073
   0.75000000  0.25000000  0.24494614
   0.75000000  0.25000000  0.32848414
   0.09791834  0.12500000  0.28671514
   0.90208166  0.12500000  0.28671514
   0.00000000  0.25000000  0.35158857
   0.00000000  0.25000000  0.43512657
   0.84791834  0.12500000  0.39335757
   0.15208166  0.12500000  0.39335757
   0.75000000  0.25000000  0.45823100
   0.75000000  0.25000000  0.54176900
   0.09791834  0.12500000  0.50000000
   0.90208166  0.12500000  0.50000000
   0.00000012  0.24996705  0.56547107
   0.99999534  0.24999236  0.64922352
   0.85010426  0.12495304  0.60719513
   0.14989117  0.12494508  0.60718909
   0.75031710  0.24985337  0.67178417
   0.74989925  0.25013607  0.75566220
   0.09389166  0.12502241  0.71907067
   0.90609455  0.12501620  0.71906650
   0.75000000  0.50000000  0.24494614
   0.75000000  0.50000000  0.32848414
   0.09791834  0.37500000  0.28671514
   0.90208166  0.37500000  0.28671514
   0.00000000  0.50000000  0.35158857
   0.00000000  0.50000000  0.43512657
   0.84791834  0.37500000  0.39335757
   0.15208166  0.37500000  0.39335757
   0.75000000  0.50000000  0.45823100
   0.75000000  0.50000000  0.54176900
   0.09791834  0.37500000  0.50000000
   0.90208166  0.37500000  0.50000000
   0.00000002  0.50000000  0.56546904
   0.00000006  0.50000000  0.64920876
   0.85012362  0.37494741  0.60716541
   0.14987522  0.37495263  0.60716476
   0.75054445  0.49997956  0.67174695
   0.74905865  0.50004506  0.75558276
   0.09388095  0.37503757  0.71910378
   0.90610185  0.37505061  0.71911322
   0.25000000  0.75000000  0.24494614
   0.25000000  0.75000000  0.32848414
   0.59791834  0.62500000  0.28671514
   0.40208166  0.62500000  0.28671514
   0.50000000  0.75000000  0.35158857
   0.50000000  0.75000000  0.43512657
   0.34791834  0.62500000  0.39335757
   0.65208166  0.62500000  0.39335757
   0.25000000  0.75000000  0.45823100
   0.25000000  0.75000000  0.54176900
   0.59791834  0.62500000  0.50000000
   0.40208166  0.62500000  0.50000000
   0.50000125  0.74956707  0.56551093
   0.49997293  0.75044864  0.64910730
   0.35000178  0.62499555  0.60733068
   0.64999747  0.62500123  0.60733452
   0.24968396  0.75014609  0.67178432
   0.25010088  0.74986427  0.75566237
   0.59426394  0.62576291  0.71845380
   0.40580751  0.62571929  0.71855264
   0.25000000  0.00000000  0.24494614
   0.25000000  0.00000000  0.32848414
   0.59791834  0.87500000  0.28671514
   0.40208166  0.87500000  0.28671514
   0.50000000  0.00000000  0.35158857
   0.50000000  0.00000000  0.43512657
   0.34791834  0.87500000  0.39335757
   0.65208166  0.87500000  0.39335757
   0.25000000  0.00000000  0.45823100
   0.25000000  0.00000000  0.54176900
   0.59791834  0.87500000  0.50000000
   0.40208166  0.87500000  0.50000000
   0.49999999  0.99999999  0.56538228
   0.50000004  0.00000000  0.64907555
   0.34999207  0.87500955  0.60716466
   0.65000430  0.87500688  0.60716572
   0.24996621  0.99999924  0.67183039
   0.24984973  0.99999836  0.75571801
   0.59395472  0.87516661  0.71904426
   0.40604359  0.87518111  0.71904500
   0.25000000  0.25000000  0.24494614
   0.25000000  0.25000000  0.32848414
   0.59791834  0.12500000  0.28671514
   0.40208166  0.12500000  0.28671514
   0.50000000  0.25000000  0.35158857
   0.50000000  0.25000000  0.43512657
   0.34791834  0.12500000  0.39335757
   0.65208166  0.12500000  0.39335757
   0.25000000  0.25000000  0.45823100
   0.25000000  0.25000000  0.54176900
   0.59791834  0.12500000  0.50000000
   0.40208166  0.12500000  0.50000000
   0.49999875  0.25043296  0.56551093
   0.50002630  0.24955131  0.64910724
   0.34999569  0.12499307  0.60716569
   0.65000790  0.12499050  0.60716469
   0.24963297  0.24981876  0.67177257
   0.25011786  0.25013870  0.75565070
   0.59395658  0.12481893  0.71904499
   0.40604541  0.12483308  0.71904415
   0.25000000  0.50000000  0.24494614
   0.25000000  0.50000000  0.32848414
   0.59791834  0.37500000  0.28671514
   0.40208166  0.37500000  0.28671514
   0.50000000  0.50000000  0.35158857
   0.50000000  0.50000000  0.43512657
   0.34791834  0.37500000  0.39335757
   0.65208166  0.37500000  0.39335757
   0.25000000  0.50000000  0.45823100
   0.25000000  0.50000000  0.54176900
   0.59791834  0.37500000  0.50000000
   0.40208166  0.37500000  0.50000000
   0.50000001  0.49999998  0.56564473
   0.49999979  0.50000002  0.64974379
   0.35000249  0.37499892  0.60733453
   0.64999816  0.37500427  0.60733070
   0.24945634  0.50002043  0.67174735
   0.25094284  0.49995501  0.75558340
   0.59419450  0.37427965  0.71855103
   0.40573796  0.37423806  0.71845507
 
 position of ions in cartesian coordinates  (Angst):
   6.53134345  5.92274437 24.85764469
   6.48161723  6.82034439 25.48705205
   6.58114231  5.02491209 25.48719935
   7.45266552  5.97188828 24.25700461
   5.60981002  5.87330099 24.25718280
   9.79584578  7.40331184  8.77892396
   0.00000000  8.88397421  8.77892396
   0.00000000  7.40331184 12.04420588
   9.79584578  8.88397421 12.04420588
   9.79584578  7.40331184 15.30948781
   0.00000000  8.88397421 15.30948781
  13.06112281  7.40349398 18.50748577
   9.79623975  8.88443765 18.69813991
   9.79855531  7.40526400 22.05209402
   0.00028964  8.88541624 21.69563473
   9.79584578 10.36463658  8.77892396
   0.00000000  0.00000000  8.77892396
   0.00000000 10.36463658 12.04420588
   9.79584578  0.00000000 12.04420588
   9.79584578 10.36463658 15.30948781
   0.00000000  0.00000000 15.30948781
  13.06108541 10.36485329 18.50798540
   9.79540868  0.00002964 18.69997961
   9.79397623 10.36522633 22.05842860
  13.06112607 11.84529881 21.69589225
   9.79584578  1.48066237  8.77892396
   0.00000000  2.96132474  8.77892396
   0.00000000  1.48066237 12.04420588
   9.79584578  2.96132474 12.04420588
   9.79584578  1.48066237 15.30948781
   0.00000000  2.96132474 15.30948781
   0.00004347  1.48044546 18.50798531
   9.79623252  2.96088636 18.69845292
   9.79375126  1.48024188 22.05852646
  13.06084701  2.95988248 21.69563457
   9.79584578  4.44198711  8.77892396
   0.00000000  5.92264947  8.77892396
   0.00000000  4.44198711 12.04420588
   9.79584578  5.92264947 12.04420588
   9.79584578  4.44198711 15.30948781
   0.00000000  5.92264947 15.30948781
   0.00000593  4.44180504 18.50748587
   9.79655172  5.92261922 18.69854332
   9.79789553  4.44048197 22.05313423
   0.00000691  5.92264943 21.69505880
   3.26528193  7.40331184  8.77892396
   6.53056385  8.88397421  8.77892396
   6.53056385  7.40331184 12.04420588
   3.26528193  8.88397421 12.04420588
   3.26528193  7.40331184 15.30948781
   6.53056385  8.88397421 15.30948781
   6.53055098  7.39846403 18.51931774
   3.26489624  8.88441153 18.69845779
   3.26325002  7.40481142 22.05315487
   6.53064594  8.88464460 21.69147896
   3.26528193 10.36463658  8.77892396
   6.53056385  0.00000000  8.77892396
   6.53056385 10.36463658 12.04420588
   3.26528193  0.00000000 12.04420588
   3.26528193 10.36463658 15.30948781
   6.53056385  0.00000000 15.30948781
   6.53053877 10.36230974 18.50237067
   3.26571852 11.84526943 18.69997893
   3.26737702 10.36505645 22.05852653
   6.53056433 11.84529833 21.69052464
   3.26528193  1.48066237  8.77892396
   6.53056385  2.96132474  8.77892396
   6.53056385  1.48066237 12.04420588
   3.26528193  2.96132474 12.04420588
   3.26528193  1.48066237 15.30948781
   6.53056385  2.96132474 15.30948781
   6.53058692  1.48298878 18.50236972
   3.26488965  2.96086322 18.69814502
   3.26715155  1.48007278 22.05842716
   6.53048142  2.96065446 21.69147709
   3.26528193  4.44198711  8.77892396
   6.53056385  5.92264947  8.77892396
   6.53056385  4.44198711 12.04420588
   3.26528193  5.92264947 12.04420588
   3.26528193  4.44198711 15.30948781
   6.53056385  5.92264947 15.30948781
   6.53057773  4.44683559 18.51931814
   3.26457770  5.92267992 18.69855110
   3.26259000  4.44004100 22.05211208
   6.53058506  5.92264744 21.72701559
   9.79584578  8.88397421  7.50000000
   9.79584578  8.88397421 10.05784792
   1.27892396  7.40331184  8.77892396
  11.78220374  7.40331184  8.77892396
   0.00000000  8.88397421 10.76528193
   0.00000000  8.88397421 13.32312984
  11.07476974  7.40331184 12.04420588
   1.98635797  7.40331184 12.04420588
   9.79584578  8.88397421 14.03056385
   9.79584578  8.88397421 16.58841177
   1.27892396  7.40331184 15.30948781
  11.78220374  7.40331184 15.30948781
  13.06112640  8.88436446 17.31414509
   0.00006270  8.88406469 19.87855938
  11.10358963  7.40387399 18.59075902
   1.95755553  7.40393353 18.59078689
   9.80065282  8.88612715 20.56898397
   9.79430557  8.88232688 23.13724674
   1.22642579  7.40271133 22.01851485
  11.83494655  7.40286792 22.01821758
   9.79584578  0.00000000  7.50000000
   9.79584578  0.00000000 10.05784792
   1.27892396 10.36463658  8.77892396
  11.78220374 10.36463658  8.77892396
   0.00000000  0.00000000 10.76528193
   0.00000000  0.00000000 13.32312984
  11.07476974 10.36463658 12.04420588
   1.98635797 10.36463658 12.04420588
   9.79584578  0.00000000 14.03056385
   9.79584578  0.00000000 16.58841177
   1.27892396 10.36463658 15.30948781
  11.78220374 10.36463658 15.30948781
   0.00000066 11.84529884 17.31416942
  13.06112736 11.84529889 19.87860919
  11.10338043 10.36528911 18.59150610
   1.95780771 10.36519044 18.59169477
   9.79628653  0.00000870 20.57076049
   9.79781039  0.00001881 23.13931333
   1.22651468 10.36444577 22.01707784
  11.83480027 10.36436969 22.01720924
   9.79584578  2.96132474  7.50000000
   9.79584578  2.96132474 10.05784792
   1.27892396  1.48066237  8.77892396
  11.78220374  1.48066237  8.77892396
   0.00000000  2.96132474 10.76528193
   0.00000000  2.96132474 13.32312984
  11.07476974  1.48066237 12.04420588
   1.98635797  1.48066237 12.04420588
   9.79584578  2.96132474 14.03056385
   9.79584578  2.96132474 16.58841177
   1.27892396  1.48066237 15.30948781
  11.78220374  1.48066237 15.30948781
   0.00000152  2.96093440 17.31414500
  13.06106686  2.96123419 19.87855921
  11.10332026  1.48010616 18.59169275
   1.95774768  1.48001187 18.59150799
   9.79998752  2.95958781 20.56934324
   9.79452985  2.96293650 23.13760244
   1.22633101  1.48092783 22.01720716
  11.83461659  1.48085424 22.01707958
   9.79584578  5.92264947  7.50000000
   9.79584578  5.92264947 10.05784792
   1.27892396  4.44198711  8.77892396
  11.78220374  4.44198711  8.77892396
   0.00000000  5.92264947 10.76528193
   0.00000000  5.92264947 13.32312984
[...]
      9.79375      1.48024     22.05853         0.000540      0.002598     -0.001517
     13.06085      2.95988     21.69563        -0.000083      0.001060      0.004186
      9.79585      4.44199      8.77892        -0.000032     -0.000107     -3.480269
      0.00000      5.92265      8.77892        -0.000001      0.000013      2.774297
      0.00000      4.44199     12.04421        -0.000009     -0.000185      0.521221
      9.79585      5.92265     12.04421        -0.000151     -0.000029     -0.708752
      9.79585      4.44199     15.30949        -0.003797     -0.001093      0.659339
      0.00000      5.92265     15.30949         0.000005      0.000000     -0.711146
      0.00001      4.44181     18.50749         0.000013     -0.000651     -0.000904
      9.79655      5.92262     18.69854        -0.003446      0.000034      0.000343
      9.79790      4.44048     22.05313        -0.000745      0.002548      0.000158
      0.00001      5.92265     21.69506         0.000019      0.000003      0.004124
      3.26528      7.40331      8.77892         0.000015      0.000135     -3.480303
      6.53056      8.88397      8.77892        -0.000011      0.000200      2.774750
      6.53056      7.40331     12.04421        -0.000016      0.003222      0.521572
      3.26528      8.88397     12.04421         0.000352      0.000495     -0.708329
      3.26528      7.40331     15.30949         0.003797      0.001086      0.659373
      6.53056      8.88397     15.30949        -0.000151     -0.007167     -0.676816
      6.53055      7.39846     18.51932        -0.000039      0.001669      0.001311
      3.26490      8.88441     18.69846         0.001835     -0.002788      0.000373
      3.26325      7.40481     22.05315         0.000816     -0.002543      0.000150
      6.53065      8.88464     21.69148         0.000082     -0.000605     -0.001287
      3.26528     10.36464      8.77892         0.000059      0.000116     -3.480221
      6.53056      0.00000      8.77892        -0.000006     -0.000008      2.774962
      6.53056     10.36464     12.04421        -0.000004      0.001617      0.523677
      3.26528      0.00000     12.04421         0.000588     -0.000020     -0.708048
      3.26528     10.36464     15.30949         0.001695      0.006273      0.663894
      6.53056      0.00000     15.30949        -0.000007      0.000001     -0.718738
      6.53054     10.36231     18.50237         0.000051     -0.002807      0.001064
      3.26572     11.84527     18.69998        -0.000379     -0.000056     -0.001503
      3.26738     10.36506     22.05853        -0.000511     -0.002607     -0.001516
      6.53056     11.84530     21.69052         0.000019     -0.000007      0.004495
      3.26528      1.48066      8.77892         0.000068     -0.000181     -3.480266
      6.53056      2.96132      8.77892         0.000014     -0.000202      2.774740
      6.53056      1.48066     12.04421         0.000001     -0.001619      0.523671
      3.26528      2.96132     12.04421         0.000361     -0.000499     -0.708499
      3.26528      1.48066     15.30949         0.001696     -0.007542      0.663042
      6.53056      2.96132     15.30949         0.000143      0.007171     -0.676812
      6.53059      1.48299     18.50237        -0.000054      0.002808      0.001052
      3.26489      2.96086     18.69815         0.001783      0.002777      0.000234
      3.26715      1.48007     22.05843        -0.000777      0.002449     -0.001617
      6.53048      2.96065     21.69148        -0.000122      0.000485     -0.001353
      3.26528      4.44199      8.77892         0.000022     -0.000106     -3.480329
      6.53056      5.92265      8.77892        -0.000006     -0.000029      2.774497
      6.53056      4.44199     12.04421         0.000007     -0.003216      0.521581
      3.26528      5.92265     12.04421         0.000151      0.000023     -0.708737
      3.26528      4.44199     15.30949         0.003796      0.000184      0.658480
      6.53056      5.92265     15.30949        -0.000005     -0.000001     -0.674591
      6.53058      4.44684     18.51932         0.000032     -0.001668      0.001296
      3.26458      5.92268     18.69855         0.003462     -0.000016      0.000357
      3.26259      4.44004     22.05211         0.000456      0.002302      0.000064
      6.53059      5.92265     21.72702        -0.000019      0.000121     -0.004082
      9.79585      8.88397      7.50000        -0.000019     -0.000073      2.017629
      9.79585      8.88397     10.05785         0.000036     -0.000096      1.674774
      1.27892      7.40331      8.77892        -1.790887     -0.000018     -0.744609
     11.78220      7.40331      8.77892         1.790886     -0.000017     -0.744601
      0.00000      8.88397     10.76528         0.000000     -0.000065     -1.330313
      0.00000      8.88397     13.32313        -0.000011     -0.000122     -0.126127
     11.07477      7.40331     12.04421         0.421401     -0.000117      0.050628
      1.98636      7.40331     12.04421        -0.421419     -0.000141      0.050622
      9.79585      8.88397     14.03056         0.000335     -0.001566     -0.098368
      9.79585      8.88397     16.58841         0.000687     -0.002437      0.002382
      1.27892      7.40331     15.30949        -0.461121     -0.000225      0.090636
     11.78220      7.40331     15.30949         0.460879     -0.000155      0.090688
     13.06113      8.88436     17.31415         0.000032     -0.000282      0.001787
      0.00006      8.88406     19.87856         0.000023     -0.001450     -0.001019
     11.10359      7.40387     18.59076         0.000197      0.000047     -0.001336
      1.95756      7.40393     18.59079        -0.000163      0.000089     -0.001281
      9.80065      8.88613     20.56898         0.000481      0.000561      0.000614
      9.79431      8.88233     23.13725        -0.001154      0.002885      0.002008
      1.22643      7.40271     22.01851        -0.001394      0.000152      0.002046
     11.83495      7.40287     22.01822         0.001430      0.000171      0.001830
      9.79585      0.00000      7.50000        -0.000020     -0.000011      2.017641
      9.79585      0.00000     10.05785         0.000071     -0.000009      1.674580
      1.27892     10.36464      8.77892        -1.790910     -0.000017     -0.744595
     11.78220     10.36464      8.77892         1.790914     -0.000022     -0.744597
      0.00000      0.00000     10.76528        -0.000002      0.000004     -1.330346
      0.00000      0.00000     13.32313        -0.000001     -0.000002     -0.126285
     11.07477     10.36464     12.04421         0.421430     -0.000154      0.050599
      1.98636     10.36464     12.04421        -0.421444     -0.000131      0.050589
      9.79585      0.00000     14.03056         0.000194     -0.000243     -0.099274
      9.79585      0.00000     16.58841         0.001381     -0.000161     -0.004913
      1.27892     10.36464     15.30949        -0.461749     -0.000524      0.089861
     11.78220     10.36464     15.30949         0.461502     -0.000595      0.089889
      0.00000     11.84530     17.31417         0.000003     -0.000003      0.001590
     13.06113     11.84530     19.87861        -0.000003      0.000002     -0.001215
     11.10338     10.36529     18.59151         0.000544      0.000203      0.000929
      1.95781     10.36519     18.59169        -0.000484      0.000166      0.001070
      9.79629      0.00001     20.57076        -0.001210     -0.000021      0.001613
      9.79781      0.00002     23.13931        -0.000086      0.000076      0.002439
      1.22651     10.36445     22.01708         0.000588     -0.000198      0.001204
     11.83480     10.36437     22.01721        -0.000392     -0.000194      0.001505
      9.79585      2.96132      7.50000        -0.000014      0.000067      2.017618
      9.79585      2.96132     10.05785         0.000041      0.000093      1.674729
      1.27892      1.48066      8.77892        -1.790904      0.000017     -0.744596
     11.78220      1.48066      8.77892         1.790902      0.000020     -0.744591
      0.00000      2.96132     10.76528         0.000000      0.000059     -1.330313
      0.00000      2.96132     13.32313         0.000007      0.000120     -0.126125
     11.07477      1.48066     12.04421         0.421443      0.000128      0.050587
      1.98636      1.48066     12.04421        -0.421435      0.000152      0.050599
      9.79585      2.96132     14.03056         0.000338      0.001558     -0.098684
      9.79585      2.96132     16.58841         0.000553      0.002483      0.002123
      1.27892      1.48066     15.30949        -0.461518      0.000594      0.089888
     11.78220      1.48066     15.30949         0.461737      0.000524      0.089862
      0.00000      2.96093     17.31414        -0.000032      0.000281      0.001791
     13.06107      2.96123     19.87856        -0.000028      0.001443     -0.001016
     11.10332      1.48011     18.59169         0.000477     -0.000156      0.001067
      1.95775      1.48001     18.59151        -0.000542     -0.000206      0.000935
      9.79999      2.95959     20.56934         0.000085     -0.000500      0.000781
      9.79453      2.96294     23.13760        -0.000988     -0.002846      0.002206
      1.22633      1.48093     22.01721         0.000387      0.000204      0.001504
     11.83462      1.48085     22.01708        -0.000575      0.000207      0.001210
      9.79585      5.92265      7.50000        -0.000024      0.000007      2.017605
      9.79585      5.92265     10.05785         0.000024      0.000003      1.674856
      1.27892      4.44199      8.77892        -1.790884      0.000017     -0.744603
     11.78220      4.44199      8.77892         1.790891      0.000014     -0.744602
      0.00000      5.92265     10.76528        -0.000001      0.000005     -1.330282
      0.00000      5.92265     13.32313        -0.000002      0.000004     -0.125875
     11.07477      4.44199     12.04421         0.421406      0.000144      0.050623
      1.98636      4.44199     12.04421        -0.421407      0.000117      0.050628
      9.79585      5.92265     14.03056         0.000782      0.000255     -0.098073
      9.79585      5.92265     16.58841        -0.000894      0.000210      0.002988
      1.27892      4.44199     15.30949        -0.460901      0.000151      0.090686
     11.78220      4.44199     15.30949         0.461109      0.000227      0.090636
      0.00000      5.92265     17.31408         0.000001      0.000001      0.001529
      0.00000      5.92265     19.87811         0.000007      0.000009     -0.000688
     11.10357      4.44136     18.59078         0.000161     -0.000093     -0.001287
      1.95754      4.44143     18.59076        -0.000191     -0.000048     -0.001330
      9.80296      5.92241     20.56820         0.003570     -0.000112      0.000365
      9.78355      5.92318     23.13517         0.001781     -0.000003      0.001670
      1.22619      4.44243     22.01822        -0.001421     -0.000180      0.001835
     11.83471      4.44259     22.01851         0.001396     -0.000157      0.002061
      3.26528      8.88397      7.50000         0.000021     -0.000082      2.017623
      3.26528      8.88397     10.05785        -0.000041     -0.000088      1.674733
      7.80949      7.40331      8.77892        -1.790845     -0.000103     -0.744645
      5.25164      7.40331      8.77892         1.790846     -0.000105     -0.744660
      6.53056      8.88397     10.76528         0.000004     -0.000714     -1.330950
      6.53056      8.88397     13.32313         0.000014     -0.001723     -0.129021
      4.54421      7.40331     12.04421         0.421190     -0.000293      0.050555
      8.51692      7.40331     12.04421        -0.421173     -0.000266      0.050565
      3.26528      8.88397     14.03056        -0.000339     -0.001553     -0.098695
      3.26528      8.88397     16.58841        -0.000553     -0.002483      0.002116
      7.80949      7.40331     15.30949        -0.459376     -0.008281      0.088498
      5.25164      7.40331     15.30949         0.459647     -0.008343      0.088449
      6.53058      8.87885     17.31537         0.000042      0.001624     -0.001066
      6.53021      8.88929     19.87500        -0.000138     -0.001050     -0.002643
      4.57142      7.40326     18.59584        -0.003765     -0.000742     -0.001266
      8.48970      7.40333     18.59596         0.003758     -0.000702     -0.001045
      3.26115      8.88570     20.56935        -0.000072      0.000502      0.000769
      3.26660      8.88237     23.13761         0.000990      0.002863      0.002213
      7.76176      7.41235     21.99832        -0.002335      0.001574     -0.001746
      5.30030      7.41183     22.00135         0.002355      0.001610     -0.001310
      3.26528      0.00000      7.50000         0.000011      0.000018      2.017642
      3.26528      0.00000     10.05785        -0.000074      0.000013      1.674565
      7.80949     10.36464      8.77892        -1.790805     -0.000092     -0.744673
      5.25164     10.36464      8.77892         1.790811     -0.000088     -0.744676
      6.53056      0.00000     10.76528        -0.000001      0.000005     -1.331587
      6.53056      0.00000     13.32313         0.000001      0.000001     -0.134105
      4.54421     10.36464     12.04421         0.420552     -0.000186      0.050459
      8.51692     10.36464     12.04421        -0.420539     -0.000217      0.050465
      3.26528      0.00000     14.03056        -0.000199      0.000244     -0.099279
      3.26528      0.00000     16.58841        -0.001392      0.000157     -0.004916
      7.80949     10.36464     15.30949        -0.458799     -0.004180      0.090832
      5.25164     10.36464     15.30949         0.459070     -0.004113      0.090799
      6.53056     11.84530     17.31143         0.000002     -0.000003     -0.000155
      6.53056      0.00000     19.87403         0.000005     -0.000005      0.003071
      4.57129     10.36475     18.59076         0.001164      0.000059     -0.000146
      8.48979     10.36472     18.59079        -0.001186      0.000016     -0.000031
      3.26484     11.84529     20.57076         0.001210      0.000019      0.001616
      3.26332     11.84528     23.13931         0.000091     -0.000050      0.002445
      7.75772     10.36661     22.01640         0.000730      0.000113     -0.002265
      5.30339     10.36678     22.01642        -0.000556      0.000065     -0.001991
      3.26528      2.96132      7.50000         0.000016      0.000085      2.017624
      3.26528      2.96132     10.05785        -0.000039      0.000099      1.674779
      7.80949      1.48066      8.77892        -1.790806      0.000096     -0.744665
      5.25164      1.48066      8.77892         1.790814      0.000092     -0.744676
      6.53056      2.96132     10.76528         0.000006      0.000715     -1.330952
      6.53056      2.96132     13.32313        -0.000011      0.001721     -0.129020
      4.54421      1.48066     12.04421         0.420540      0.000216      0.050466
      8.51692      1.48066     12.04421        -0.420542      0.000186      0.050461
      3.26528      2.96132     14.03056        -0.000335      0.001557     -0.098377
      3.26528      2.96132     16.58841        -0.000685      0.002441      0.002390
      7.80949      1.48066     15.30949        -0.459059      0.004112      0.090801
      5.25164      1.48066     15.30949         0.458813      0.004177      0.090832
      6.53055      2.96645     17.31537        -0.000034     -0.001627     -0.001069
      6.53091      2.95601     19.87500         0.000135      0.001055     -0.002580
      4.57134      1.48058     18.59079         0.001186     -0.000017     -0.000031
      8.48984      1.48055     18.59076        -0.001158     -0.000057     -0.000143
      3.26049      2.95918     20.56899        -0.000469     -0.000567      0.000621
      3.26682      2.96297     23.13725         0.001165     -0.002880      0.002005
      7.75774      1.47852     22.01642         0.000557     -0.000047     -0.001993
      5.30341      1.47869     22.01640        -0.000714     -0.000075     -0.002265
      3.26528      5.92265      7.50000         0.000025     -0.000002      2.017593
      3.26528      5.92265     10.05785        -0.000023     -0.000011      1.674853
      7.80949      4.44199      8.77892        -1.790845      0.000103     -0.744655
      5.25164      4.44199      8.77892         1.790838      0.000107     -0.744658
      6.53056      5.92265     10.76528        -0.000002      0.000000     -1.330142
      6.53056      5.92265     13.32313         0.000004     -0.000001     -0.117248
      4.54421      4.44199     12.04421         0.421176      0.000266      0.050565
      8.51692      4.44199     12.04421        -0.421179      0.000297      0.050558
      3.26528      5.92265     14.03056        -0.000781     -0.000252     -0.098086
      3.26528      5.92265     16.58841         0.000890     -0.000203      0.003012
      7.80949      4.44199     15.30949        -0.459629      0.008349      0.088447
      5.25164      4.44199     15.30949         0.459395      0.008281      0.088498
      6.53056      5.92265     17.31946        -0.000002      0.000000      0.001513
      6.53056      5.92265     19.89449         0.000003     -0.000000     -0.003447
      4.57143      4.44197     18.59596        -0.003753      0.000707     -0.001049
      8.48971      4.44204     18.59584         0.003765      0.000740     -0.001259
      3.25818      5.92289     20.56822        -0.003555      0.000111      0.000364
      3.27760      5.92212     23.13519        -0.001784     -0.000047      0.001679
      7.76085      4.43345     22.00130        -0.002341     -0.001586     -0.001247
      5.29940      4.43296     21.99836         0.002347     -0.001594     -0.001700
 -----------------------------------------------------------------------------------
    total drift:                                0.000046     -0.000074     -0.072661


--------------------------------------------------------------------------------------------------------



  FREE ENERGIE OF THE ION-ELECTRON SYSTEM (eV)
  ---------------------------------------------------
  free  energy   TOTEN  =     -1763.03873249 eV

  energy  without entropy=    -1763.03873249  energy(sigma->0) =    -1763.03873249
 


--------------------------------------------------------------------------------------------------------


    POTLOK:  cpu time      0.7848: real time      0.7877


--------------------------------------------------------------------------------------------------------


     LOOP+:  cpu time   1731.8234: real time   1740.9704
    4ORBIT:  cpu time      0.0000: real time      0.0000

 total amount of memory used by VASP MPI-rank0   733628. kBytes
=======================================================================

   base      :      30000. kBytes
   nonl-proj :     492891. kBytes
   fftplans  :      41495. kBytes
   grid      :      58856. kBytes
   one-center:       1912. kBytes
   wavefun   :     108474. kBytes
 
  
  
 General timing and accounting informations for this job:
 ========================================================
  
                  Total CPU time used (sec):     1775.978
                            User time (sec):     1770.394
                          System time (sec):        5.584
                         Elapsed time (sec):     1786.126
  
                   Maximum memory used (kb):     1338340.
                   Average memory used (kb):          N/A
  
                          Minor page faults:       168786
                          Major page faults:          140
                 Voluntary context switches:         3098
