 vasp.6.3.0 20Jan22 (build Apr  1 2022 16:44:48) gamma-only                      
 executed on        HPECrayEX_GCC date 2023.02.21  01:48:03
 running  512 mpi-ranks, with    1 threads/rank
 distrk:  each k-point on  512 cores,    1 groups
 distr:  one band on NCORE=   8 cores,   64 groups


--------------------------------------------------------------------------------------------------------


 INCAR:
   SYSTEM = MgO-rocksalt
   ISMEAR = 0
   SIGMA = 0.05
   EDIFF = 1E-6
   ALGO = ALL
   ISTART = 0
   IBRION = -1
   NSW = 0
   ISYM = 0
   DIPOL = 0.5 0.5 0.5
   IDIPOL = 3
   LDIPOL = .TRUE.
   GGA = RE
   IVDW = 13
   VDW_S8 = 1.7468
   VDW_A1 = 0.5363
   VDW_A2 = 3.0726
   ENCUT = 520
   PREC = Accurate
   LASPH = .TRUE.
   LREAL = Auto
   ISPIN = 1
   NELM = 200
   NELMIN = 8
   NCORE = 8
   KPAR = 1
   LWAVE = .FALSE.
   LCHARG = .FALSE.

 POTCAR:    PAW_PBE Mg_pv 13Apr2007               
 POTCAR:    PAW_PBE O 08Apr2002                   
 POTCAR:    PAW_PBE Mg_pv 13Apr2007               
   SHA256 =  f474ac0dd33840b9ae76c01d57fea79fdf77cdfbb07d5ade72c65f83c709b62b Mg_pv/POTCAR          
   COPYR  = (c) Copyright 13Apr2007 Georg Kresse                                                    
   COPYR  = This file is part of the software VASP. Any use, copying, and all other rights are regul
   COPYR  = If you do not have a valid VASP license, you may not use, copy or distribute this file. 
   VRHFIN =Mg: p6s2                                                                                 
   LEXCH  = PE                                                                                      
   EATOM  =  1056.7344 eV,   77.6678 Ry                                                             
                                                                                                    
   TITEL  = PAW_PBE Mg_pv 13Apr2007                                                                 
   LULTRA =        F    use ultrasoft PP ?                                                          
   IUNSCR =        1    unscreen: 0-lin 1-nonlin 2-no                                               
   RPACOR =    1.500    partial core radius                                                         
   POMASS =   24.305; ZVAL   =    8.000    mass and valenz                                          
   RCORE  =    2.000    outmost cutoff radius                                                       
   RWIGS  =    2.000; RWIGS  =    1.058    wigner-seitz radius (au A)                               
   ENMAX  =  403.929; ENMIN  =  302.947 eV                                                          
   RCLOC  =    1.506    cutoff for local pot                                                        
   LCOR   =        T    correct aug charges                                                         
   LPAW   =        T    paw PP                                                                      
   EAUG   =  758.780                                                                                
   DEXC   =    0.000                                                                                
   RMAX   =    2.045    core radius for proj-oper                                                   
   RAUG   =    1.300    factor for augmentation sphere                                              
   RDEP   =    2.025    radius for radial grids                                                     
   RDEPT  =    1.557    core radius for aug-charge                                                  
                                                                                                    
   Atomic configuration                                                                             
    5 entries                                                                                       
     n  l   j            E        occ.                                                              
     1  0  0.50     -1259.6230   2.0000                                                             
     2  0  0.50       -79.8442   2.0000                                                             
     2  1  1.50       -46.6121   6.0000                                                             
     3  0  0.50        -4.7055   2.0000                                                             
     3  2  1.50        -1.3606   0.0000                                                             
   Description                                                                                      
     l       E           TYP  RCUT    TYP  RCUT                                                     
     1    -46.6121073     23  1.600                                                                 
     1      2.7211652     23  1.600                                                                 
     0     -4.7054661     23  2.000                                                                 
     0     61.2262170     23  2.000                                                                 
     2     -1.3605826     23  2.000                                                                 
  local pseudopotential read in
  partial core-charges read in
  partial kinetic energy density read in
  atomic valenz-charges read in
  non local Contribution for L=           1  read in
    real space projection operators read in
  non local Contribution for L=           1  read in
    real space projection operators read in
  non local Contribution for L=           0  read in
    real space projection operators read in
  non local Contribution for L=           0  read in
    real space projection operators read in
  non local Contribution for L=           2  read in
    real space projection operators read in
    PAW grid and wavefunctions read in

   number of l-projection  operators is LMAX  =           5
   number of lm-projection operators is LMMAX =          13

 POTCAR:    PAW_PBE O 08Apr2002                   
   SHA256 =  818f92134a0a090dccd8ba1447fa70422a3b330e708bb4f08108d8ae51209ddf O/POTCAR              
   COPYR  = (c) Copyright 08Apr2002 Georg Kresse                                                    
   COPYR  = This file is part of the software VASP. Any use, copying, and all other rights are regul
   COPYR  = If you do not have a valid VASP license, you may not use, copy or distribute this file. 
   VRHFIN =O: s2p4                                                                                  
   LEXCH  = PE                                                                                      
   EATOM  =   432.3788 eV,   31.7789 Ry                                                             
                                                                                                    
   TITEL  = PAW_PBE O 08Apr2002                                                                     
   LULTRA =        F    use ultrasoft PP ?                                                          
   IUNSCR =        1    unscreen: 0-lin 1-nonlin 2-no                                               
   RPACOR =    1.200    partial core radius                                                         
   POMASS =   16.000; ZVAL   =    6.000    mass and valenz                                          
   RCORE  =    1.520    outmost cutoff radius                                                       
   RWIGS  =    1.550; RWIGS  =    0.820    wigner-seitz radius (au A)                               
   ENMAX  =  400.000; ENMIN  =  300.000 eV                                                          
   ICORE  =        2    local potential                                                             
   LCOR   =        T    correct aug charges                                                         
   LPAW   =        T    paw PP                                                                      
   EAUG   =  605.392                                                                                
   DEXC   =    0.000                                                                                
   RMAX   =    1.553    core radius for proj-oper                                                   
   RAUG   =    1.300    factor for augmentation sphere                                              
   RDEP   =    1.550    radius for radial grids                                                     
   RDEPT  =    1.329    core radius for aug-charge                                                  
                                                                                                    
   Atomic configuration                                                                             
    4 entries                                                                                       
     n  l   j            E        occ.                                                              
     1  0  0.50      -514.6923   2.0000                                                             
     2  0  0.50       -23.9615   2.0000                                                             
     2  1  0.50        -9.0305   4.0000                                                             
     3  2  1.50        -9.5241   0.0000                                                             
   Description                                                                                      
     l       E           TYP  RCUT    TYP  RCUT                                                     
     0    -23.9615318     23  1.200                                                                 
     0     -9.5240782     23  1.200                                                                 
     1     -9.0304911     23  1.520                                                                 
     1      8.1634956     23  1.520                                                                 
     2     -9.5240782      7  1.500                                                                 
  local pseudopotential read in
  partial core-charges read in
  partial kinetic energy density read in
  kinetic energy density of atom read in
  atomic valenz-charges read in
  non local Contribution for L=           0  read in
    real space projection operators read in
  non local Contribution for L=           0  read in
    real space projection operators read in
  non local Contribution for L=           1  read in
    real space projection operators read in
  non local Contribution for L=           1  read in
    real space projection operators read in
    PAW grid and wavefunctions read in

   number of l-projection  operators is LMAX  =           4
   number of lm-projection operators is LMMAX =           8

 Optimization of the real space projectors (new method)

 maximal supplied QI-value         = 18.90
 optimisation between [QCUT,QGAM] = [ 11.53, 23.24] = [ 37.21,151.29] Ry 
 Optimized for a Real-space Cutoff    1.28 Angstroem

   l    n(q)    QCUT    max X(q) W(low)/X(q) W(high)/X(q)  e(spline) 
   1      8    11.527     2.974    0.44E-04    0.56E-04    0.12E-06
   1      8    11.527     4.279    0.12E-03    0.12E-03    0.26E-06
   0      9    11.527    16.381    0.46E-04    0.64E-04    0.78E-07
   0      9    11.527     5.611    0.26E-04    0.43E-04    0.55E-07
   2      8    11.527     4.652    0.22E-03    0.72E-04    0.47E-07
 Optimization of the real space projectors (new method)

 maximal supplied QI-value         = 24.76
 optimisation between [QCUT,QGAM] = [ 11.64, 23.27] = [ 37.91,151.63] Ry 
 Optimized for a Real-space Cutoff    1.14 Angstroem

   l    n(q)    QCUT    max X(q) W(low)/X(q) W(high)/X(q)  e(spline) 
   0      8    11.635    20.381    0.10E-03    0.33E-03    0.24E-06
   0      8    11.635    15.268    0.11E-03    0.35E-03    0.26E-06
   1      7    11.635     5.964    0.24E-03    0.31E-03    0.30E-06
   1      7    11.635     5.382    0.22E-03    0.25E-03    0.26E-06
 -----------------------------------------------------------------------------
|                                                                             |
|               ----> ADVICE to this user running VASP <----                  |
|                                                                             |
|     You enforced a specific xc type in the INCAR file but a different       |
|     type was found in the POTCAR file.                                      |
|     I HOPE YOU KNOW WHAT YOU ARE DOING!                                     |
|                                                                             |
 -----------------------------------------------------------------------------

  PAW_PBE Mg_pv 13Apr2007               :
 energy of atom  1       EATOM=-1056.7344
 kinetic energy error for atom=    0.0340 (will be added to EATOM!!)
  PAW_PBE O 08Apr2002                   :
 energy of atom  2       EATOM= -432.3788
 kinetic energy error for atom=    0.0208 (will be added to EATOM!!)


 POSCAR: Mg  O
  positions in direct lattice
  No initial velocities read in
 -----------------------------------------------------------------------------
|                                                                             |
|           W    W    AA    RRRRR   N    N  II  N    N   GGGG   !!!           |
|           W    W   A  A   R    R  NN   N  II  NN   N  G    G  !!!           |
|           W    W  A    A  R    R  N N  N  II  N N  N  G       !!!           |
|           W WW W  AAAAAA  RRRRR   N  N N  II  N  N N  G  GGG   !            |
|           WW  WW  A    A  R   R   N   NN  II  N   NN  G    G                |
|           W    W  A    A  R    R  N    N  II  N    N   GGGG   !!!           |
|                                                                             |
|     Specifying the vdW parameters                                           |
|     VDW_S8 = 1.747                                                          |
|     VDW_A1 = 0.536                                                          |
|     VDW_A2 = 3.073                                                          |
|     in the INCAR file will overwrite the defaults for revpbe. Please        |
|     make sure that is what you intended.                                    |
|                                                                             |
 -----------------------------------------------------------------------------

 exchange correlation table for  LEXCH =       40
   RHO(1)=    0.500       N(1)  =     2000
   RHO(2)=  100.500       N(2)  =     4000



--------------------------------------------------------------------------------------------------------


 ion  position               nearest neighbor table
   1  0.000  0.375  0.350- 129 2.14 132 2.14 139 2.14 163 2.14 212 2.14
   2  0.125  0.000  0.350- 130 2.14 131 2.14 140 2.14 147 2.14 164 2.14
   3  0.000  0.000  0.450- 131 2.14 130 2.14 137 2.14 161 2.14 210 2.14 135 2.14
   4  0.125  0.375  0.450- 136 2.14 132 2.14 129 2.14 138 2.14 145 2.14 162 2.14
   5  0.000  0.375  0.550- 216 2.13 136 2.13 167 2.14 143 2.14 129 2.14 133 2.17
   6  0.125  1.000  0.550- 144 2.14 151 2.14 135 2.14 168 2.14 130 2.14 134 2.16
   7  0.000  1.000  0.649- 135 2.12 214 2.13 134 2.13 165 2.14 141 2.14
   8  0.125  0.375  0.649- 149 2.11 136 2.12 133 2.14 166 2.14 142 2.14
   9  0.000  0.125  0.350- 137 2.14 131 2.14 139 2.14 140 2.14 220 2.14
  10  0.125  0.250  0.350- 138 2.14 132 2.14 139 2.14 140 2.14 155 2.14
  11  0.000  0.250  0.450- 139 2.14 137 2.14 138 2.14 129 2.14 218 2.14 143 2.14
  12  0.125  0.125  0.450- 144 2.14 140 2.14 138 2.14 130 2.14 137 2.14 153 2.14
  13  1.000  0.125  0.550- 144 2.13 224 2.13 143 2.14 135 2.14 137 2.14 141 2.17
  14  0.125  0.250  0.550- 159 2.13 143 2.14 136 2.14 138 2.14 144 2.14 142 2.17
  15  1.000  0.250  0.649- 143 2.12 222 2.13 142 2.13 141 2.14 133 2.14
  16  0.125  0.125  0.649- 144 2.12 157 2.13 141 2.14 142 2.14 134 2.14
  17  0.250  0.375  0.350- 145 2.14 132 2.14 148 2.14 155 2.14 179 2.14
  18  0.375  0.000  0.350- 146 2.14 147 2.14 156 2.14 180 2.14 195 2.14
  19  0.250  0.000  0.450- 151 2.14 147 2.14 130 2.14 146 2.14 153 2.14 177 2.14
  20  0.375  0.375  0.450- 148 2.14 145 2.14 154 2.14 178 2.14 193 2.14 152 2.15
  21  0.251  0.375  0.550- 152 2.12 159 2.14 183 2.14 145 2.15 136 2.15 149 2.16
  22  0.375  1.000  0.550- 160 2.13 184 2.14 199 2.14 146 2.14 151 2.14 150 2.17
  23  0.250  1.000  0.649- 151 2.12 157 2.13 181 2.14 150 2.14 134 2.14
  24  0.374  0.375  0.653- 149 2.15 197 2.15 158 2.16 182 2.17 152 2.19
  25  0.250  0.125  0.350- 153 2.14 147 2.14 140 2.14 155 2.14 156 2.14
  26  0.375  0.250  0.350- 154 2.14 148 2.14 155 2.14 156 2.14 203 2.14
  27  0.250  0.250  0.450- 159 2.13 155 2.14 153 2.14 154 2.14 138 2.14 145 2.14
  28  0.375  0.125  0.450- 160 2.13 156 2.14 154 2.14 146 2.14 153 2.14 201 2.14
  29  0.250  0.125  0.550- 159 2.13 160 2.13 153 2.14 144 2.14 151 2.14 157 2.17
  30  0.376  0.251  0.551- 152 2.13 207 2.13 158 2.14 159 2.15 160 2.15 154 2.16
  31  0.250  0.250  0.648- 159 2.11 158 2.11 142 2.14 157 2.14 149 2.14
  32  0.375  0.125  0.648- 160 2.10 158 2.12 150 2.14 157 2.14 205 2.14
  33  0.000  0.875  0.350- 161 2.14 131 2.14 164 2.14 171 2.14 244 2.14
  34  0.125  0.500  0.350- 162 2.14 132 2.14 163 2.14 172 2.14 179 2.14
  35  0.000  0.500  0.450- 163 2.14 162 2.14 129 2.14 169 2.14 242 2.14 167 2.14
  36  0.125  0.875  0.450- 164 2.14 161 2.14 130 2.14 170 2.14 177 2.14 168 2.14
  37  0.000  0.875  0.550- 168 2.14 248 2.14 135 2.14 175 2.14 161 2.14 165 2.16
  38  0.125  0.500  0.550- 183 2.13 167 2.14 136 2.14 162 2.14 176 2.14 166 2.17
  39  0.000  0.500  0.649- 167 2.12 166 2.13 246 2.13 173 2.14 133 2.14
  40  0.125  0.875  0.649- 168 2.12 134 2.13 174 2.13 165 2.14 181 2.14
  41  0.000  0.625  0.350- 169 2.14 163 2.14 171 2.14 172 2.14 252 2.14
  42  0.125  0.750  0.350- 170 2.14 164 2.14 171 2.14 172 2.14 187 2.14
  43  0.000  0.750  0.450- 171 2.14 169 2.14 170 2.14 161 2.14 250 2.14 175 2.14
  44  0.125  0.625  0.450- 176 2.14 172 2.14 170 2.14 162 2.14 169 2.14 185 2.14
  45  0.000  0.625  0.550- 256 2.13 176 2.13 167 2.14 175 2.14 169 2.14 173 2.17
  46  0.125  0.750  0.550- 191 2.14 176 2.14 175 2.14 168 2.14 170 2.14 174 2.16
  47  0.000  0.750  0.649- 175 2.12 174 2.13 254 2.13 165 2.14 173 2.14
  48  0.125  0.625  0.649- 176 2.12 189 2.13 173 2.14 166 2.14 174 2.14
  49  0.250  0.875  0.350- 177 2.14 164 2.14 147 2.14 180 2.14 187 2.14
  50  0.375  0.500  0.350- 178 2.14 148 2.14 179 2.14 188 2.14 227 2.14
  51  0.250  0.500  0.450- 183 2.13 179 2.14 178 2.14 145 2.14 162 2.14 185 2.14
  52  0.375  0.875  0.450- 180 2.14 177 2.14 146 2.14 186 2.14 225 2.14 184 2.14
  53  0.250  0.875  0.550- 151 2.13 191 2.13 184 2.14 168 2.14 177 2.14 181 2.17
  54  0.376  0.499  0.551- 231 2.13 152 2.13 182 2.14 192 2.15 183 2.15 178 2.16
  55  0.250  0.500  0.648- 183 2.10 182 2.12 166 2.14 189 2.14 149 2.14
  56  0.375  0.875  0.649- 184 2.12 150 2.13 190 2.13 181 2.14 229 2.14
  57  0.250  0.625  0.350- 185 2.14 179 2.14 172 2.14 187 2.14 188 2.14
  58  0.375  0.750  0.350- 186 2.14 180 2.14 187 2.14 188 2.14 235 2.14
  59  0.250  0.750  0.450- 191 2.14 187 2.14 185 2.14 186 2.14 170 2.14 177 2.14
  60  0.375  0.625  0.450- 192 2.13 188 2.14 186 2.14 178 2.14 185 2.14 233 2.14
  61  0.250  0.625  0.550- 192 2.13 183 2.13 185 2.14 191 2.14 176 2.14 189 2.17
  62  0.375  0.750  0.550- 192 2.13 239 2.14 184 2.14 186 2.14 191 2.14 190 2.17
  63  0.250  0.750  0.649- 191 2.12 189 2.13 181 2.14 190 2.14 174 2.14
  64  0.375  0.625  0.648- 192 2.11 182 2.11 190 2.14 189 2.14 237 2.14
  65  0.500  0.375  0.350- 193 2.14 148 2.14 196 2.14 203 2.14 227 2.14
  66  0.625  0.000  0.350- 194 2.14 195 2.14 204 2.14 211 2.14 228 2.14
  67  0.500  0.000  0.450- 199 2.14 195 2.14 146 2.14 194 2.14 201 2.14 225 2.14
  68  0.625  0.375  0.450- 196 2.14 193 2.14 202 2.14 209 2.14 226 2.14 200 2.15
  69  0.500  0.375  0.552- 197 2.12 152 2.14 207 2.14 200 2.14 231 2.14 193 2.18
  70  0.625  1.000  0.550- 208 2.13 232 2.14 199 2.14 194 2.14 215 2.14 198 2.17
  71  0.500  1.000  0.649- 205 2.11 199 2.12 229 2.14 150 2.14 198 2.14
  72  0.626  0.375  0.653- 213 2.15 197 2.15 230 2.16 206 2.17 200 2.19
  73  0.500  0.125  0.350- 201 2.14 195 2.14 156 2.14 203 2.14 204 2.14
  74  0.625  0.250  0.350- 202 2.14 196 2.14 203 2.14 204 2.14 219 2.14
  75  0.500  0.250  0.450- 203 2.14 193 2.14 201 2.14 202 2.14 154 2.14 207 2.15
  76  0.625  0.125  0.450- 208 2.13 204 2.14 202 2.14 194 2.14 201 2.14 217 2.14
  77  0.500  0.126  0.550- 207 2.12 208 2.14 160 2.14 201 2.15 199 2.15 205 2.16
  78  0.624  0.251  0.551- 207 2.13 200 2.13 206 2.14 208 2.15 223 2.15 202 2.16
  79  0.500  0.249  0.653- 205 2.15 197 2.15 206 2.16 158 2.17 207 2.19
  80  0.625  0.125  0.648- 208 2.11 206 2.11 198 2.14 221 2.14 205 2.14
  81  0.750  0.375  0.350- 209 2.14 196 2.14 212 2.14 219 2.14 243 2.14
  82  0.875  0.000  0.350- 210 2.14 131 2.14 211 2.14 220 2.14 244 2.14
  83  0.750  0.000  0.450- 215 2.14 211 2.14 194 2.14 210 2.14 217 2.14 241 2.14
  84  0.875  0.375  0.450- 216 2.14 212 2.14 129 2.14 209 2.14 218 2.14 242 2.14
  85  0.749  0.375  0.550- 200 2.12 247 2.14 223 2.14 209 2.15 216 2.15 213 2.16
  86  0.875  1.000  0.550- 224 2.14 215 2.14 135 2.14 248 2.14 210 2.14 214 2.16
  87  0.750  1.000  0.649- 215 2.12 221 2.13 245 2.14 198 2.14 214 2.14
  88  0.875  0.375  0.649- 213 2.11 216 2.12 133 2.14 222 2.14 246 2.14
  89  0.750  0.125  0.350- 217 2.14 211 2.14 204 2.14 219 2.14 220 2.14
  90  0.875  0.250  0.350- 218 2.14 212 2.14 139 2.14 219 2.14 220 2.14
  91  0.750  0.250  0.450- 223 2.13 219 2.14 217 2.14 218 2.14 202 2.14 209 2.14
  92  0.875  0.125  0.450- 224 2.14 220 2.14 217 2.14 218 2.14 137 2.14 210 2.14
  93  0.750  0.125  0.550- 208 2.13 223 2.13 217 2.14 215 2.14 224 2.14 221 2.17
  94  0.875  0.250  0.550- 223 2.13 143 2.14 216 2.14 218 2.14 224 2.14 222 2.17
  95  0.750  0.250  0.648- 223 2.10 206 2.12 222 2.14 221 2.14 213 2.14
  96  0.875  0.125  0.649- 224 2.12 221 2.13 141 2.13 222 2.14 214 2.14
  97  0.500  0.875  0.350- 225 2.14 195 2.14 180 2.14 228 2.14 235 2.14
  98  0.625  0.500  0.350- 226 2.14 196 2.14 227 2.14 236 2.14 243 2.14
  99  0.500  0.500  0.450- 227 2.14 193 2.14 226 2.14 178 2.14 233 2.14 231 2.15
 100  0.625  0.875  0.450- 228 2.14 225 2.14 194 2.14 234 2.14 241 2.14 232 2.14
 101  0.500  0.875  0.550- 199 2.13 239 2.13 184 2.14 232 2.14 225 2.14 229 2.17
 102  0.624  0.499  0.551- 200 2.13 231 2.13 230 2.14 247 2.15 240 2.15 226 2.16
 103  0.500  0.501  0.653- 237 2.15 197 2.15 182 2.16 230 2.17 231 2.19
 104  0.625  0.875  0.649- 232 2.12 198 2.13 238 2.13 245 2.14 229 2.14
 105  0.500  0.625  0.350- 233 2.14 227 2.14 188 2.14 235 2.14 236 2.14
 106  0.625  0.750  0.350- 234 2.14 228 2.14 235 2.14 236 2.14 251 2.14
 107  0.500  0.750  0.450- 239 2.14 235 2.14 233 2.14 234 2.14 186 2.14 225 2.14
 108  0.625  0.625  0.450- 240 2.13 236 2.14 234 2.14 226 2.14 233 2.14 249 2.14
 109  0.500  0.624  0.550- 231 2.12 192 2.14 240 2.14 233 2.15 239 2.15 237 2.16
 110  0.625  0.750  0.550- 240 2.13 232 2.14 239 2.14 234 2.14 255 2.14 238 2.17
 111  0.500  0.750  0.649- 237 2.11 239 2.12 229 2.14 238 2.14 190 2.14
 112  0.625  0.625  0.648- 240 2.10 230 2.12 238 2.14 253 2.14 237 2.14
 113  0.750  0.875  0.350- 241 2.14 228 2.14 211 2.14 244 2.14 251 2.14
 114  0.875  0.500  0.350- 242 2.14 212 2.14 163 2.14 243 2.14 252 2.14
 115  0.750  0.500  0.450- 247 2.13 243 2.14 242 2.14 209 2.14 226 2.14 249 2.14
 116  0.875  0.875  0.450- 244 2.14 210 2.14 241 2.14 161 2.14 250 2.14 248 2.14
 117  0.750  0.875  0.550- 215 2.13 255 2.13 232 2.14 248 2.14 241 2.14 245 2.17
 118  0.875  0.500  0.550- 247 2.13 216 2.14 167 2.14 242 2.14 256 2.14 246 2.17
 119  0.750  0.500  0.648- 247 2.11 230 2.11 246 2.14 253 2.14 213 2.14
 120  0.875  0.875  0.649- 248 2.12 254 2.13 214 2.13 165 2.14 245 2.14
 121  0.750  0.625  0.350- 249 2.14 243 2.14 236 2.14 251 2.14 252 2.14
 122  0.875  0.750  0.350- 250 2.14 244 2.14 171 2.14 251 2.14 252 2.14
 123  0.750  0.750  0.450- 255 2.14 251 2.14 249 2.14 250 2.14 234 2.14 241 2.14
 124  0.875  0.625  0.450- 256 2.14 252 2.14 249 2.14 250 2.14 169 2.14 242 2.14
 125  0.750  0.625  0.550- 247 2.13 240 2.13 249 2.14 256 2.14 255 2.14 253 2.17
 126  0.875  0.750  0.550- 256 2.14 255 2.14 248 2.14 175 2.14 250 2.14 254 2.16
 127  0.750  0.750  0.649- 255 2.12 253 2.13 245 2.14 238 2.14 254 2.14
 128  0.875  0.625  0.649- 256 2.12 253 2.13 173 2.14 246 2.14 254 2.14
 129  0.000  0.375  0.450-   1 2.14   4 2.14  11 2.14  35 2.14  84 2.14   5 2.14
 130  0.125  0.000  0.450-   2 2.14   3 2.14  12 2.14  19 2.14  36 2.14   6 2.14
 131  0.000  0.000  0.350-   3 2.14   2 2.14   9 2.14  33 2.14  82 2.14
 132  0.125  0.375  0.350-   4 2.14   1 2.14  10 2.14  17 2.14  34 2.14
 133  0.000  0.375  0.651-  88 2.14   8 2.14  15 2.14  39 2.14   5 2.17
 134  0.125  1.000  0.651-   7 2.13  40 2.13  23 2.14  16 2.14   6 2.16
 135  0.000  1.000  0.550-   7 2.12  37 2.14  86 2.14   6 2.14   3 2.14  13 2.14
 136  0.125  0.375  0.550-   8 2.12   5 2.13   4 2.14  38 2.14  14 2.14  21 2.15
 137  0.000  0.125  0.450-   9 2.14   3 2.14  11 2.14  12 2.14  92 2.14  13 2.14
 138  0.125  0.250  0.450-  10 2.14   4 2.14  11 2.14  12 2.14  27 2.14  14 2.14
 139  0.000  0.250  0.350-  11 2.14   9 2.14  10 2.14   1 2.14  90 2.14
 140  0.125  0.125  0.350-  12 2.14   9 2.14  10 2.14   2 2.14  25 2.14
 141  0.000  0.125  0.651-  96 2.13  16 2.14   7 2.14  15 2.14  13 2.17
 142  0.125  0.250  0.651-  15 2.13  16 2.14  31 2.14   8 2.14  14 2.17
 143  0.000  0.250  0.550-  15 2.12  94 2.14  14 2.14  13 2.14  11 2.14   5 2.14
 144  0.125  0.125  0.550-  16 2.12  13 2.13   6 2.14  12 2.14  29 2.14  14 2.14
 145  0.250  0.375  0.450-  17 2.14   4 2.14  20 2.14  27 2.14  51 2.14  21 2.15
 146  0.375  0.000  0.450-  18 2.14  19 2.14  28 2.14  52 2.14  67 2.14  22 2.14
 147  0.250  0.000  0.350-  19 2.14  18 2.14   2 2.14  25 2.14  49 2.14
 148  0.375  0.375  0.350-  20 2.14  17 2.14  26 2.14  50 2.14  65 2.14
 149  0.249  0.375  0.651-   8 2.11  31 2.14  55 2.14  24 2.15  21 2.16
 150  0.375  1.000  0.651-  56 2.13  23 2.14  32 2.14  71 2.14  22 2.17
 151  0.250  1.000  0.550-  23 2.12  53 2.13   6 2.14  19 2.14  29 2.14  22 2.14
 152  0.375  0.375  0.551-  21 2.12  30 2.13  54 2.13  69 2.14  20 2.15  24 2.19
 153  0.250  0.125  0.450-  25 2.14  19 2.14  12 2.14  27 2.14  28 2.14  29 2.14
 154  0.375  0.250  0.450-  26 2.14  20 2.14  27 2.14  28 2.14  75 2.14  30 2.16
 155  0.250  0.250  0.350-  27 2.14  17 2.14  25 2.14  26 2.14  10 2.14
 156  0.375  0.125  0.350-  28 2.14  25 2.14  26 2.14  18 2.14  73 2.14
 157  0.249  0.124  0.651-  23 2.13  16 2.13  32 2.14  31 2.14  29 2.17
 158  0.373  0.249  0.651-  31 2.11  32 2.12  30 2.14  24 2.16  79 2.17
 159  0.250  0.250  0.550-  31 2.11  14 2.13  29 2.13  27 2.13  21 2.14  30 2.15
 160  0.375  0.125  0.550-  32 2.10  22 2.13  28 2.13  29 2.13  77 2.14  30 2.15
 161  0.000  0.875  0.450-  33 2.14   3 2.14  36 2.14  43 2.14 116 2.14  37 2.14
 162  0.125  0.500  0.450-  34 2.14   4 2.14  35 2.14  44 2.14  51 2.14  38 2.14
 163  0.000  0.500  0.350-  35 2.14  34 2.14   1 2.14  41 2.14 114 2.14
 164  0.125  0.875  0.350-  36 2.14  33 2.14   2 2.14  42 2.14  49 2.14
 165  0.000  0.875  0.651-  47 2.14  40 2.14 120 2.14   7 2.14  37 2.16
 166  0.125  0.500  0.651-  39 2.13  48 2.14  55 2.14   8 2.14  38 2.17
 167  0.000  0.500  0.550-  39 2.12  38 2.14  45 2.14 118 2.14  35 2.14   5 2.14
 168  0.125  0.875  0.550-  40 2.12  37 2.14  46 2.14   6 2.14  36 2.14  53 2.14
 169  0.000  0.625  0.450-  41 2.14  35 2.14  43 2.14  44 2.14 124 2.14  45 2.14
 170  0.125  0.750  0.450-  42 2.14  36 2.14  43 2.14  44 2.14  59 2.14  46 2.14
 171  0.000  0.750  0.350-  43 2.14  41 2.14  42 2.14  33 2.14 122 2.14
 172  0.125  0.625  0.350-  44 2.14  41 2.14  42 2.14  34 2.14  57 2.14
 173  0.000  0.625  0.651-  48 2.14 128 2.14  47 2.14  39 2.14  45 2.17
 174  0.125  0.750  0.651-  47 2.13  40 2.13  63 2.14  48 2.14  46 2.16
 175  0.000  0.750  0.550-  47 2.12  37 2.14  46 2.14 126 2.14  43 2.14  45 2.14
 176  0.125  0.625  0.550-  48 2.12  45 2.13  46 2.14  44 2.14  61 2.14  38 2.14
 177  0.250  0.875  0.450-  49 2.14  36 2.14  19 2.14  52 2.14  59 2.14  53 2.14
 178  0.375  0.500  0.450-  50 2.14  20 2.14  51 2.14  60 2.14  99 2.14  54 2.16
 179  0.250  0.500  0.350-  51 2.14  34 2.14  50 2.14  17 2.14  57 2.14
 180  0.375  0.875  0.350-  52 2.14  49 2.14  18 2.14  58 2.14  97 2.14
 181  0.250  0.875  0.651-  23 2.14  63 2.14  40 2.14  56 2.14  53 2.17
 182  0.374  0.502  0.651-  64 2.11  55 2.12  54 2.14 103 2.16  24 2.17
 183  0.250  0.500  0.550-  55 2.10  38 2.13  51 2.13  61 2.13  21 2.14  54 2.15
 184  0.375  0.875  0.550-  56 2.12  22 2.14  62 2.14  53 2.14  52 2.14 101 2.14
 185  0.250  0.625  0.450-  57 2.14  51 2.14  44 2.14  59 2.14  60 2.14  61 2.14
 186  0.375  0.750  0.450-  58 2.14  52 2.14  59 2.14  60 2.14 107 2.14  62 2.14
 187  0.250  0.750  0.350-  59 2.14  49 2.14  57 2.14  58 2.14  42 2.14
 188  0.375  0.625  0.350-  60 2.14  57 2.14  58 2.14  50 2.14 105 2.14
 189  0.249  0.626  0.651-  48 2.13  63 2.13  55 2.14  64 2.14  61 2.17
 190  0.375  0.750  0.651-  56 2.13  63 2.14  64 2.14 111 2.14  62 2.17
 191  0.250  0.750  0.550-  63 2.12  53 2.13  46 2.14  59 2.14  61 2.14  62 2.14
 192  0.375  0.625  0.550-  64 2.11  62 2.13  61 2.13  60 2.13 109 2.14  54 2.15
 193  0.500  0.375  0.450-  65 2.14  20 2.14  68 2.14  75 2.14  99 2.14  69 2.18
 194  0.625  0.000  0.450-  66 2.14  67 2.14  76 2.14  83 2.14 100 2.14  70 2.14
 195  0.500  0.000  0.350-  67 2.14  66 2.14  18 2.14  73 2.14  97 2.14
 196  0.625  0.375  0.350-  68 2.14  65 2.14  74 2.14  81 2.14  98 2.14
 197  0.500  0.375  0.651-  69 2.12  24 2.15  72 2.15  79 2.15 103 2.15
 198  0.625  1.000  0.651- 104 2.13  87 2.14  80 2.14  71 2.14  70 2.17
 199  0.500  1.000  0.550-  71 2.12 101 2.13  67 2.14  22 2.14  70 2.14  77 2.15
 200  0.625  0.375  0.551-  85 2.12 102 2.13  78 2.13  69 2.14  68 2.15  72 2.19
 201  0.500  0.125  0.450-  73 2.14  67 2.14  28 2.14  75 2.14  76 2.14  77 2.15
 202  0.625  0.250  0.450-  74 2.14  68 2.14  75 2.14  76 2.14  91 2.14  78 2.16
 203  0.500  0.250  0.350-  75 2.14  65 2.14  73 2.14  74 2.14  26 2.14
 204  0.625  0.125  0.350-  76 2.14  73 2.14  74 2.14  66 2.14  89 2.14
 205  0.500  0.124  0.651-  71 2.11  80 2.14  32 2.14  79 2.15  77 2.16
 206  0.626  0.248  0.651-  80 2.11  95 2.12  78 2.14  79 2.16  72 2.17
 207  0.500  0.250  0.551-  77 2.12  78 2.13  30 2.13  69 2.14  75 2.15  79 2.19
 208  0.625  0.125  0.550-  80 2.11  70 2.13  93 2.13  76 2.13  77 2.14  78 2.15
 209  0.750  0.375  0.450-  81 2.14  68 2.14  84 2.14  91 2.14 115 2.14  85 2.15
 210  0.875  0.000  0.450-  82 2.14   3 2.14  83 2.14  92 2.14 116 2.14  86 2.14
 211  0.750  0.000  0.350-  83 2.14  82 2.14  66 2.14  89 2.14 113 2.14
 212  0.875  0.375  0.350-  84 2.14  81 2.14   1 2.14  90 2.14 114 2.14
 213  0.751  0.375  0.651-  88 2.11 119 2.14  95 2.14  72 2.15  85 2.16
 214  0.875  1.000  0.651-   7 2.13 120 2.13  96 2.14  87 2.14  86 2.16
 215  0.750  1.000  0.550-  87 2.12 117 2.13  86 2.14  83 2.14  93 2.14  70 2.14
 216  0.875  0.375  0.550-  88 2.12   5 2.13  84 2.14  94 2.14 118 2.14  85 2.15
 217  0.750  0.125  0.450-  89 2.14  83 2.14  76 2.14  91 2.14  92 2.14  93 2.14
 218  0.875  0.250  0.450-  90 2.14  84 2.14  11 2.14  91 2.14  92 2.14  94 2.14
 219  0.750  0.250  0.350-  91 2.14  81 2.14  89 2.14  90 2.14  74 2.14
 220  0.875  0.125  0.350-  92 2.14  82 2.14  89 2.14  90 2.14   9 2.14
 221  0.751  0.124  0.651-  96 2.13  87 2.13  95 2.14  80 2.14  93 2.17
 222  0.875  0.250  0.651-  15 2.13  96 2.14  95 2.14  88 2.14  94 2.17
 223  0.750  0.250  0.550-  95 2.10  94 2.13  91 2.13  93 2.13  85 2.14  78 2.15
 224  0.875  0.125  0.550-  96 2.12  13 2.13  86 2.14  92 2.14  93 2.14  94 2.14
 225  0.500  0.875  0.450-  97 2.14  67 2.14  52 2.14 100 2.14 107 2.14 101 2.14
 226  0.625  0.500  0.450-  98 2.14  68 2.14  99 2.14 108 2.14 115 2.14 102 2.16
 227  0.500  0.500  0.350-  99 2.14  65 2.14  98 2.14  50 2.14 105 2.14
 228  0.625  0.875  0.350- 100 2.14  97 2.14  66 2.14 106 2.14 113 2.14
 229  0.500  0.875  0.651- 111 2.14  71 2.14  56 2.14 104 2.14 101 2.17
 230  0.627  0.501  0.651- 119 2.11 112 2.12 102 2.14  72 2.16 103 2.17
 231  0.500  0.500  0.551- 109 2.12  54 2.13 102 2.13  69 2.14  99 2.15 103 2.19
 232  0.625  0.875  0.550- 104 2.12 110 2.14  70 2.14 117 2.14 100 2.14 101 2.14
 233  0.500  0.625  0.450- 105 2.14  99 2.14  60 2.14 107 2.14 108 2.14 109 2.15
 234  0.625  0.750  0.450- 106 2.14 100 2.14 107 2.14 108 2.14 123 2.14 110 2.14
 235  0.500  0.750  0.350- 107 2.14  97 2.14 105 2.14 106 2.14  58 2.14
 236  0.625  0.625  0.350- 108 2.14 105 2.14 106 2.14  98 2.14 121 2.14
 237  0.500  0.626  0.651- 111 2.11  64 2.14 112 2.14 103 2.15 109 2.16
 238  0.625  0.750  0.651- 104 2.13 127 2.14 112 2.14 111 2.14 110 2.17
 239  0.500  0.750  0.550- 111 2.12 101 2.13 107 2.14 110 2.14  62 2.14 109 2.15
 240  0.625  0.625  0.550- 112 2.10 110 2.13 108 2.13 125 2.13 109 2.14 102 2.15
 241  0.750  0.875  0.450- 113 2.14 100 2.14  83 2.14 116 2.14 123 2.14 117 2.14
 242  0.875  0.500  0.450- 114 2.14  84 2.14  35 2.14 115 2.14 124 2.14 118 2.14
 243  0.750  0.500  0.350- 115 2.14  98 2.14 114 2.14  81 2.14 121 2.14
 244  0.875  0.875  0.350- 116 2.14  82 2.14 113 2.14  33 2.14 122 2.14
 245  0.750  0.875  0.651- 127 2.14  87 2.14 120 2.14 104 2.14 117 2.17
 246  0.875  0.500  0.651-  39 2.13 128 2.14 119 2.14  88 2.14 118 2.17
 247  0.750  0.500  0.550- 119 2.11 118 2.13 125 2.13 115 2.13  85 2.14 102 2.15
 248  0.875  0.875  0.550- 120 2.12  37 2.14 126 2.14  86 2.14 116 2.14 117 2.14
 249  0.750  0.625  0.450- 121 2.14 115 2.14 108 2.14 123 2.14 124 2.14 125 2.14
 250  0.875  0.750  0.450- 122 2.14 116 2.14  43 2.14 123 2.14 124 2.14 126 2.14
 251  0.750  0.750  0.350- 123 2.14 113 2.14 121 2.14 122 2.14 106 2.14
 252  0.875  0.625  0.350- 124 2.14 114 2.14 121 2.14 122 2.14  41 2.14
 253  0.751  0.626  0.651- 127 2.13 128 2.13 112 2.14 119 2.14 125 2.17
 254  0.875  0.750  0.651- 120 2.13  47 2.13 127 2.14 128 2.14 126 2.16
 255  0.750  0.750  0.550- 127 2.12 117 2.13 126 2.14 123 2.14 125 2.14 110 2.14
 256  0.875  0.625  0.550- 128 2.12  45 2.13 126 2.14 124 2.14 125 2.14 118 2.14


IMPORTANT INFORMATION: All symmetrisations will be switched off!
NOSYMM: (Re-)initialisation of all symmetry stuff for point group C_1.


----------------------------------------------------------------------------------------

                                     Primitive cell                                     

  volume of cell :    6254.6868

  direct lattice vectors                    reciprocal lattice vectors
    17.092227251  0.000000000  0.000000000     0.058506126  0.000000000  0.000000000
     0.000000000 17.092227251  0.000000000     0.000000000  0.058506126  0.000000000
     0.000000000  0.000000000 21.409585219     0.000000000  0.000000000  0.046708051

  length of vectors
    17.092227251 17.092227251 21.409585219     0.058506126  0.058506126  0.046708051

  position of ions in fractional coordinates (direct lattice)
     0.000000000  0.375000000  0.350310383
     0.125000000  0.000000000  0.350310383
     0.000000000  0.000000000  0.450103461
     0.125000000  0.375000000  0.450103461
     0.000001196  0.375000689  0.550045974
     0.124971383  0.999967172  0.550076441
     0.000003901  0.999894575  0.649008526
     0.124950872  0.374997879  0.648687935
     0.000000000  0.125000000  0.350310383
     0.125000000  0.250000000  0.350310383
     0.000000000  0.250000000  0.450103461
     0.125000000  0.125000000  0.450103461
     0.999998119  0.124956460  0.550074306
     0.124972870  0.250030761  0.549984253
     0.999994506  0.249889590  0.648948091
     0.124883864  0.124805483  0.648916537
     0.250000000  0.375000000  0.350310383
     0.375000000  0.000000000  0.350310383
     0.250000000  0.000000000  0.450103461
     0.375000000  0.375000000  0.450103461
     0.250541518  0.374964573  0.550388470
     0.375025838  0.999958293  0.549965825
     0.249800541  0.999881307  0.648915418
     0.374268146  0.374855607  0.653080472
     0.250000000  0.125000000  0.350310383
     0.375000000  0.250000000  0.350310383
     0.250000000  0.250000000  0.450103461
     0.375000000  0.125000000  0.450103461
     0.249981558  0.125006374  0.549902449
     0.375628411  0.250661725  0.550888700
     0.249773893  0.249651572  0.648195745
     0.374626804  0.124758048  0.648020935
     0.000000000  0.875000000  0.350310383
     0.125000000  0.500000000  0.350310383
     0.000000000  0.500000000  0.450103461
     0.125000000  0.875000000  0.450103461
     0.000004024  0.875002026  0.550081678
     0.124963621  0.499966956  0.549976426
     0.000015670  0.500115296  0.648965814
     0.124898252  0.874998860  0.649004386
     0.000000000  0.625000000  0.350310383
     0.125000000  0.750000000  0.350310383
     0.000000000  0.750000000  0.450103461
     0.125000000  0.625000000  0.450103461
     0.000007600  0.625041725  0.550077348
     0.124970448  0.750029626  0.550079606
     0.000009728  0.750104434  0.649010617
     0.124884868  0.625190266  0.648927317
     0.250000000  0.875000000  0.350310383
     0.375000000  0.500000000  0.350310383
     0.250000000  0.500000000  0.450103461
     0.375000000  0.875000000  0.450103461
     0.249956899  0.875006692  0.550070697
     0.375665943  0.499373154  0.550888186
     0.249772345  0.500355144  0.648029528
     0.374884925  0.875009835  0.648954506
     0.250000000  0.625000000  0.350310383
     0.375000000  0.750000000  0.350310383
     0.250000000  0.750000000  0.450103461
     0.375000000  0.625000000  0.450103461
     0.250008234  0.625015278  0.549903580
     0.375031257  0.750030515  0.549987472
     0.249808802  0.750117772  0.648917247
     0.374654827  0.625231836  0.648194397
     0.500000000  0.375000000  0.350310383
     0.625000000  0.000000000  0.350310383
     0.500000000  0.000000000  0.450103461
     0.625000000  0.375000000  0.450103461
     0.499997107  0.374992075  0.552121770
     0.624968309  0.999972231  0.549989432
     0.499990927  0.999951922  0.648682520
     0.625750473  0.375142942  0.653060791
     0.500000000  0.125000000  0.350310383
     0.625000000  0.250000000  0.350310383
     0.500000000  0.250000000  0.450103461
     0.625000000  0.125000000  0.450103461
     0.500026862  0.125534453  0.550387305
     0.624336976  0.250618721  0.550890230
     0.500137109  0.249223468  0.653072840
     0.625338935  0.124761403  0.648198485
     0.750000000  0.375000000  0.350310383
     0.875000000  0.000000000  0.350310383
     0.750000000  0.000000000  0.450103461
     0.875000000  0.375000000  0.450103461
     0.749464095  0.375030581  0.550381194
     0.875035581  0.999976104  0.550081134
     0.750199050  0.999884090  0.648918650
     0.875054439  0.374995795  0.648675966
     0.750000000  0.125000000  0.350310383
     0.875000000  0.250000000  0.350310383
     0.750000000  0.250000000  0.450103461
     0.875000000  0.125000000  0.450103461
     0.749991768  0.124983814  0.549908282
     0.875040170  0.250031397  0.549969842
     0.750240487  0.249635043  0.648022330
     0.875128345  0.124807406  0.648920783
     0.500000000  0.875000000  0.350310383
     0.625000000  0.500000000  0.350310383
     0.500000000  0.500000000  0.450103461
     0.625000000  0.875000000  0.450103461
     0.499999053  0.875001719  0.550043351
     0.624377592  0.499335719  0.550886535
     0.499866536  0.500762584  0.653063870
     0.625117837  0.874994139  0.648959873
     0.500000000  0.625000000  0.350310383
     0.625000000  0.750000000  0.350310383
     0.500000000  0.750000000  0.450103461
     0.625000000  0.625000000  0.450103461
     0.499966016  0.624463311  0.550387805
     0.624969407  0.750045621  0.549973159
     0.500006650  0.750054713  0.648685108
     0.625367090  0.625237791  0.648015532
     0.750000000  0.875000000  0.350310383
     0.875000000  0.500000000  0.350310383
     0.750000000  0.500000000  0.450103461
     0.875000000  0.875000000  0.450103461
     0.750046818  0.875000921  0.550073433
     0.875031658  0.499970829  0.549987451
     0.750241651  0.500349429  0.648182578
     0.875110074  0.875000132  0.649007258
     0.750000000  0.625000000  0.350310383
     0.875000000  0.750000000  0.350310383
     0.750000000  0.750000000  0.450103461
     0.875000000  0.625000000  0.450103461
     0.750019037  0.624993190  0.549900895
     0.875035537  0.750033756  0.550078081
     0.750198321  0.750123713  0.648914885
     0.875120589  0.625198043  0.648914260
     0.000000000  0.375000000  0.450103461
     0.125000000  0.000000000  0.450103461
     0.000000000  0.000000000  0.350310383
     0.125000000  0.375000000  0.350310383
     0.000000734  0.374991835  0.651254040
     0.124814196  0.999812418  0.651187356
     0.000003226  0.999944144  0.549903475
     0.124770320  0.375008734  0.549846437
     0.000000000  0.125000000  0.450103461
     0.125000000  0.250000000  0.450103461
     0.000000000  0.250000000  0.350310383
     0.125000000  0.125000000  0.350310383
     0.000001036  0.124822405  0.651203726
     0.124762755  0.249750108  0.651294781
     0.000000648  0.249933055  0.549924144
     0.124865737  0.124887115  0.549870218
     0.250000000  0.375000000  0.450103461
     0.375000000  0.000000000  0.450103461
     0.250000000  0.000000000  0.350310383
     0.375000000  0.375000000  0.350310383
     0.248636717  0.374999678  0.651224495
     0.374745416  0.999777170  0.651268892
     0.249891730  0.999876255  0.549867123
     0.374627061  0.375013911  0.550562662
     0.250000000  0.125000000  0.450103461
     0.375000000  0.250000000  0.450103461
     0.250000000  0.250000000  0.350310383
     0.375000000  0.125000000  0.350310383
     0.249465201  0.124435675  0.651121439
     0.373354891  0.248567591  0.651022052
     0.249613159  0.249804190  0.549753498
     0.374819395  0.124635376  0.549745222
     0.000000000  0.875000000  0.450103461
     0.125000000  0.500000000  0.450103461
     0.000000000  0.500000000  0.350310383
     0.125000000  0.875000000  0.350310383
     0.000005009  0.874997216  0.651164779
     0.124779114  0.500244458  0.651293030
     0.000009793  0.500067878  0.549930059
     0.124943470  0.874998235  0.549902898
     0.000000000  0.625000000  0.450103461
     0.125000000  0.750000000  0.450103461
     0.000000000  0.750000000  0.350310383
     0.125000000  0.625000000  0.350310383
     0.000003318  0.625178685  0.651213437
     0.124818629  0.750182770  0.651196371
     0.000007717  0.750057922  0.549904205
     0.124880009  0.625102934  0.549874632
     0.250000000  0.875000000  0.450103461
     0.375000000  0.500000000  0.450103461
     0.250000000  0.500000000  0.350310383
     0.375000000  0.875000000  0.350310383
     0.249817355  0.875002961  0.651202556
     0.373578070  0.501649775  0.651021245
     0.249637778  0.500171982  0.549751099
     0.374929950  0.875003576  0.549924942
     0.250000000  0.625000000  0.450103461
     0.375000000  0.750000000  0.450103461
     0.250000000  0.750000000  0.350310383
     0.375000000  0.625000000  0.350310383
     0.249442933  0.625525111  0.651121375
     0.374744324  0.750241113  0.651287615
     0.249884739  0.750134468  0.549874155
     0.374810496  0.625388148  0.549754581
     0.500000000  0.375000000  0.450103461
     0.625000000  0.000000000  0.450103461
     0.500000000  0.000000000  0.350310383
     0.625000000  0.375000000  0.350310383
     0.500007617  0.374988876  0.651242773
     0.625247113  0.999757486  0.651293156
     0.499993831  0.999765416  0.549842009
     0.625376949  0.374986122  0.550564378
     0.500000000  0.125000000  0.450103461
     0.625000000  0.250000000  0.450103461
     0.500000000  0.250000000  0.350310383
     0.625000000  0.125000000  0.350310383
     0.499992738  0.123620291  0.651209578
     0.626426889  0.248345296  0.651029823
     0.499984818  0.249616504  0.550563338
     0.625195410  0.124607800  0.549759381
     0.750000000  0.375000000  0.450103461
     0.875000000  0.000000000  0.450103461
     0.750000000  0.000000000  0.350310383
     0.875000000  0.375000000  0.350310383
     0.751382443  0.374992210  0.651207669
     0.875194164  0.999818358  0.651193176
     0.750114491  0.999862273  0.549879091
     0.875233790  0.374997837  0.549839951
     0.750000000  0.125000000  0.450103461
     0.875000000  0.250000000  0.450103461
     0.750000000  0.250000000  0.350310383
     0.875000000  0.125000000  0.350310383
     0.750561204  0.124466991  0.651125789
     0.875228034  0.249753069  0.651270015
     0.750365114  0.249822523  0.549746327
     0.875126130  0.124896586  0.549869158
     0.500000000  0.875000000  0.450103461
     0.625000000  0.500000000  0.450103461
     0.500000000  0.500000000  0.350310383
     0.625000000  0.875000000  0.350310383
     0.499997341  0.875001395  0.651254529
     0.626661456  0.501424735  0.651012978
     0.500019502  0.500373551  0.550560562
     0.625073219  0.875000925  0.549929247
     0.500000000  0.625000000  0.450103461
     0.625000000  0.750000000  0.450103461
     0.500000000  0.750000000  0.350310383
     0.625000000  0.625000000  0.350310383
     0.500007628  0.626376501  0.651209685
     0.625248295  0.750225749  0.651280415
     0.500003135  0.750234538  0.549842962
     0.625176381  0.625371235  0.549744222
     0.750000000  0.875000000  0.450103461
     0.875000000  0.500000000  0.450103461
     0.750000000  0.500000000  0.350310383
     0.875000000  0.875000000  0.350310383
     0.750187454  0.875002140  0.651210792
     0.875246612  0.500251542  0.651283151
     0.750395866  0.500193690  0.549745043
     0.875063310  0.874999976  0.549900517
     0.750000000  0.625000000  0.450103461
     0.875000000  0.750000000  0.450103461
     0.750000000  0.750000000  0.350310383
     0.875000000  0.625000000  0.350310383
     0.750538601  0.625562661  0.651113088
     0.875187639  0.750187762  0.651184689
     0.750104343  0.750124833  0.549867826
     0.875141788  0.625110525  0.549875119

  ion indices of the primitive-cell ions
   primitive index   ion index
                 1           1
                 2           2
                 3           3
                 4           4
                 5           5
                 6           6
                 7           7
                 8           8
                 9           9
                10          10
                11          11
                12          12
                13          13
                14          14
                15          15
                16          16
                17          17
                18          18
                19          19
                20          20
                21          21
                22          22
                23          23
                24          24
                25          25
                26          26
                27          27
                28          28
                29          29
                30          30
                31          31
                32          32
                33          33
                34          34
                35          35
                36          36
                37          37
                38          38
                39          39
                40          40
                41          41
                42          42
                43          43
                44          44
                45          45
                46          46
                47          47
                48          48
                49          49
                50          50
                51          51
                52          52
                53          53
                54          54
                55          55
                56          56
                57          57
                58          58
                59          59
                60          60
                61          61
                62          62
                63          63
                64          64
                65          65
                66          66
                67          67
                68          68
                69          69
                70          70
                71          71
                72          72
                73          73
                74          74
                75          75
                76          76
                77          77
                78          78
                79          79
                80          80
                81          81
                82          82
                83          83
                84          84
                85          85
                86          86
                87          87
                88          88
                89          89
                90          90
                91          91
                92          92
                93          93
                94          94
                95          95
                96          96
                97          97
                98          98
                99          99
               100         100
               101         101
               102         102
               103         103
               104         104
               105         105
               106         106
               107         107
               108         108
               109         109
               110         110
               111         111
               112         112
               113         113
               114         114
               115         115
               116         116
               117         117
               118         118
               119         119
               120         120
               121         121
               122         122
               123         123
               124         124
               125         125
               126         126
               127         127
               128         128
               129         129
               130         130
               131         131
               132         132
               133         133
               134         134
               135         135
               136         136
               137         137
               138         138
               139         139
               140         140
               141         141
               142         142
               143         143
               144         144
               145         145
               146         146
               147         147
               148         148
               149         149
               150         150
               151         151
               152         152
               153         153
               154         154
               155         155
               156         156
               157         157
               158         158
               159         159
               160         160
               161         161
               162         162
               163         163
               164         164
               165         165
               166         166
               167         167
               168         168
               169         169
               170         170
               171         171
               172         172
               173         173
               174         174
               175         175
               176         176
               177         177
               178         178
               179         179
               180         180
               181         181
               182         182
               183         183
               184         184
               185         185
               186         186
               187         187
               188         188
               189         189
               190         190
               191         191
               192         192
               193         193
               194         194
               195         195
               196         196
               197         197
               198         198
               199         199
               200         200
               201         201
               202         202
               203         203
               204         204
               205         205
               206         206
               207         207
               208         208
               209         209
               210         210
               211         211
               212         212
               213         213
               214         214
               215         215
               216         216
               217         217
               218         218
               219         219
               220         220
               221         221
               222         222
               223         223
               224         224
               225         225
               226         226
               227         227
               228         228
               229         229
               230         230
               231         231
               232         232
               233         233
               234         234
               235         235
               236         236
               237         237
               238         238
               239         239
               240         240
               241         241
               242         242
               243         243
               244         244
               245         245
               246         246
               247         247
               248         248
               249         249
               250         250
               251         251
               252         252
               253         253
               254         254
               255         255
               256         256

----------------------------------------------------------------------------------------



 KPOINTS: pymatgen v2020.8.13 with grid density = 

Automatic generation of k-mesh.
 Grid dimensions read from file:
 generate k-points for:    1    1    1

 Generating k-lattice:

  Cartesian coordinates                     Fractional coordinates (reciprocal lattice)
     0.058506126  0.000000000  0.000000000     1.000000000  0.000000000  0.000000000
     0.000000000  0.058506126  0.000000000     0.000000000  1.000000000  0.000000000
     0.000000000  0.000000000  0.046708051     0.000000000  0.000000000  1.000000000

  Length of vectors
     0.058506126  0.058506126  0.046708051

  Shift w.r.t. Gamma in fractional coordinates (k-lattice)
     0.000000000  0.000000000  0.000000000

 
 Subroutine IBZKPT returns following result:
 ===========================================
 
 Found      1 irreducible k-points:
 
 Following reciprocal coordinates:
            Coordinates               Weight
  0.000000  0.000000  0.000000      1.000000
 
 Following cartesian coordinates:
            Coordinates               Weight
  0.000000  0.000000  0.000000      1.000000
 


--------------------------------------------------------------------------------------------------------




 Dimension of arrays:
   k-points           NKPTS =      1   k-points in BZ     NKDIM =      1   number of bands    NBANDS=   1088
   number of dos      NEDOS =    301   number of ions     NIONS =    256
   non local maximal  LDIM  =      5   non local SUM 2l+1 LMDIM =     13
   total plane-waves  NPLWV = ******
   max r-space proj   IRMAX =   3771   max aug-charges    IRDMAX=   8459
   dimension x,y,z NGX =   128 NGY =  128 NGZ =  160
   dimension x,y,z NGXF=   256 NGYF=  256 NGZF=  320
   support grid    NGXF=   256 NGYF=  256 NGZF=  320
   ions per type =             128 128
   NGX,Y,Z   is equivalent  to a cutoff of  12.45, 12.45, 12.42 a.u.
   NGXF,Y,Z  is equivalent  to a cutoff of  24.90, 24.90, 24.85 a.u.

 SYSTEM =  MgO-rocksalt                            
 POSCAR =  Mg  O                                   

--------------------------------------------------------------------------------------------------------


  energy-cutoff  :      520.00
  volume of cell :     6254.69
      direct lattice vectors                 reciprocal lattice vectors
    17.092227251  0.000000000  0.000000000     0.058506126  0.000000000  0.000000000
     0.000000000 17.092227251  0.000000000     0.000000000  0.058506126  0.000000000
     0.000000000  0.000000000 21.409585219     0.000000000  0.000000000  0.046708051

  length of vectors
    17.092227251 17.092227251 21.409585219     0.058506126  0.058506126  0.046708051



 k-points in units of 2pi/SCALE and weight: pymatgen v2020.8.13 with grid density = 
   0.00000000  0.00000000  0.00000000       1.000

 k-points in reciprocal lattice and weights: pymatgen v2020.8.13 with grid density = 
   0.00000000  0.00000000  0.00000000       1.000

 position of ions in fractional coordinates (direct lattice) 
   0.00000000  0.37500000  0.35031038
   0.12500000  0.00000000  0.35031038
   0.00000000  0.00000000  0.45010346
   0.12500000  0.37500000  0.45010346
   0.00000120  0.37500069  0.55004597
   0.12497138  0.99996717  0.55007644
   0.00000390  0.99989457  0.64900853
   0.12495087  0.37499788  0.64868794
   0.00000000  0.12500000  0.35031038
   0.12500000  0.25000000  0.35031038
   0.00000000  0.25000000  0.45010346
   0.12500000  0.12500000  0.45010346
   0.99999812  0.12495646  0.55007431
   0.12497287  0.25003076  0.54998425
   0.99999451  0.24988959  0.64894809
   0.12488386  0.12480548  0.64891654
   0.25000000  0.37500000  0.35031038
   0.37500000  0.00000000  0.35031038
   0.25000000  0.00000000  0.45010346
   0.37500000  0.37500000  0.45010346
   0.25054152  0.37496457  0.55038847
   0.37502584  0.99995829  0.54996582
   0.24980054  0.99988131  0.64891542
   0.37426815  0.37485561  0.65308047
   0.25000000  0.12500000  0.35031038
   0.37500000  0.25000000  0.35031038
   0.25000000  0.25000000  0.45010346
   0.37500000  0.12500000  0.45010346
   0.24998156  0.12500637  0.54990245
   0.37562841  0.25066173  0.55088870
   0.24977389  0.24965157  0.64819575
   0.37462680  0.12475805  0.64802093
   0.00000000  0.87500000  0.35031038
   0.12500000  0.50000000  0.35031038
   0.00000000  0.50000000  0.45010346
   0.12500000  0.87500000  0.45010346
   0.00000402  0.87500203  0.55008168
   0.12496362  0.49996696  0.54997643
   0.00001567  0.50011530  0.64896581
   0.12489825  0.87499886  0.64900439
   0.00000000  0.62500000  0.35031038
   0.12500000  0.75000000  0.35031038
   0.00000000  0.75000000  0.45010346
   0.12500000  0.62500000  0.45010346
   0.00000760  0.62504173  0.55007735
   0.12497045  0.75002963  0.55007961
   0.00000973  0.75010443  0.64901062
   0.12488487  0.62519027  0.64892732
   0.25000000  0.87500000  0.35031038
   0.37500000  0.50000000  0.35031038
   0.25000000  0.50000000  0.45010346
   0.37500000  0.87500000  0.45010346
   0.24995690  0.87500669  0.55007070
   0.37566594  0.49937315  0.55088819
   0.24977235  0.50035514  0.64802953
   0.37488492  0.87500984  0.64895451
   0.25000000  0.62500000  0.35031038
   0.37500000  0.75000000  0.35031038
   0.25000000  0.75000000  0.45010346
   0.37500000  0.62500000  0.45010346
   0.25000823  0.62501528  0.54990358
   0.37503126  0.75003052  0.54998747
   0.24980880  0.75011777  0.64891725
   0.37465483  0.62523184  0.64819440
   0.50000000  0.37500000  0.35031038
   0.62500000  0.00000000  0.35031038
   0.50000000  0.00000000  0.45010346
   0.62500000  0.37500000  0.45010346
   0.49999711  0.37499208  0.55212177
   0.62496831  0.99997223  0.54998943
   0.49999093  0.99995192  0.64868252
   0.62575047  0.37514294  0.65306079
   0.50000000  0.12500000  0.35031038
   0.62500000  0.25000000  0.35031038
   0.50000000  0.25000000  0.45010346
   0.62500000  0.12500000  0.45010346
   0.50002686  0.12553445  0.55038731
   0.62433698  0.25061872  0.55089023
   0.50013711  0.24922347  0.65307284
   0.62533893  0.12476140  0.64819849
   0.75000000  0.37500000  0.35031038
   0.87500000  0.00000000  0.35031038
   0.75000000  0.00000000  0.45010346
   0.87500000  0.37500000  0.45010346
   0.74946410  0.37503058  0.55038119
   0.87503558  0.99997610  0.55008113
   0.75019905  0.99988409  0.64891865
   0.87505444  0.37499579  0.64867597
   0.75000000  0.12500000  0.35031038
   0.87500000  0.25000000  0.35031038
   0.75000000  0.25000000  0.45010346
   0.87500000  0.12500000  0.45010346
   0.74999177  0.12498381  0.54990828
   0.87504017  0.25003140  0.54996984
   0.75024049  0.24963504  0.64802233
   0.87512834  0.12480741  0.64892078
   0.50000000  0.87500000  0.35031038
   0.62500000  0.50000000  0.35031038
   0.50000000  0.50000000  0.45010346
   0.62500000  0.87500000  0.45010346
   0.49999905  0.87500172  0.55004335
   0.62437759  0.49933572  0.55088654
   0.49986654  0.50076258  0.65306387
   0.62511784  0.87499414  0.64895987
   0.50000000  0.62500000  0.35031038
   0.62500000  0.75000000  0.35031038
   0.50000000  0.75000000  0.45010346
   0.62500000  0.62500000  0.45010346
   0.49996602  0.62446331  0.55038780
   0.62496941  0.75004562  0.54997316
   0.50000665  0.75005471  0.64868511
   0.62536709  0.62523779  0.64801553
   0.75000000  0.87500000  0.35031038
   0.87500000  0.50000000  0.35031038
   0.75000000  0.50000000  0.45010346
   0.87500000  0.87500000  0.45010346
   0.75004682  0.87500092  0.55007343
   0.87503166  0.49997083  0.54998745
   0.75024165  0.50034943  0.64818258
   0.87511007  0.87500013  0.64900726
   0.75000000  0.62500000  0.35031038
   0.87500000  0.75000000  0.35031038
   0.75000000  0.75000000  0.45010346
   0.87500000  0.62500000  0.45010346
   0.75001904  0.62499319  0.54990089
   0.87503554  0.75003376  0.55007808
   0.75019832  0.75012371  0.64891489
   0.87512059  0.62519804  0.64891426
   0.00000000  0.37500000  0.45010346
   0.12500000  0.00000000  0.45010346
   0.00000000  0.00000000  0.35031038
   0.12500000  0.37500000  0.35031038
   0.00000073  0.37499184  0.65125404
   0.12481420  0.99981242  0.65118736
   0.00000323  0.99994414  0.54990347
   0.12477032  0.37500873  0.54984644
   0.00000000  0.12500000  0.45010346
   0.12500000  0.25000000  0.45010346
   0.00000000  0.25000000  0.35031038
   0.12500000  0.12500000  0.35031038
   0.00000104  0.12482240  0.65120373
   0.12476275  0.24975011  0.65129478
   0.00000065  0.24993306  0.54992414
   0.12486574  0.12488712  0.54987022
   0.25000000  0.37500000  0.45010346
   0.37500000  0.00000000  0.45010346
   0.25000000  0.00000000  0.35031038
   0.37500000  0.37500000  0.35031038
   0.24863672  0.37499968  0.65122449
   0.37474542  0.99977717  0.65126889
   0.24989173  0.99987626  0.54986712
   0.37462706  0.37501391  0.55056266
   0.25000000  0.12500000  0.45010346
   0.37500000  0.25000000  0.45010346
   0.25000000  0.25000000  0.35031038
   0.37500000  0.12500000  0.35031038
   0.24946520  0.12443568  0.65112144
   0.37335489  0.24856759  0.65102205
   0.24961316  0.24980419  0.54975350
   0.37481940  0.12463538  0.54974522
   0.00000000  0.87500000  0.45010346
   0.12500000  0.50000000  0.45010346
   0.00000000  0.50000000  0.35031038
   0.12500000  0.87500000  0.35031038
   0.00000501  0.87499722  0.65116478
   0.12477911  0.50024446  0.65129303
   0.00000979  0.50006788  0.54993006
   0.12494347  0.87499824  0.54990290
   0.00000000  0.62500000  0.45010346
   0.12500000  0.75000000  0.45010346
   0.00000000  0.75000000  0.35031038
   0.12500000  0.62500000  0.35031038
   0.00000332  0.62517868  0.65121344
   0.12481863  0.75018277  0.65119637
   0.00000772  0.75005792  0.54990421
   0.12488001  0.62510293  0.54987463
   0.25000000  0.87500000  0.45010346
   0.37500000  0.50000000  0.45010346
   0.25000000  0.50000000  0.35031038
   0.37500000  0.87500000  0.35031038
   0.24981735  0.87500296  0.65120256
   0.37357807  0.50164977  0.65102124
   0.24963778  0.50017198  0.54975110
   0.37492995  0.87500358  0.54992494
   0.25000000  0.62500000  0.45010346
   0.37500000  0.75000000  0.45010346
   0.25000000  0.75000000  0.35031038
   0.37500000  0.62500000  0.35031038
   0.24944293  0.62552511  0.65112137
   0.37474432  0.75024111  0.65128762
   0.24988474  0.75013447  0.54987416
   0.37481050  0.62538815  0.54975458
   0.50000000  0.37500000  0.45010346
   0.62500000  0.00000000  0.45010346
   0.50000000  0.00000000  0.35031038
   0.62500000  0.37500000  0.35031038
   0.50000762  0.37498888  0.65124277
   0.62524711  0.99975749  0.65129316
   0.49999383  0.99976542  0.54984201
   0.62537695  0.37498612  0.55056438
   0.50000000  0.12500000  0.45010346
   0.62500000  0.25000000  0.45010346
   0.50000000  0.25000000  0.35031038
   0.62500000  0.12500000  0.35031038
   0.49999274  0.12362029  0.65120958
   0.62642689  0.24834530  0.65102982
   0.49998482  0.24961650  0.55056334
   0.62519541  0.12460780  0.54975938
   0.75000000  0.37500000  0.45010346
   0.87500000  0.00000000  0.45010346
   0.75000000  0.00000000  0.35031038
   0.87500000  0.37500000  0.35031038
   0.75138244  0.37499221  0.65120767
   0.87519416  0.99981836  0.65119318
   0.75011449  0.99986227  0.54987909
   0.87523379  0.37499784  0.54983995
   0.75000000  0.12500000  0.45010346
   0.87500000  0.25000000  0.45010346
   0.75000000  0.25000000  0.35031038
   0.87500000  0.12500000  0.35031038
   0.75056120  0.12446699  0.65112579
   0.87522803  0.24975307  0.65127002
   0.75036511  0.24982252  0.54974633
   0.87512613  0.12489659  0.54986916
   0.50000000  0.87500000  0.45010346
   0.62500000  0.50000000  0.45010346
   0.50000000  0.50000000  0.35031038
   0.62500000  0.87500000  0.35031038
   0.49999734  0.87500139  0.65125453
   0.62666146  0.50142473  0.65101298
   0.50001950  0.50037355  0.55056056
   0.62507322  0.87500092  0.54992925
   0.50000000  0.62500000  0.45010346
   0.62500000  0.75000000  0.45010346
   0.50000000  0.75000000  0.35031038
   0.62500000  0.62500000  0.35031038
   0.50000763  0.62637650  0.65120968
   0.62524830  0.75022575  0.65128041
   0.50000313  0.75023454  0.54984296
   0.62517638  0.62537124  0.54974422
   0.75000000  0.87500000  0.45010346
   0.87500000  0.50000000  0.45010346
   0.75000000  0.50000000  0.35031038
   0.87500000  0.87500000  0.35031038
   0.75018745  0.87500214  0.65121079
   0.87524661  0.50025154  0.65128315
   0.75039587  0.50019369  0.54974504
   0.87506331  0.87499998  0.54990052
   0.75000000  0.62500000  0.45010346
   0.87500000  0.75000000  0.45010346
   0.75000000  0.75000000  0.35031038
   0.87500000  0.62500000  0.35031038
   0.75053860  0.62556266  0.65111309
   0.87518764  0.75018776  0.65118469
   0.75010434  0.75012483  0.54986783
   0.87514179  0.62511052  0.54987512

 position of ions in cartesian coordinates  (Angst):
   0.00000000  6.40958522  7.50000000
   2.13652841  0.00000000  7.50000000
   0.00000000  0.00000000  9.63652841
   2.13652841  6.40958522  9.63652841
   0.00002044  6.40959700 11.77625616
   2.13603927 17.09166615 11.77690844
   0.00006668 17.09042530 13.89500334
   2.13568869  6.40954896 13.88813963
   0.00000000  2.13652841  7.50000000
   2.13652841  4.27305681  7.50000000
   0.00000000  4.27305681  9.63652841
   2.13652841  2.13652841  9.63652841
  17.09219510  2.13578421 11.77686272
   2.13606470  4.27358258 11.77493473
  17.09213335  4.27116966 13.89370946
   2.13454339  2.13320367 13.89303390
   4.27305681  6.40958522  7.50000000
   6.40958522  0.00000000  7.50000000
   4.27305681  0.00000000  9.63652841
   6.40958522  6.40958522  9.63652841
   4.28231257  6.40897969 11.78358885
   6.41002685 17.09151439 11.77454020
   4.26964761 17.09019853 13.89300994
   6.39707621  6.40711722 13.98218201
   4.27305681  2.13652841  7.50000000
   6.40958522  4.27305681  7.50000000
   4.27305681  4.27305681  9.63652841
   6.40958522  2.13652841  9.63652841
   4.27274159  2.13663735 11.77318335
   6.42032617  4.28436718 11.79429857
   4.26919214  4.26710140 13.87760205
   6.40320648  2.13239292 13.87385943
   0.00000000 14.95569884  7.50000000
   2.13652841  8.54611363  7.50000000
   0.00000000  8.54611363  9.63652841
   2.13652841 14.95569884  9.63652841
   0.00006877 14.95573348 11.77702055
   2.13590661  8.54554883 11.77476716
   0.00026784  8.54808429 13.89408890
   2.13478931 14.95567936 13.89491471
   0.00000000 10.68264203  7.50000000
   2.13652841 12.81917044  7.50000000
   0.00000000 12.81917044  9.63652841
   2.13652841 10.68264203  9.63652841
   0.00012990 10.68335521 11.77692786
   2.13602329 12.81967681 11.77697620
   0.00016627 12.82095544 13.89504811
   2.13456055 10.68589411 13.89326470
   4.27305681 14.95569884  7.50000000
   6.40958522  8.54611363  7.50000000
   4.27305681  8.54611363  9.63652841
   6.40958522 14.95569884  9.63652841
   4.27232012 14.95581322 11.77678547
   6.42096767  8.53539943 11.79428757
   4.26916568  8.55218382 13.87404341
   6.40761833 14.95586695 13.89384681
   4.27305681 10.68264203  7.50000000
   6.40958522 12.81917044  7.50000000
   4.27305681 12.81917044  9.63652841
   6.40958522 10.68264203  9.63652841
   4.27319755 10.68290317 11.77320756
   6.41011948 12.81969201 11.77500364
   4.26978881 12.82118343 13.89304910
   6.40368544 10.68660463 13.87757319
   8.54611363  6.40958522  7.50000000
  10.68264203  0.00000000  7.50000000
   8.54611363  0.00000000  9.63652841
  10.68264203  6.40958522  9.63652841
   8.54606418  6.40944977 11.82069809
  10.68210037 17.09175262 11.77504562
   8.54595855 17.09140548 13.88802370
  10.69546928  6.41202842 13.98176066
   8.54611363  2.13652841  7.50000000
  10.68264203  4.27305681  7.50000000
   8.54611363  4.27305681  9.63652841
  10.68264203  2.13652841  9.63652841
   8.54657276  2.14566340 11.78356392
  10.67130948  4.28363213 11.79433134
   8.54845713  4.25978416 13.98201863
  10.68843518  2.13245026 13.87766070
  12.81917044  6.40958522  7.50000000
  14.95569884  0.00000000  7.50000000
  12.81917044  0.00000000  9.63652841
  14.95569884  6.40958522  9.63652841
  12.81001063  6.41010792 11.78343307
  14.95630700 17.09181882 11.77700891
  12.82257264 17.09024610 13.89307914
  14.95662932  6.40951334 13.88788336
  12.81917044  2.13652841  7.50000000
  14.95569884  4.27305681  7.50000000
  12.81917044  4.27305681  9.63652841
  14.95569884  2.13652841  9.63652841
  12.81902973  2.13625176 11.77330822
  14.95638544  4.27359346 11.77462621
  12.82328089  4.26681888 13.87388929
  14.95789255  2.13323654 13.89312480
   8.54611363 14.95569884  7.50000000
  10.68264203  8.54611363  7.50000000
   8.54611363  8.54611363  9.63652841
  10.68264203 14.95569884  9.63652841
   8.54609743 14.95572822 11.77619999
  10.67200369  8.53475959 11.79425223
   8.54383243  8.55914789 13.98182657
  10.68465613 14.95559867 13.89396170
   8.54611363 10.68264203  7.50000000
  10.68264203 12.81917044  7.50000000
   8.54611363 12.81917044  9.63652841
  10.68264203 10.68264203  9.63652841
   8.54553276 10.67346883 11.78357461
  10.68211913 12.81995021 11.77469722
   8.54622729 12.82010561 13.88807911
  10.68891642 10.68670641 13.87374375
  12.81917044 14.95569884  7.50000000
  14.95569884  8.54611363  7.50000000
  12.81917044  8.54611363  9.63652841
  14.95569884 14.95569884  9.63652841
  12.81997066 14.95571459 11.77684405
  14.95623995  8.54561503 11.77500320
  12.82330079  8.55208615 13.87732013
  14.95758026 14.95570110 13.89497620
  12.81917044 10.68264203  7.50000000
  14.95569884 12.81917044  7.50000000
  12.81917044 12.81917044  9.63652841
  14.95569884 10.68264203  9.63652841
  12.81949582 10.68252564 11.77315007
  14.95630625 12.81974740 11.77694354
  12.82256019 12.82128498 13.89299854
  14.95775999 10.68602703 13.89298515
   0.00000000  6.40958522  9.63652841
   2.13652841  0.00000000  9.63652841
   0.00000000  0.00000000  7.50000000
   2.13652841  6.40958522  7.50000000
   0.00001255  6.40944566 13.94307887
   2.13335260 17.08902106 13.94165119
   0.00005514 17.09127254 11.77320531
   2.13260267  6.40973450 11.77198416
   0.00000000  2.13652841  9.63652841
   2.13652841  4.27305681  9.63652841
   0.00000000  4.27305681  7.50000000
   2.13652841  2.13652841  7.50000000
   0.00001770  2.13349291 13.94200167
   2.13247336  4.26878560 13.94395112
   0.00001107  4.27191258 11.77364782
   2.13423355  2.13459896 11.77249328
   4.27305681  6.40958522  9.63652841
   6.40958522  0.00000000  9.63652841
   4.27305681  0.00000000  7.50000000
   6.40958522  6.40958522  7.50000000
   4.24975528  6.40957972 13.94244631
   6.40523381 17.08841860 13.94339685
   4.27120624 17.09011217 11.77242703
   6.40321086  6.40982299 11.78731823
   4.27305681  2.13652841  9.63652841
   6.40958522  4.27305681  9.63652841
   4.27305681  4.27305681  7.50000000
   6.40958522  2.13652841  7.50000000
   4.26391591  2.12688284 13.94023993
   6.38146665  4.24857375 13.93811211
   4.26644485  4.26970998 11.76999436
   6.40649829  2.13029617 11.76981719
   0.00000000 14.95569884  9.63652841
   2.13652841  8.54611363  9.63652841
   0.00000000  8.54611363  7.50000000
   2.13652841 14.95569884  7.50000000
   0.00008562 14.95565125 13.94116782
   2.13275297  8.55029195 13.94391362
   0.00016739  8.54727381 11.77377447
   2.13556218 14.95566868 11.77319296
   0.00000000 10.68264203  9.63652841
   2.13652841 12.81917044  9.63652841
   0.00000000 12.81917044  7.50000000
   2.13652841 10.68264203  7.50000000
   0.00005670 10.68569615 13.94220958
   2.13342838 12.82229438 13.94184420
   0.00013191 12.82016045 11.77322095
   2.13447750 10.68440141 11.77258779
   4.27305681 14.95569884  9.63652841
   6.40958522  8.54611363  9.63652841
   4.27305681  8.54611363  7.50000000
   6.40958522 14.95569884  7.50000000
   4.26993500 14.95574945 13.94197663
   6.38528126  8.57431195 13.93809482
   4.26686562  8.54905318 11.76994301
   6.40838791 14.95575997 11.77366491
   4.27305681 10.68264203  9.63652841
   6.40958522 12.81917044  9.63652841
   4.27305681 12.81917044  7.50000000
   6.40958522 10.68264203  7.50000000
   4.26353530 10.69161735 13.94023856
   6.40521515 12.82329160 13.94379770
   4.27108674 12.82146880 11.77257758
   6.40634617 10.68927634 11.77001755
   8.54611363  6.40958522  9.63652841
  10.68264203  0.00000000  9.63652841
   8.54611363  0.00000000  7.50000000
  10.68264203  6.40958522  7.50000000
   8.54624383  6.40939509 13.94283764
  10.68686575 17.08808215 13.94391634
   8.54600818 17.08821769 11.77188935
  10.68908493  6.40934802 11.78735496
   8.54611363  2.13652841  9.63652841
  10.68264203  4.27305681  9.63652841
   8.54611363  4.27305681  7.50000000
  10.68264203  2.13652841  7.50000000
   8.54598951  2.11294611 13.94212695
  10.70703074  4.24477424 13.93827847
   8.54585413  4.26650201 11.78733270
  10.68598202  2.12982484 11.77012032
  12.81917044  6.40958522  9.63652841
  14.95569884  0.00000000  9.63652841
  12.81917044  0.00000000  7.50000000
  14.95569884  6.40958522  7.50000000
  12.84279947  6.40945207 13.94208609
  14.95901755 17.08912258 13.94177579
  12.82112734 17.08987319 11.77268325
  14.95969484  6.40954824 11.77184528
  12.81917044  2.13652841  9.63652841
  14.95569884  4.27305681  9.63652841
  12.81917044  4.27305681  7.50000000
  14.95569884  2.13652841  7.50000000
  12.82876266  2.12741810 13.94033306
  14.95959645  4.26883622 13.94342090
  12.82541104  4.27002334 11.76984083
  14.95785468  2.13476083 11.77247059
   8.54611363 14.95569884  9.63652841
  10.68264203  8.54611363  9.63652841
   8.54611363  8.54611363  7.50000000
  10.68264203 14.95569884  7.50000000
   8.54606818 14.95572269 13.94308934
  10.71104001  8.57046552 13.93791782
   8.54644695  8.55249845 11.78727327
  10.68389350 14.95571465 11.77375707
   8.54611363 10.68264203  9.63652841
  10.68264203 12.81917044  9.63652841
   8.54611363 12.81917044  7.50000000
  10.68264203 10.68264203  7.50000000
   8.54624400 10.70616950 13.94212924
  10.68688595 12.82302899 13.94364354
   8.54616721 12.82317922 11.77190975
  10.68565677 10.68898727 11.76979577
  12.81917044 14.95569884  9.63652841
  14.95569884  8.54611363  9.63652841
  12.81917044  8.54611363  7.50000000
  14.95569884 14.95569884  7.50000000
  12.82237445 14.95573543 13.94215296
  14.95991400  8.55041305 13.94370213
  12.82593667  8.54942423 11.76981334
  14.95678096 14.95569844 11.77314198
  12.81917044 10.68264203  9.63652841
  14.95569884 12.81917044  9.63652841
  12.81917044 12.81917044  7.50000000
  14.95569884 10.68264203  7.50000000
  12.82837632 10.69225917 13.94006115
  14.95890601 12.82237970 13.94159409
  12.82095389 12.82130411 11.77244208
  14.95812233 10.68453114 11.77259822



--------------------------------------------------------------------------------------------------------


--------------------------------------- Iteration      FINAL  ---------------------------------------


--------------------OUTCAR has been truncated-------------------------


--------------------OUTCAR has been truncated-------------------------


--------------------OUTCAR has been truncated-------------------------


--------------------OUTCAR has been truncated-------------------------


--------------------OUTCAR has been truncated-------------------------


--------------------OUTCAR has been truncated-------------------------


--------------------OUTCAR has been truncated-------------------------


--------------------OUTCAR has been truncated-------------------------


--------------------OUTCAR has been truncated-------------------------


--------------------OUTCAR has been truncated-------------------------



  FORCE on cell =-STRESS in cart. coord.  units (eV):
  Direction    XX          YY          ZZ          XY          YZ          ZX
  --------------------------------------------------------------------------------------
  Alpha Z  3402.85350  3402.85350  3402.85350
  Ewald  625978.35886625978.34319************    -0.00162    -0.01385     0.08156
  Hartree666561.91885666561.90793************    -0.00183    -0.00378     0.05104
  E(xc)   -9844.69550 -9844.69552 -9876.57274     0.00000    -0.00006     0.00028
  Local  ************************************     0.00345     0.01698    -0.13403
  n-local-11179.16025-11179.16024-11257.93311    -0.00074    -0.00112     0.00199
  augment  4185.84148  4185.84141  4149.83842    -0.00002     0.00003     0.00076
  Kinetic 29146.67610 29146.67684 29321.83450     0.00001     0.00624    -0.01430
  Fock        0.00000     0.00000     0.00000     0.00000     0.00000     0.00000
  vdW       -81.46039   -81.46039   -61.60031     0.00000     0.00001    -0.00007
  -------------------------------------------------------------------------------------
  Total    -172.01791  -172.01769   -46.20648    -0.00074     0.00444    -0.01278
  in kB     -44.06347   -44.06341   -11.83608    -0.00019     0.00114    -0.00327
  external pressure =      -33.32 kB  Pullay stress =        0.00 kB


 VOLUME and BASIS-vectors are now :
 -----------------------------------------------------------------------------
  energy-cutoff  :      520.00
  volume of cell :     6254.69
      direct lattice vectors                 reciprocal lattice vectors
    17.092227251  0.000000000  0.000000000     0.058506126  0.000000000  0.000000000
     0.000000000 17.092227251  0.000000000     0.000000000  0.058506126  0.000000000
     0.000000000  0.000000000 21.409585219     0.000000000  0.000000000  0.046708051

  length of vectors
    17.092227251 17.092227251 21.409585219     0.058506126  0.058506126  0.046708051


 FORCES acting on ions:
    Electron-Ion                     Ewald-Force                    Non-Local-Force
 -----------------------------------------------------------------------------------------------
   -.315E-02 -.607E-02 0.201E+04   0.317E-02 0.626E-02 -.200E+04   -.146E-04 -.146E-03 -.709E+01
[...]
      0.00013     10.68336     11.77693        -0.000195      0.010166      0.017715
      2.13602     12.81968     11.77698        -0.009759      0.009666      0.015469
      0.00017     12.82096     13.89505        -0.000709      0.002679     -0.107710
      2.13456     10.68589     13.89326        -0.016733      0.005250     -0.094982
      4.27306     14.95570      7.50000        -0.003106     -0.000063      0.502790
      6.40959      8.54611      7.50000         0.001704     -0.001606      0.500516
      4.27306      8.54611      9.63653         0.014176     -0.003243      0.036083
      6.40959     14.95570      9.63653        -0.006139     -0.000843      0.037838
      4.27232     14.95581     11.77679        -0.010439     -0.001153      0.018296
      6.42097      8.53540     11.79429        -0.054255      0.051553     -0.148242
      4.26917      8.55218     13.87404        -0.173827      0.069482      0.003103
      6.40762     14.95587     13.89385        -0.000381     -0.000130     -0.090444
      4.27306     10.68264      7.50000        -0.001842      0.001865      0.498479
      6.40959     12.81917      7.50000        -0.001783      0.001153      0.499715
      4.27306     12.81917      9.63653        -0.008799      0.010477      0.038780
      6.40959     10.68264      9.63653         0.002506     -0.013190      0.035433
      4.27320     10.68290     11.77321        -0.046426      0.046219      0.006017
      6.41012     12.81969     11.77500        -0.020554      0.043665      0.016715
      4.26979     12.82118     13.89305        -0.006816      0.017180     -0.094985
      6.40369     10.68660     13.87757        -0.073251      0.183106     -0.022938
      8.54611      6.40959      7.50000         0.000000      0.000018      0.507212
     10.68264      0.00000      7.50000         0.001833     -0.001215      0.499699
      8.54611      0.00000      9.63653         0.000573      0.005785      0.040389
     10.68264      6.40959      9.63653        -0.032842     -0.000720      0.051095
      8.54606      6.40945     11.82070         0.000654      0.000626     -0.277768
     10.68210     17.09175     11.77505         0.020566     -0.044200      0.016786
      8.54596     17.09141     13.88802        -0.000536     -0.098383     -0.048534
     10.69547      6.41203     13.98176         0.149268     -0.016836     -0.714801
      8.54611      2.13653      7.50000         0.000094      0.001367      0.498704
     10.68264      4.27306      7.50000        -0.001696      0.001626      0.500498
      8.54611      4.27306      9.63653        -0.000640      0.032600      0.050888
     10.68264      2.13653      9.63653        -0.002287      0.013091      0.035562
      8.54657      2.14566     11.78356        -0.001570     -0.079378     -0.072219
     10.67131      4.28363     11.79433         0.054051     -0.051160     -0.148039
      8.54846      4.25978     13.98202        -0.014667     -0.146202     -0.715819
     10.68844      2.13245     13.87766         0.074507     -0.182519     -0.022786
     12.81917      6.40959      7.50000        -0.001294      0.000101      0.498695
     14.95570      0.00000      7.50000         0.002214     -0.002220      0.503247
     12.81917      0.00000      9.63653         0.008815     -0.010484      0.038892
     14.95570      6.40959      9.63653        -0.005556      0.000633      0.040455
     12.81001      6.41011     11.78343         0.079320     -0.002167     -0.070761
     14.95631     17.09182     11.77701         0.009733     -0.010781      0.015029
     12.82257     17.09025     13.89308         0.006184     -0.017365     -0.094511
     14.95663      6.40951     13.88788         0.097108     -0.000756     -0.047696
     12.81917      2.13653      7.50000         0.001840     -0.001915      0.498523
     14.95570      4.27306      7.50000         0.001244     -0.001750      0.499458
     12.81917      4.27306      9.63653        -0.014281      0.002870      0.035773
     14.95570      2.13653      9.63653         0.010120     -0.009093      0.038619
     12.81903      2.13625     11.77331         0.046679     -0.046672      0.005180
     14.95639      4.27359     11.77463         0.044017     -0.020196      0.017498
     12.82328      4.26682     13.87389         0.172735     -0.068985      0.003840
     14.95789      2.13324     13.89312         0.016280     -0.004945     -0.094643
      8.54611     14.95570      7.50000         0.000044     -0.000034      0.500145
     10.68264      8.54611      7.50000        -0.001610     -0.001682      0.500533
      8.54611      8.54611      9.63653         0.000797     -0.032754      0.051058
     10.68264     14.95570      9.63653         0.006341      0.000626      0.038168
      8.54610     14.95573     11.77620         0.000215     -0.000090      0.024861
     10.67200      8.53476     11.79425         0.051580      0.054092     -0.148897
      8.54383      8.55915     13.98183         0.015533      0.147084     -0.715633
     10.68466     14.95560     13.89396        -0.000208      0.000277     -0.090502
      8.54611     10.68264      7.50000        -0.000052     -0.001359      0.498777
     10.68264     12.81917      7.50000         0.001790      0.001212      0.499511
      8.54611     12.81917      9.63653        -0.000344     -0.005933      0.040543
     10.68264     10.68264      9.63653        -0.003159     -0.014071      0.035892
      8.54553     10.67347     11.78357         0.002561      0.079483     -0.072371
     10.68212     12.81995     11.77470         0.020183      0.043578      0.017009
      8.54623     12.82011     13.88808         0.000355      0.097238     -0.048678
     10.68892     10.68671     13.87374         0.069678      0.173432      0.004094
     12.81917     14.95570      7.50000         0.003086      0.000010      0.502839
     14.95570      8.54611      7.50000         0.001224      0.001802      0.499791
     12.81917      8.54611      9.63653        -0.012906     -0.002293      0.035072
     14.95570     14.95570      9.63653         0.003713      0.000176      0.044926
     12.81997     14.95571     11.77684         0.010331     -0.000014      0.017977
     14.95624      8.54562     11.77500         0.044675      0.020241      0.016474
     12.82330      8.55209     13.87732         0.182800      0.072045     -0.021709
     14.95758     14.95570     13.89498         0.002844      0.000061     -0.107523
     12.81917     10.68264      7.50000         0.001924      0.001811      0.498507
     14.95570     12.81917      7.50000         0.002232      0.002176      0.503233
     12.81917     12.81917      9.63653         0.009043      0.010204      0.038702
     14.95570     10.68264      9.63653         0.010835      0.008604      0.038802
     12.81950     10.68253     11.77315         0.046639      0.046779      0.005269
     14.95631     12.81975     11.77694         0.010020      0.009569      0.015393
     12.82256     12.82128     13.89300         0.005145      0.016702     -0.094293
     14.95776     10.68603     13.89299         0.017723      0.006034     -0.094750
      0.00000      6.40959      9.63653         0.000197     -0.000020      0.025311
      2.13653      0.00000      9.63653         0.002114      0.001897      0.020580
      0.00000      0.00000      7.50000         0.000020      0.002162     -0.356540
      2.13653      6.40959      7.50000         0.001514      0.000024     -0.352549
      0.00001      6.40945     13.94308         0.000162      0.001269     -0.114550
      2.13335     17.08902     13.94165         0.011007      0.011427     -0.091101
      0.00006     17.09127     11.77321        -0.000479      0.006184     -0.048749
      2.13260      6.40973     11.77198         0.059781     -0.002084     -0.024534
      0.00000      2.13653      9.63653        -0.000133      0.004399      0.020929
      2.13653      4.27306      9.63653        -0.000530      0.001599      0.025553
      0.00000      4.27306      7.50000        -0.000077      0.002292     -0.353714
      2.13653      2.13653      7.50000         0.002712      0.003135     -0.354109
      0.00002      2.13349     13.94200         0.000217      0.008061     -0.095728
      2.13247      4.26879     13.94395         0.044654      0.024488     -0.132632
      0.00001      4.27191     11.77365         0.000799      0.011058     -0.053346
      2.13423      2.13460     11.77249         0.020790      0.018202     -0.046763
      4.27306      6.40959      9.63653         0.014579     -0.000564      0.060237
      6.40959      0.00000      9.63653         0.001428     -0.000299      0.025331
      4.27306      0.00000      7.50000         0.003295      0.002677     -0.354029
      6.40959      6.40959      7.50000        -0.003955      0.000027     -0.357745
      4.24976      6.40958     13.94245         0.301426      0.003366     -0.000467
      6.40523     17.08842     13.94340         0.025303      0.040822     -0.133429
      4.27121     17.09011     11.77243         0.017191      0.019789     -0.047404
      6.40321      6.40982     11.78732         0.092963     -0.001121      0.114920
      4.27306      2.13653      9.63653         0.000545      0.000354      0.026845
      6.40959      4.27306      9.63653         0.012520      0.013495      0.089948
      4.27306      4.27306      7.50000        -0.000006     -0.000116     -0.352663
      6.40959      2.13653      7.50000        -0.000027     -0.000148     -0.352501
      4.26392      2.12688     13.94024         0.060875      0.066050     -0.134141
      6.38147      4.24857     13.93811         0.313112      0.276528      0.176387
      4.26644      4.26971     11.76999         0.088551      0.042009      0.015608
      6.40650      2.13030     11.76982         0.039892      0.087366      0.013028
      0.00000     14.95570      9.63653         0.000196      0.000068      0.019838
      2.13653      8.54611      9.63653        -0.000034     -0.001504      0.025546
      0.00000      8.54611      7.50000         0.000117     -0.002343     -0.353795
      2.13653     14.95570      7.50000         0.002217      0.000033     -0.356529
      0.00009     14.95565     13.94117        -0.000263      0.000444     -0.085041
      2.13275      8.55029     13.94391         0.040920     -0.024838     -0.135778
      0.00017      8.54727     11.77377        -0.001227     -0.011186     -0.053509
      2.13556     14.95567     11.77319         0.006472      0.000621     -0.048854
      0.00000     10.68264      9.63653         0.000360     -0.004392      0.021117
      2.13653     12.81917      9.63653         0.002179     -0.002133      0.020643
      0.00000     12.81917      7.50000         0.000006     -0.002120     -0.356552
      2.13653     10.68264      7.50000         0.002754     -0.003207     -0.354112
      0.00006     10.68570     13.94221         0.000356     -0.007930     -0.096339
      2.13343     12.82229     13.94184         0.011166     -0.010478     -0.091459
      0.00013     12.82016     11.77322        -0.000356     -0.006658     -0.048642
      2.13448     10.68440     11.77259         0.019387     -0.016916     -0.047857
      4.27306     14.95570      9.63653         0.004466      0.000276      0.020917
      6.40959      8.54611      9.63653         0.013544     -0.012413      0.090015
      4.27306      8.54611      7.50000        -0.000037      0.000043     -0.352555
      6.40959     14.95570      7.50000         0.002333      0.000157     -0.353658
      4.26993     14.95575     13.94198         0.008812      0.000094     -0.095591
      6.38528      8.57431     13.93809         0.277695     -0.313495      0.176513
      4.26687      8.54905     11.76994         0.087577     -0.039178      0.012327
      6.40839     14.95576     11.77366         0.011293     -0.000877     -0.053381
      4.27306     10.68264      9.63653         0.000529     -0.000637      0.027178
      6.40959     12.81917      9.63653         0.001407      0.000743      0.025605
      4.27306     12.81917      7.50000         0.003183     -0.002642     -0.354108
      6.40959     10.68264      7.50000        -0.000092      0.000038     -0.352672
      4.26354     10.69162     13.94024         0.065773     -0.059792     -0.133733
      6.40522     12.82329     13.94380         0.025935     -0.044571     -0.131125
      4.27109     12.82147     11.77258         0.018662     -0.020611     -0.047740
      6.40635     10.68928     11.77002         0.041123     -0.088648      0.015004
      8.54611      6.40959      9.63653         0.000041     -0.000301      0.136979
     10.68264      0.00000      9.63653        -0.001423     -0.000623      0.025796
      8.54611      0.00000      7.50000        -0.000137      0.001476     -0.352486
     10.68264      6.40959      7.50000         0.003969     -0.000082     -0.357715
      8.54624      6.40940     13.94284        -0.000976      0.001572      0.483223
     10.68687     17.08808     13.94392        -0.024780      0.044329     -0.131746
      8.54601     17.08822     11.77189         0.001034      0.060038     -0.024320
     10.68908      6.40935     11.78735        -0.092980     -0.000074      0.114076
      8.54611      2.13653      9.63653         0.000407      0.014341      0.060278
     10.68264      4.27306      9.63653        -0.013600      0.012228      0.090204
      8.54611      4.27306      7.50000        -0.000037     -0.004020     -0.357728
     10.68264      2.13653      7.50000         0.000034     -0.000031     -0.352644
      8.54599      2.11295     13.94213        -0.003971      0.301586      0.001481
     10.70703      4.24477     13.93828        -0.276688      0.313110      0.175082
      8.54585      4.26650     11.78733         0.000811      0.092878      0.114445
     10.68598      2.12982     11.77012        -0.042210      0.088944      0.014256
     12.81917      6.40959      9.63653        -0.014612      0.000187      0.059902
     14.95570      0.00000      9.63653        -0.002047      0.002193      0.020854
     12.81917      0.00000      7.50000        -0.003173      0.002679     -0.354128
     14.95570      6.40959      7.50000        -0.001518     -0.000142     -0.352546
     12.84280      6.40945     13.94209        -0.302504     -0.002955      0.000658
     14.95902     17.08912     13.94178        -0.011294      0.010591     -0.091346
     12.82113     17.08987     11.77268        -0.017929      0.021384     -0.048391
     14.95969      6.40955     11.77185        -0.059409      0.000540     -0.024428
     12.81917      2.13653      9.63653        -0.000553      0.000373      0.027311
     14.95570      4.27306      9.63653         0.000259      0.001530      0.025365
     12.81917      4.27306      7.50000         0.000061     -0.000049     -0.352520
     14.95570      2.13653      7.50000        -0.002699      0.003250     -0.354088
     12.82876      2.12742     13.94033        -0.065187      0.060419     -0.134520
     14.95960      4.26884     13.94342        -0.041146      0.024270     -0.133901
     12.82541      4.27002     11.76984        -0.087888      0.039349      0.012697
     14.95785      2.13476     11.77247        -0.019968      0.016609     -0.047250
      8.54611     14.95570      9.63653         0.000041      0.000075      0.025361
     10.68264      8.54611      9.63653        -0.012318     -0.013568      0.089889
      8.54611      8.54611      7.50000         0.000051      0.003944     -0.357748
     10.68264     14.95570      7.50000        -0.002358     -0.000053     -0.353711
      8.54607     14.95572     13.94309         0.000064     -0.000049     -0.114451
     10.71104      8.57047     13.93792        -0.314618     -0.275867      0.176694
      8.54645      8.55250     11.78727        -0.001303     -0.092517      0.115362
     10.68389     14.95571     11.77376        -0.011960      0.000422     -0.053586
      8.54611     10.68264      9.63653        -0.000485     -0.014486      0.060104
     10.68264     12.81917      9.63653        -0.001627      0.000607      0.025401
      8.54611     12.81917      7.50000         0.000054     -0.001423     -0.352544
     10.68264     10.68264      7.50000         0.000050      0.000090     -0.352551
      8.54624     10.70617     13.94213         0.003615     -0.301853      0.001216
     10.68689     12.82303     13.94364        -0.024441     -0.040796     -0.134803
      8.54617     12.82318     11.77191        -0.000758     -0.059443     -0.024128
     10.68566     10.68899     11.76980        -0.039386     -0.088638      0.013257
     12.81917     14.95570      9.63653        -0.004375      0.000026      0.020989
     14.95570      8.54611      9.63653         0.001024     -0.001392      0.025344
     12.81917      8.54611      7.50000        -0.000009      0.000050     -0.352680
     14.95570     14.95570      7.50000        -0.002168     -0.000002     -0.356539
     12.82237     14.95574     13.94215        -0.008905     -0.000419     -0.096440
     14.95991      8.55041     13.94370        -0.044533     -0.025145     -0.130907
     12.82594      8.54942     11.76981        -0.089734     -0.041514      0.016477
     14.95678     14.95570     11.77314        -0.006939      0.000138     -0.047985
     12.81917     10.68264      9.63653        -0.000374     -0.000290      0.026882
     14.95570     12.81917      9.63653        -0.001924     -0.002075      0.020790
     12.81917     12.81917      7.50000        -0.003236     -0.002668     -0.354077
     14.95570     10.68264      7.50000        -0.002712     -0.003099     -0.354153
     12.82838     10.69226     13.94006        -0.061281     -0.065752     -0.133516
     14.95891     12.82238     13.94159        -0.010601     -0.011083     -0.090746
     12.82095     12.82130     11.77244        -0.016467     -0.019375     -0.047105
     14.95812     10.68453     11.77260        -0.020737     -0.017183     -0.048321
 -----------------------------------------------------------------------------------
    total drift:                               -0.000323      0.000460     -0.140954


--------------------------------------------------------------------------------------------------------



  FREE ENERGIE OF THE ION-ELECTRON SYSTEM (eV)
  ---------------------------------------------------
  free  energy   TOTEN  =     -1481.04930012 eV

  energy  without entropy=    -1481.04930012  energy(sigma->0) =    -1481.04930012



--------------------------------------------------------------------------------------------------------


    POTLOK:  cpu time      1.3959: real time      1.3960


--------------------------------------------------------------------------------------------------------


     LOOP+:  cpu time    127.6084: real time    127.7837
    4ORBIT:  cpu time      0.0000: real time      0.0000

 total amount of memory used by VASP MPI-rank0    76217. kBytes
=======================================================================

   base      :      30000. kBytes
   nonlr-proj:      10050. kBytes
   fftplans  :       9519. kBytes
   grid      :      17747. kBytes
   one-center:        129. kBytes
   wavefun   :       8772. kBytes

  
  
 General timing and accounting informations for this job:
 ========================================================
  
                  Total CPU time used (sec):      170.378
                            User time (sec):      166.656
                          System time (sec):        3.721
                         Elapsed time (sec):      174.638
  
                   Maximum memory used (kb):      232528.
                   Average memory used (kb):          N/A
  
                          Minor page faults:       242654
                          Major page faults:            0
                 Voluntary context switches:        12357
