 vasp.6.3.0 20Jan22 (build Apr  1 2022 16:44:48) complex                         
 executed on        HPECrayEX_GCC date 2023.01.26  18:47:59
 running  512 mpi-ranks, with    1 threads/rank
 distrk:  each k-point on  512 cores,    1 groups
 distr:  one band on NCORE=   8 cores,   64 groups


--------------------------------------------------------------------------------------------------------


 INCAR:
   SYSTEM = MgO-rocksalt
   ISMEAR = 0
   SIGMA = 0.05
   EDIFF = 1E-6
   ALGO = ALL
   ISTART = 0
   IBRION = -1
   NSW = 0
   ISYM = 0
   DIPOL = 0.5 0.5 0.5
   IDIPOL = 3
   LDIPOL = .TRUE.
   GGA = RE
   IVDW = 13
   VDW_S8 = 1.7468
   VDW_A1 = 0.5363
   VDW_A2 = 3.0726
   ENCUT = 600
   PREC = Accurate
   LASPH = .TRUE.
   LREAL = .FALSE.
   ISPIN = 1
   NELM = 200
   NELMIN = 8
   NCORE = 8
   KPAR = 1
   LWAVE = .FALSE.
   LCHARG = .FALSE.

 POTCAR:    PAW_PBE Mg_pv 13Apr2007               
 POTCAR:    PAW_PBE O 08Apr2002                   
 POTCAR:    PAW_PBE Mg_pv 13Apr2007               
   SHA256 =  f474ac0dd33840b9ae76c01d57fea79fdf77cdfbb07d5ade72c65f83c709b62b Mg_pv/POTCAR          
   COPYR  = (c) Copyright 13Apr2007 Georg Kresse                                                    
   COPYR  = This file is part of the software VASP. Any use, copying, and all other rights are regul
   COPYR  = If you do not have a valid VASP license, you may not use, copy or distribute this file. 
   VRHFIN =Mg: p6s2                                                                                 
   LEXCH  = PE                                                                                      
   EATOM  =  1056.7344 eV,   77.6678 Ry                                                             
                                                                                                    
   TITEL  = PAW_PBE Mg_pv 13Apr2007                                                                 
   LULTRA =        F    use ultrasoft PP ?                                                          
   IUNSCR =        1    unscreen: 0-lin 1-nonlin 2-no                                               
   RPACOR =    1.500    partial core radius                                                         
   POMASS =   24.305; ZVAL   =    8.000    mass and valenz                                          
   RCORE  =    2.000    outmost cutoff radius                                                       
   RWIGS  =    2.000; RWIGS  =    1.058    wigner-seitz radius (au A)                               
   ENMAX  =  403.929; ENMIN  =  302.947 eV                                                          
   RCLOC  =    1.506    cutoff for local pot                                                        
   LCOR   =        T    correct aug charges                                                         
   LPAW   =        T    paw PP                                                                      
   EAUG   =  758.780                                                                                
   DEXC   =    0.000                                                                                
   RMAX   =    2.045    core radius for proj-oper                                                   
   RAUG   =    1.300    factor for augmentation sphere                                              
   RDEP   =    2.025    radius for radial grids                                                     
   RDEPT  =    1.557    core radius for aug-charge                                                  
                                                                                                    
   Atomic configuration                                                                             
    5 entries                                                                                       
     n  l   j            E        occ.                                                              
     1  0  0.50     -1259.6230   2.0000                                                             
     2  0  0.50       -79.8442   2.0000                                                             
     2  1  1.50       -46.6121   6.0000                                                             
     3  0  0.50        -4.7055   2.0000                                                             
     3  2  1.50        -1.3606   0.0000                                                             
   Description                                                                                      
     l       E           TYP  RCUT    TYP  RCUT                                                     
     1    -46.6121073     23  1.600                                                                 
     1      2.7211652     23  1.600                                                                 
     0     -4.7054661     23  2.000                                                                 
     0     61.2262170     23  2.000                                                                 
     2     -1.3605826     23  2.000                                                                 
  local pseudopotential read in
  partial core-charges read in
  partial kinetic energy density read in
  atomic valenz-charges read in
  non local Contribution for L=           1  read in
    real space projection operators read in
  non local Contribution for L=           1  read in
    real space projection operators read in
  non local Contribution for L=           0  read in
    real space projection operators read in
  non local Contribution for L=           0  read in
    real space projection operators read in
  non local Contribution for L=           2  read in
    real space projection operators read in
    PAW grid and wavefunctions read in

   number of l-projection  operators is LMAX  =           5
   number of lm-projection operators is LMMAX =          13

 POTCAR:    PAW_PBE O 08Apr2002                   
   SHA256 =  818f92134a0a090dccd8ba1447fa70422a3b330e708bb4f08108d8ae51209ddf O/POTCAR              
   COPYR  = (c) Copyright 08Apr2002 Georg Kresse                                                    
   COPYR  = This file is part of the software VASP. Any use, copying, and all other rights are regul
   COPYR  = If you do not have a valid VASP license, you may not use, copy or distribute this file. 
   VRHFIN =O: s2p4                                                                                  
   LEXCH  = PE                                                                                      
   EATOM  =   432.3788 eV,   31.7789 Ry                                                             
                                                                                                    
   TITEL  = PAW_PBE O 08Apr2002                                                                     
   LULTRA =        F    use ultrasoft PP ?                                                          
   IUNSCR =        1    unscreen: 0-lin 1-nonlin 2-no                                               
   RPACOR =    1.200    partial core radius                                                         
   POMASS =   16.000; ZVAL   =    6.000    mass and valenz                                          
   RCORE  =    1.520    outmost cutoff radius                                                       
   RWIGS  =    1.550; RWIGS  =    0.820    wigner-seitz radius (au A)                               
   ENMAX  =  400.000; ENMIN  =  300.000 eV                                                          
   ICORE  =        2    local potential                                                             
   LCOR   =        T    correct aug charges                                                         
   LPAW   =        T    paw PP                                                                      
   EAUG   =  605.392                                                                                
   DEXC   =    0.000                                                                                
   RMAX   =    1.553    core radius for proj-oper                                                   
   RAUG   =    1.300    factor for augmentation sphere                                              
   RDEP   =    1.550    radius for radial grids                                                     
   RDEPT  =    1.329    core radius for aug-charge                                                  
                                                                                                    
   Atomic configuration                                                                             
    4 entries                                                                                       
     n  l   j            E        occ.                                                              
     1  0  0.50      -514.6923   2.0000                                                             
     2  0  0.50       -23.9615   2.0000                                                             
     2  1  0.50        -9.0305   4.0000                                                             
     3  2  1.50        -9.5241   0.0000                                                             
   Description                                                                                      
     l       E           TYP  RCUT    TYP  RCUT                                                     
     0    -23.9615318     23  1.200                                                                 
     0     -9.5240782     23  1.200                                                                 
     1     -9.0304911     23  1.520                                                                 
     1      8.1634956     23  1.520                                                                 
     2     -9.5240782      7  1.500                                                                 
  local pseudopotential read in
  partial core-charges read in
  partial kinetic energy density read in
  kinetic energy density of atom read in
  atomic valenz-charges read in
  non local Contribution for L=           0  read in
    real space projection operators read in
  non local Contribution for L=           0  read in
    real space projection operators read in
  non local Contribution for L=           1  read in
    real space projection operators read in
  non local Contribution for L=           1  read in
    real space projection operators read in
    PAW grid and wavefunctions read in

   number of l-projection  operators is LMAX  =           4
   number of lm-projection operators is LMMAX =           8

 -----------------------------------------------------------------------------
|                                                                             |
|               ----> ADVICE to this user running VASP <----                  |
|                                                                             |
|     You have a (more or less) 'large supercell' and for larger cells it     |
|     might be more efficient to use real-space projection operators.         |
|     Therefore, try LREAL= Auto in the INCAR file.                           |
|     Mind: For very accurate calculation, you might also keep the            |
|     reciprocal projection scheme (i.e. LREAL=.FALSE.).                      |
|                                                                             |
 -----------------------------------------------------------------------------

 -----------------------------------------------------------------------------
|                                                                             |
|               ----> ADVICE to this user running VASP <----                  |
|                                                                             |
|     You enforced a specific xc type in the INCAR file but a different       |
|     type was found in the POTCAR file.                                      |
|     I HOPE YOU KNOW WHAT YOU ARE DOING!                                     |
|                                                                             |
 -----------------------------------------------------------------------------

  PAW_PBE Mg_pv 13Apr2007               :
 energy of atom  1       EATOM=-1056.7344
 kinetic energy error for atom=    0.0221 (will be added to EATOM!!)
  PAW_PBE O 08Apr2002                   :
 energy of atom  2       EATOM= -432.3788
 kinetic energy error for atom=    0.0168 (will be added to EATOM!!)


 POSCAR: Mg  O
  positions in direct lattice
  No initial velocities read in
 -----------------------------------------------------------------------------
|                                                                             |
|           W    W    AA    RRRRR   N    N  II  N    N   GGGG   !!!           |
|           W    W   A  A   R    R  NN   N  II  NN   N  G    G  !!!           |
|           W    W  A    A  R    R  N N  N  II  N N  N  G       !!!           |
|           W WW W  AAAAAA  RRRRR   N  N N  II  N  N N  G  GGG   !            |
|           WW  WW  A    A  R   R   N   NN  II  N   NN  G    G                |
|           W    W  A    A  R    R  N    N  II  N    N   GGGG   !!!           |
|                                                                             |
|     Specifying the vdW parameters                                           |
|     VDW_S8 = 1.747                                                          |
|     VDW_A1 = 0.536                                                          |
|     VDW_A2 = 3.073                                                          |
|     in the INCAR file will overwrite the defaults for revpbe. Please        |
|     make sure that is what you intended.                                    |
|                                                                             |
 -----------------------------------------------------------------------------

 exchange correlation table for  LEXCH =       40
   RHO(1)=    0.500       N(1)  =     2000
   RHO(2)=  100.500       N(2)  =     4000



--------------------------------------------------------------------------------------------------------


 ion  position               nearest neighbor table
   1  0.250  0.000  0.351-  33 2.12  35 2.12  36 2.12  43 2.12  52 2.12
   2  0.500  0.250  0.351-  34 2.12  35 2.12  36 2.12  44 2.12  51 2.12
   3  0.250  0.250  0.450-  35 2.12  34 2.12  33 2.12  41 2.12  50 2.12  39 2.12
   4  0.500  0.000  0.450-  36 2.12  34 2.12  33 2.12  42 2.12  49 2.12  40 2.12
   5  0.250  0.000  0.550-  40 2.12  47 2.12  39 2.12  56 2.12  33 2.13  37 2.14
   6  0.500  0.250  0.550-  48 2.12  55 2.12  39 2.12  40 2.12  34 2.13  38 2.13
   7  0.250  0.250  0.648-  39 2.11  54 2.11  37 2.11  38 2.12  45 2.12
   8  0.500  0.002  0.648-  38 2.09  40 2.10  46 2.11  37 2.12  53 2.12
   9  0.250  0.500  0.351-  41 2.12  35 2.12  43 2.12  44 2.12  60 2.12
  10  0.500  0.750  0.351-  42 2.12  36 2.12  43 2.12  44 2.12  59 2.12
  11  0.250  0.750  0.450-  43 2.12  41 2.12  42 2.12  33 2.12  58 2.12  47 2.12
  12  0.500  0.500  0.450-  44 2.12  41 2.12  42 2.12  34 2.12  57 2.12  48 2.13
  13  0.250  0.500  0.550-  48 2.12  47 2.12  39 2.12  64 2.12  41 2.13  45 2.13
  14  0.501  0.749  0.550-  48 2.11  63 2.11  47 2.12  40 2.12  42 2.13  46 2.16
  15  0.248  0.750  0.648-  62 2.09  47 2.10  46 2.11  37 2.12  45 2.12
  16  0.498  0.498  0.651-  45 2.11  38 2.11  48 2.15  61 2.16  46 2.16
  17  0.750  0.000  0.351-  49 2.12  36 2.12  51 2.12  52 2.12  59 2.12
  18  0.000  0.250  0.351-  50 2.12  35 2.12  51 2.12  52 2.12  60 2.12
  19  0.750  0.250  0.450-  51 2.12  49 2.12  50 2.12  34 2.12  57 2.12  55 2.12
  20  0.000  0.000  0.450-  52 2.12  49 2.12  50 2.12  33 2.12  58 2.12  56 2.12
  21  0.750  1.000  0.550-  63 2.12  40 2.12  56 2.12  55 2.12  49 2.13  53 2.13
  22  0.000  0.250  0.550-  64 2.12  55 2.12  39 2.12  56 2.12  50 2.13  54 2.14
  23  0.750  0.248  0.648-  53 2.09  55 2.10  61 2.11  54 2.12  38 2.12
  24  0.001  0.001  0.648-  56 2.11  37 2.11  54 2.11  62 2.12  53 2.12
  25  0.750  0.500  0.351-  57 2.12  51 2.12  44 2.12  59 2.12  60 2.12
  26  0.000  0.750  0.351-  58 2.12  52 2.12  43 2.12  59 2.12  60 2.12
  27  0.750  0.750  0.450-  59 2.12  49 2.12  57 2.12  58 2.12  42 2.12  63 2.13
  28  0.000  0.500  0.450-  60 2.12  50 2.12  57 2.12  58 2.12  41 2.12  64 2.12
  29  0.749  0.501  0.550-  48 2.11  63 2.11  55 2.12  64 2.12  57 2.13  61 2.16
  30  1.000  0.750  0.550-  63 2.12  64 2.12  56 2.12  47 2.12  58 2.13  62 2.13
  31  0.753  0.753  0.651-  53 2.11  62 2.11  63 2.14  46 2.16  61 2.16
  32  0.002  0.500  0.648-  45 2.09  64 2.10  61 2.11  54 2.12  62 2.12
  33  0.250  0.000  0.450-   1 2.12   3 2.12   4 2.12  11 2.12  20 2.12   5 2.13
  34  0.500  0.250  0.450-   2 2.12   3 2.12   4 2.12  12 2.12  19 2.12   6 2.13
  35  0.250  0.250  0.351-   3 2.12   2 2.12   1 2.12   9 2.12  18 2.12
  36  0.500  0.000  0.351-   4 2.12   2 2.12   1 2.12  10 2.12  17 2.12
  37  0.250  0.000  0.651-  24 2.11   7 2.11   8 2.12  15 2.12   5 2.14
  38  0.500  0.249  0.650-   8 2.09  16 2.11   7 2.12  23 2.12   6 2.13
  39  0.250  0.250  0.550-   7 2.11   6 2.12  13 2.12  22 2.12   5 2.12   3 2.12
  40  0.500  1.000  0.550-   8 2.10  21 2.12   5 2.12  14 2.12   4 2.12   6 2.12
  41  0.250  0.500  0.450-   9 2.12   3 2.12  11 2.12  12 2.12  28 2.12  13 2.13
  42  0.500  0.750  0.450-  10 2.12   4 2.12  11 2.12  12 2.12  27 2.12  14 2.13
  43  0.250  0.750  0.351-  11 2.12   9 2.12  10 2.12   1 2.12  26 2.12
  44  0.500  0.500  0.351-  12 2.12   9 2.12  10 2.12   2 2.12  25 2.12
  45  0.249  0.500  0.650-  32 2.09  16 2.11   7 2.12  15 2.12  13 2.13
  46  0.498  0.752  0.651-   8 2.11  15 2.11  16 2.16  31 2.16  14 2.16
  47  0.251  0.750  0.550-  15 2.10  13 2.12   5 2.12  14 2.12  11 2.12  30 2.12
  48  0.500  0.500  0.550-  14 2.11  29 2.11  13 2.12   6 2.12  12 2.13  16 2.15
  49  0.750  0.000  0.450-  17 2.12   4 2.12  19 2.12  20 2.12  27 2.12  21 2.13
  50  0.000  0.250  0.450-  18 2.12   3 2.12  19 2.12  20 2.12  28 2.12  22 2.13
  51  0.750  0.250  0.351-  19 2.12  17 2.12  18 2.12   2 2.12  25 2.12
  52  0.000  0.000  0.351-  20 2.12  17 2.12  18 2.12   1 2.12  26 2.12
  53  0.750  0.001  0.650-  23 2.09  31 2.11  24 2.12   8 2.12  21 2.13
  54  0.000  0.250  0.651-  24 2.11   7 2.11  32 2.12  23 2.12  22 2.14
  55  0.750  0.251  0.550-  23 2.10   6 2.12  22 2.12  29 2.12  19 2.12  21 2.12
  56  0.000  0.000  0.550-  24 2.11  30 2.12  21 2.12   5 2.12  22 2.12  20 2.12
  57  0.750  0.500  0.450-  25 2.12  19 2.12  12 2.12  27 2.12  28 2.12  29 2.13
  58  0.000  0.750  0.450-  26 2.12  20 2.12  11 2.12  27 2.12  28 2.12  30 2.13
  59  0.750  0.750  0.351-  27 2.12  17 2.12  25 2.12  26 2.12  10 2.12
  60  0.000  0.500  0.351-  28 2.12  18 2.12  25 2.12  26 2.12   9 2.12
  61  0.752  0.498  0.651-  32 2.11  23 2.11  16 2.16  31 2.16  29 2.16
  62  0.001  0.750  0.650-  15 2.09  31 2.11  24 2.12  32 2.12  30 2.13
  63  0.750  0.750  0.550-  29 2.11  14 2.11  30 2.12  21 2.12  27 2.13  31 2.14
  64  1.000  0.500  0.550-  32 2.10  30 2.12  22 2.12  29 2.12  28 2.12  13 2.12


IMPORTANT INFORMATION: All symmetrisations will be switched off!
NOSYMM: (Re-)initialisation of all symmetry stuff for point group C_1.


----------------------------------------------------------------------------------------

                                     Primitive cell                                     

  volume of cell :    1530.6606

  direct lattice vectors                    reciprocal lattice vectors
     8.467142631  0.000000000  0.000000000     0.118103597  0.000000000  0.000000000
     0.000000000  8.467142631  0.000000000     0.000000000  0.118103597  0.000000000
     0.000000000  0.000000000 21.350356973     0.000000000  0.000000000  0.046837624

  length of vectors
     8.467142631  8.467142631 21.350356973     0.118103597  0.118103597  0.046837624

  position of ions in fractional coordinates (direct lattice)
     0.250000000  0.000000000  0.351282183
     0.500000000  0.250000000  0.351282183
     0.250000000  0.250000000  0.450427394
     0.500000000  0.000000000  0.450427394
     0.250077680  0.000008961  0.550056497
     0.500031447  0.250465667  0.550269438
     0.249634973  0.249634968  0.648389504
     0.499684473  0.001668243  0.648310805
     0.250000000  0.500000000  0.351282183
     0.500000000  0.750000000  0.351282183
     0.250000000  0.750000000  0.450427394
     0.500000000  0.500000000  0.450427394
     0.250465665  0.500031447  0.550269442
     0.500598467  0.749470231  0.550093778
     0.248471357  0.750444499  0.648310874
     0.497704184  0.497704190  0.650940502
     0.750000000  0.000000000  0.351282183
     0.000000000  0.250000000  0.351282183
     0.750000000  0.250000000  0.450427394
     0.000000000  0.000000000  0.450427394
     0.750037726  0.999649832  0.550254008
     0.000008973  0.250077685  0.550056497
     0.750444492  0.248471358  0.648310869
     0.000511658  0.000511657  0.648375765
     0.750000000  0.500000000  0.351282183
     0.000000000  0.750000000  0.351282183
     0.750000000  0.750000000  0.450427394
     0.000000000  0.500000000  0.450427394
     0.749470246  0.500598467  0.550093776
     0.999649825  0.750037741  0.550254013
     0.752505500  0.752505520  0.650833694
     0.001668232  0.499684474  0.648310814
     0.250000000  0.000000000  0.450427394
     0.500000000  0.250000000  0.450427394
     0.250000000  0.250000000  0.351282183
     0.500000000  0.000000000  0.351282183
     0.249806872  0.000323331  0.650513307
     0.499824062  0.248754385  0.650261677
     0.250047117  0.250047113  0.549647183
     0.500068608  0.999551798  0.549750410
     0.250000000  0.500000000  0.450427394
     0.500000000  0.750000000  0.450427394
     0.250000000  0.750000000  0.351282183
     0.500000000  0.500000000  0.351282183
     0.248754383  0.499824058  0.650261689
     0.497920970  0.752231115  0.651110075
     0.250538065  0.749999301  0.549748806
     0.500381534  0.500381536  0.550425057
     0.750000000  0.000000000  0.450427394
     0.000000000  0.250000000  0.450427394
     0.750000000  0.250000000  0.351282183
     0.000000000  0.000000000  0.351282183
     0.750312327  0.001415846  0.650223025
     0.000323338  0.249806878  0.650513311
     0.749999306  0.250538075  0.549748802
     0.000036614  0.000036612  0.549638027
     0.750000000  0.500000000  0.450427394
     0.000000000  0.750000000  0.450427394
     0.750000000  0.750000000  0.351282183
     0.000000000  0.500000000  0.351282183
     0.752231108  0.497920959  0.651110074
     0.001415838  0.750312341  0.650223030
     0.749702416  0.749702412  0.550407763
     0.999551801  0.500068607  0.549750413

  ion indices of the primitive-cell ions
   primitive index   ion index
                 1           1
                 2           2
                 3           3
                 4           4
                 5           5
                 6           6
                 7           7
                 8           8
                 9           9
                10          10
                11          11
                12          12
                13          13
                14          14
                15          15
                16          16
                17          17
                18          18
                19          19
                20          20
                21          21
                22          22
                23          23
                24          24
                25          25
                26          26
                27          27
                28          28
                29          29
                30          30
                31          31
                32          32
                33          33
                34          34
                35          35
                36          36
                37          37
                38          38
                39          39
                40          40
                41          41
                42          42
                43          43
                44          44
                45          45
                46          46
                47          47
                48          48
                49          49
                50          50
                51          51
                52          52
                53          53
                54          54
                55          55
                56          56
                57          57
                58          58
                59          59
                60          60
                61          61
                62          62
                63          63
                64          64

----------------------------------------------------------------------------------------



 KPOINTS: pymatgen v2020.8.13 with grid density = 

Automatic generation of k-mesh.
 Grid dimensions read from file:
 generate k-points for:    2    2    1

 Generating k-lattice:

  Cartesian coordinates                     Fractional coordinates (reciprocal lattice)
     0.059051798  0.000000000  0.000000000     0.500000000  0.000000000  0.000000000
     0.000000000  0.059051798  0.000000000     0.000000000  0.500000000  0.000000000
     0.000000000  0.000000000  0.046837624     0.000000000  0.000000000  1.000000000

  Length of vectors
     0.059051798  0.059051798  0.046837624

  Shift w.r.t. Gamma in fractional coordinates (k-lattice)
     0.000000000  0.000000000  0.000000000

 
 Subroutine IBZKPT returns following result:
 ===========================================
 
 Found      4 irreducible k-points:
 
 Following reciprocal coordinates:
            Coordinates               Weight
  0.000000  0.000000  0.000000      1.000000
  0.500000  0.000000  0.000000      1.000000
  0.000000  0.500000  0.000000      1.000000
  0.500000  0.500000  0.000000      1.000000
 
 Following cartesian coordinates:
            Coordinates               Weight
  0.000000  0.000000  0.000000      1.000000
  0.059052  0.000000  0.000000      1.000000
  0.000000  0.059052  0.000000      1.000000
  0.059052  0.059052  0.000000      1.000000
 


--------------------------------------------------------------------------------------------------------




 Dimension of arrays:
   k-points           NKPTS =      4   k-points in BZ     NKDIM =      4   number of bands    NBANDS=    320
   number of dos      NEDOS =    301   number of ions     NIONS =     64
   non local maximal  LDIM  =      5   non local SUM 2l+1 LMDIM =     13
   total plane-waves  NPLWV = 882000
   max r-space proj   IRMAX =      1   max aug-charges    IRDMAX=  11554
   dimension x,y,z NGX =    70 NGY =   70 NGZ =  180
   dimension x,y,z NGXF=   140 NGYF=  140 NGZF=  360
   support grid    NGXF=   140 NGYF=  140 NGZF=  360
   ions per type =              32  32
   NGX,Y,Z   is equivalent  to a cutoff of  13.74, 13.74, 14.02 a.u.
   NGXF,Y,Z  is equivalent  to a cutoff of  27.49, 27.49, 28.03 a.u.

 SYSTEM =  MgO-rocksalt                            
 POSCAR =  Mg  O                                   

--------------------------------------------------------------------------------------------------------


  energy-cutoff  :      600.00
  volume of cell :     1530.66
      direct lattice vectors                 reciprocal lattice vectors
     8.467142631  0.000000000  0.000000000     0.118103597  0.000000000  0.000000000
     0.000000000  8.467142631  0.000000000     0.000000000  0.118103597  0.000000000
     0.000000000  0.000000000 21.350356973     0.000000000  0.000000000  0.046837624

  length of vectors
     8.467142631  8.467142631 21.350356973     0.118103597  0.118103597  0.046837624



 k-points in units of 2pi/SCALE and weight: pymatgen v2020.8.13 with grid density = 
   0.00000000  0.00000000  0.00000000       0.250
   0.05905180  0.00000000  0.00000000       0.250
   0.00000000  0.05905180  0.00000000       0.250
   0.05905180  0.05905180  0.00000000       0.250

 k-points in reciprocal lattice and weights: pymatgen v2020.8.13 with grid density = 
   0.00000000  0.00000000  0.00000000       0.250
   0.50000000  0.00000000  0.00000000       0.250
   0.00000000  0.50000000  0.00000000       0.250
   0.50000000  0.50000000  0.00000000       0.250

 position of ions in fractional coordinates (direct lattice) 
   0.25000000  0.00000000  0.35128218
   0.50000000  0.25000000  0.35128218
   0.25000000  0.25000000  0.45042739
   0.50000000  0.00000000  0.45042739
   0.25007768  0.00000896  0.55005650
   0.50003145  0.25046567  0.55026944
   0.24963497  0.24963497  0.64838950
   0.49968447  0.00166824  0.64831081
   0.25000000  0.50000000  0.35128218
   0.50000000  0.75000000  0.35128218
   0.25000000  0.75000000  0.45042739
   0.50000000  0.50000000  0.45042739
   0.25046567  0.50003145  0.55026944
   0.50059847  0.74947023  0.55009378
   0.24847136  0.75044450  0.64831087
   0.49770418  0.49770419  0.65094050
   0.75000000  0.00000000  0.35128218
   0.00000000  0.25000000  0.35128218
   0.75000000  0.25000000  0.45042739
   0.00000000  0.00000000  0.45042739
   0.75003773  0.99964983  0.55025401
   0.00000897  0.25007769  0.55005650
   0.75044449  0.24847136  0.64831087
   0.00051166  0.00051166  0.64837576
   0.75000000  0.50000000  0.35128218
   0.00000000  0.75000000  0.35128218
   0.75000000  0.75000000  0.45042739
   0.00000000  0.50000000  0.45042739
   0.74947025  0.50059847  0.55009378
   0.99964982  0.75003774  0.55025401
   0.75250550  0.75250552  0.65083369
   0.00166823  0.49968447  0.64831081
   0.25000000  0.00000000  0.45042739
   0.50000000  0.25000000  0.45042739
   0.25000000  0.25000000  0.35128218
   0.50000000  0.00000000  0.35128218
   0.24980687  0.00032333  0.65051331
   0.49982406  0.24875439  0.65026168
   0.25004712  0.25004711  0.54964718
   0.50006861  0.99955180  0.54975041
   0.25000000  0.50000000  0.45042739
   0.50000000  0.75000000  0.45042739
   0.25000000  0.75000000  0.35128218
   0.50000000  0.50000000  0.35128218
   0.24875438  0.49982406  0.65026169
   0.49792097  0.75223112  0.65111008
   0.25053807  0.74999930  0.54974881
   0.50038153  0.50038154  0.55042506
   0.75000000  0.00000000  0.45042739
   0.00000000  0.25000000  0.45042739
   0.75000000  0.25000000  0.35128218
   0.00000000  0.00000000  0.35128218
   0.75031233  0.00141585  0.65022302
   0.00032334  0.24980688  0.65051331
   0.74999931  0.25053808  0.54974880
   0.00003661  0.00003661  0.54963803
   0.75000000  0.50000000  0.45042739
   0.00000000  0.75000000  0.45042739
   0.75000000  0.75000000  0.35128218
   0.00000000  0.50000000  0.35128218
   0.75223111  0.49792096  0.65111007
   0.00141584  0.75031234  0.65022303
   0.74970242  0.74970241  0.55040776
   0.99955180  0.50006861  0.54975041

 position of ions in cartesian coordinates  (Angst):
   2.11678566  0.00000000  7.50000000
   4.23357132  2.11678566  7.50000000
   2.11678566  2.11678566  9.61678566
   4.23357132  0.00000000  9.61678566
   2.11744338  0.00007587 11.74390258
   4.23383758  2.12072853 11.74844893
   2.11369492  2.11369488 13.84334736
   4.23089971  0.01412525 13.84166712
   2.11678566  4.23357132  7.50000000
   4.23357132  6.35035697  7.50000000
   2.11678566  6.35035697  9.61678566
   4.23357132  4.23357132  9.61678566
   2.12072851  4.23383758 11.74844901
   4.23863862  6.34587134 11.74469853
   2.10384242  6.35412061 13.84166859
   4.21413231  4.21413236 13.89781209
   6.35035697  0.00000000  7.50000000
   0.00000000  2.11678566  7.50000000
   6.35035697  2.11678566  9.61678566
   0.00000000  0.00000000  9.61678566
   6.35067640  8.46417771 11.74811949
   0.00007598  2.11744343 11.74390257
   6.35412055  2.10384243 13.84166849
   0.00433228  0.00433227 13.84305403
   6.35035697  4.23357132  7.50000000
   0.00000000  6.35035697  7.50000000
   6.35035697  6.35035697  9.61678566
   0.00000000  4.23357132  9.61678566
   6.34587147  4.23863862 11.74469848
   8.46417764  6.35067653 11.74811961
   6.37157140  6.37157157 13.89553170
   0.01412516  4.23089971 13.84166732
   2.11678566  0.00000000  9.61678566
   4.23357132  2.11678566  9.61678566
   2.11678566  2.11678566  7.50000000
   4.23357132  0.00000000  7.50000000
   2.11515042  0.00273769 13.88869133
   4.23208162  2.10623886 13.88331894
   2.11718460  2.11718457 11.73516356
   4.23415223  8.46334764 11.73736749
   2.11678566  4.23357132  9.61678566
   4.23357132  6.35035697  9.61678566
   2.11678566  6.35035697  7.50000000
   4.23357132  4.23357132  7.50000000
   2.10623884  4.23208159 13.88331918
   4.21596787  6.36924814 13.90143254
   2.12134153  6.35035105 11.73733325
   4.23680182  4.23680184 11.75177146
   6.35035697  0.00000000  9.61678566
   0.00000000  2.11678566  9.61678566
   6.35035697  2.11678566  7.50000000
   0.00000000  0.00000000  7.50000000
   6.35300149  0.01198817 13.88249369
   0.00273775  2.11515047 13.88869140
   6.35035109  2.12134162 11.73733318
   0.00031001  0.00031000 11.73496808
   6.35035697  4.23357132  9.61678566
   0.00000000  6.35035697  9.61678566
   6.35035697  6.35035697  7.50000000
   0.00000000  4.23357132  7.50000000
   6.36924808  4.21596778 13.90143251
   0.01198811  6.35300161 13.88249381
   6.34783728  6.34783725 11.75140222
   8.46334767  4.23415222 11.73736757



--------------------------------------------------------------------------------------------------------

--------------------------------------- Iteration      FINAL  ---------------------------------------


--------------------OUTCAR has been truncated-------------------------


--------------------OUTCAR has been truncated-------------------------


--------------------OUTCAR has been truncated-------------------------


--------------------OUTCAR has been truncated-------------------------


--------------------OUTCAR has been truncated-------------------------


--------------------OUTCAR has been truncated-------------------------


--------------------OUTCAR has been truncated-------------------------


--------------------OUTCAR has been truncated-------------------------


--------------------OUTCAR has been truncated-------------------------


--------------------OUTCAR has been truncated-------------------------



  FORCE on cell =-STRESS in cart. coord.  units (eV):
  Direction    XX          YY          ZZ          XY          YZ          ZX
  --------------------------------------------------------------------------------------
  Alpha Z   869.06037   869.06037   869.06037
  Ewald  160061.44542160061.44541************    -0.06839     0.26388     0.26388
  Hartree170167.26816170167.26814************    -0.06255     0.15699     0.15698
  E(xc)   -2464.33172 -2464.33172 -2472.54605    -0.00036     0.00089     0.00089
  Local  ************************340397.79807     0.13986    -0.42377    -0.42376
  n-local -2795.76741 -2795.76741 -2816.32029    -0.00219     0.00836     0.00837
  augment  1046.70428  1046.70428  1037.24803    -0.00173     0.00200     0.00200
  Kinetic  7304.47029  7304.47031  7345.28748    -0.00126    -0.04833    -0.04832
  Fock        0.00000     0.00000     0.00000     0.00000     0.00000     0.00000
  vdW       -21.21955   -21.21957   -15.97326    -0.00018    -0.00028    -0.00028
  -------------------------------------------------------------------------------------
  Total     -31.27168   -31.27168    -4.35108     0.00320    -0.04026    -0.04026
  in kB     -32.73278   -32.73279    -4.55437     0.00335    -0.04214    -0.04214
  external pressure =      -23.34 kB  Pullay stress =        0.00 kB


 VOLUME and BASIS-vectors are now :
 -----------------------------------------------------------------------------
  energy-cutoff  :      600.00
  volume of cell :     1530.66
      direct lattice vectors                 reciprocal lattice vectors
     8.467142631  0.000000000  0.000000000     0.118103597  0.000000000  0.000000000
     0.000000000  8.467142631  0.000000000     0.000000000  0.118103597  0.000000000
     0.000000000  0.000000000 21.350356973     0.000000000  0.000000000  0.046837624

  length of vectors
     8.467142631  8.467142631 21.350356973     0.118103597  0.118103597  0.046837624


 FORCES acting on ions:
    Electron-Ion                     Ewald-Force                    Non-Local-Force
 -----------------------------------------------------------------------------------------------
   -.120E+00 0.114E+00 0.205E+04   0.119E+00 -.112E+00 -.205E+04   0.101E-02 -.129E-02 -.714E+01
   -.114E+00 -.153E+00 0.205E+04   0.113E+00 0.155E+00 -.205E+04   0.121E-02 -.157E-02 -.714E+01
   -.723E+00 -.723E+00 0.681E+03   0.733E+00 0.733E+00 -.681E+03   -.671E-02 -.671E-02 0.465E+00
   -.706E+00 0.254E+00 0.679E+03   0.715E+00 -.252E+00 -.680E+03   -.632E-02 -.121E-02 0.445E+00
   -.112E+01 0.110E+01 -.681E+03   0.120E+01 -.117E+01 0.682E+03   -.556E-01 0.537E-01 -.233E+00
   -.125E+01 -.253E+01 -.683E+03   0.132E+01 0.268E+01 0.683E+03   -.543E-01 -.147E+00 -.299E+00
   -.164E+01 -.164E+01 -.204E+04   0.126E+01 0.126E+01 0.203E+04   0.320E+00 0.320E+00 0.635E+01
   -.218E+01 0.663E+01 -.204E+04   0.181E+01 -.688E+01 0.203E+04   0.308E+00 0.554E-01 0.628E+01
   -.153E+00 -.114E+00 0.205E+04   0.155E+00 0.113E+00 -.205E+04   -.157E-02 0.121E-02 -.714E+01
   -.147E+00 0.153E+00 0.205E+04   0.149E+00 -.155E+00 -.205E+04   -.175E-02 0.174E-02 -.714E+01
   -.275E+00 0.739E+00 0.680E+03   0.277E+00 -.747E+00 -.680E+03   -.217E-02 0.559E-02 0.445E+00
   -.275E+00 -.275E+00 0.676E+03   0.269E+00 0.269E+00 -.677E+03   0.292E-02 0.292E-02 0.649E+00
   -.253E+01 -.125E+01 -.683E+03   0.268E+01 0.132E+01 0.683E+03   -.147E+00 -.543E-01 -.299E+00
   -.319E+01 0.321E+01 -.690E+03   0.329E+01 -.332E+01 0.690E+03   -.110E+00 0.118E+00 -.329E+00
   -.666E+01 0.215E+01 -.204E+04   0.690E+01 -.179E+01 0.203E+04   -.485E-01 -.305E+00 0.628E+01
   -.114E+02 -.114E+02 -.206E+04   0.113E+02 0.113E+02 0.205E+04   0.343E+00 0.343E+00 0.675E+01
   0.121E+00 0.147E+00 0.205E+04   -.119E+00 -.149E+00 -.205E+04   -.121E-02 0.125E-02 -.714E+01
   0.114E+00 -.120E+00 0.205E+04   -.112E+00 0.119E+00 -.205E+04   -.129E-02 0.101E-02 -.714E+01
   0.739E+00 -.275E+00 0.680E+03   -.747E+00 0.277E+00 -.680E+03   0.559E-02 -.217E-02 0.445E+00
   0.705E+00 0.705E+00 0.681E+03   -.710E+00 -.710E+00 -.681E+03   0.356E-02 0.356E-02 0.461E+00
   0.128E+01 0.251E+01 -.683E+03   -.135E+01 -.266E+01 0.683E+03   0.556E-01 0.138E+00 -.303E+00
   0.110E+01 -.112E+01 -.681E+03   -.117E+01 0.120E+01 0.682E+03   0.537E-01 -.556E-01 -.233E+00
   0.215E+01 -.666E+01 -.204E+04   -.179E+01 0.690E+01 0.203E+04   -.305E+00 -.485E-01 0.628E+01
   0.167E+01 0.167E+01 -.204E+04   -.129E+01 -.129E+01 0.203E+04   -.324E+00 -.324E+00 0.636E+01
   0.153E+00 -.147E+00 0.205E+04   -.155E+00 0.149E+00 -.205E+04   0.174E-02 -.176E-02 -.714E+01
   0.147E+00 0.121E+00 0.205E+04   -.149E+00 -.119E+00 -.205E+04   0.125E-02 -.121E-02 -.714E+01
   0.308E+00 0.308E+00 0.677E+03   -.300E+00 -.300E+00 -.677E+03   -.414E-02 -.414E-02 0.647E+00
   0.254E+00 -.706E+00 0.679E+03   -.252E+00 0.715E+00 -.680E+03   -.121E-02 -.632E-02 0.445E+00
   0.321E+01 -.319E+01 -.690E+03   -.332E+01 0.329E+01 0.690E+03   0.118E+00 -.110E+00 -.329E+00
   0.251E+01 0.128E+01 -.683E+03   -.266E+01 -.135E+01 0.683E+03   0.138E+00 0.556E-01 -.303E+00
   0.114E+02 0.114E+02 -.206E+04   -.113E+02 -.113E+02 0.205E+04   -.350E+00 -.350E+00 0.675E+01
   0.663E+01 -.218E+01 -.204E+04   -.688E+01 0.181E+01 0.203E+04   0.554E-01 0.308E+00 0.628E+01
   -.365E+00 0.352E+00 0.510E+03   0.366E+00 -.357E+00 -.510E+03   -.126E-02 0.670E-02 -.802E-01
   -.358E+00 -.565E+00 0.509E+03   0.361E+00 0.529E+00 -.508E+03   -.385E-02 0.490E-01 -.106E+00
   -.118E+00 -.118E+00 0.154E+04   0.118E+00 0.118E+00 -.155E+04   -.429E-03 -.429E-03 0.341E+01
   -.114E+00 0.762E-01 0.154E+04   0.114E+00 -.754E-01 -.155E+04   -.725E-04 -.109E-02 0.341E+01
   -.150E+01 0.149E+01 -.155E+04   0.172E+01 -.170E+01 0.155E+04   -.262E+00 0.259E+00 -.495E+01
   -.187E+01 -.400E+01 -.155E+04   0.207E+01 0.399E+01 0.155E+04   -.245E+00 0.128E+00 -.446E+01
   -.911E+00 -.911E+00 -.504E+03   0.895E+00 0.895E+00 0.504E+03   0.199E-01 0.199E-01 0.454E+00
   -.100E+01 0.152E+01 -.505E+03   0.988E+00 -.163E+01 0.505E+03   0.190E-01 0.186E+00 0.413E+00
   -.565E+00 -.358E+00 0.509E+03   0.529E+00 0.361E+00 -.508E+03   0.490E-01 -.385E-02 -.106E+00
   -.552E+00 0.574E+00 0.508E+03   0.507E+00 -.534E+00 -.508E+03   0.609E-01 -.553E-01 -.938E-01
   -.809E-01 0.118E+00 0.154E+04   0.802E-01 -.119E+00 -.155E+04   0.991E-03 0.547E-03 0.341E+01
   -.763E-01 -.763E-01 0.154E+04   0.757E-01 0.757E-01 -.155E+04   0.781E-03 0.779E-03 0.341E+01
   -.400E+01 -.187E+01 -.155E+04   0.399E+01 0.207E+01 0.155E+04   0.128E+00 -.245E+00 -.446E+01
   -.783E+01 0.775E+01 -.155E+04   0.801E+01 -.792E+01 0.155E+04   0.863E-02 -.164E-01 -.425E+01
   -.156E+01 0.102E+01 -.505E+03   0.168E+01 -.101E+01 0.505E+03   -.188E+00 -.212E-01 0.412E+00
   -.196E+01 -.196E+01 -.520E+03   0.203E+01 0.203E+01 0.520E+03   -.127E+00 -.127E+00 -.205E+00
   0.383E+00 0.560E+00 0.509E+03   -.390E+00 -.529E+00 -.508E+03   0.841E-02 -.425E-01 -.102E+00
   0.352E+00 -.365E+00 0.510E+03   -.357E+00 0.366E+00 -.510E+03   0.670E-02 -.126E-02 -.802E-01
   0.118E+00 -.809E-01 0.154E+04   -.119E+00 0.802E-01 -.155E+04   0.548E-03 0.990E-03 0.341E+01
   0.113E+00 0.113E+00 0.154E+04   -.113E+00 -.113E+00 -.155E+04   0.276E-03 0.276E-03 0.341E+01
   0.187E+01 0.403E+01 -.154E+04   -.207E+01 -.400E+01 0.155E+04   0.245E+00 -.139E+00 -.446E+01
   0.149E+01 -.150E+01 -.155E+04   -.170E+01 0.172E+01 0.155E+04   0.259E+00 -.262E+00 -.495E+01
   0.102E+01 -.156E+01 -.505E+03   -.101E+01 0.168E+01 0.505E+03   -.212E-01 -.188E+00 0.412E+00
   0.887E+00 0.887E+00 -.504E+03   -.873E+00 -.873E+00 0.504E+03   -.186E-01 -.186E-01 0.453E+00
   0.574E+00 -.552E+00 0.508E+03   -.534E+00 0.507E+00 -.508E+03   -.553E-01 0.609E-01 -.938E-01
   0.560E+00 0.383E+00 0.509E+03   -.529E+00 -.390E+00 -.508E+03   -.425E-01 0.841E-02 -.102E+00
   0.806E-01 0.806E-01 0.154E+04   -.804E-01 -.804E-01 -.155E+04   -.265E-03 -.267E-03 0.341E+01
   0.762E-01 -.114E+00 0.154E+04   -.754E-01 0.114E+00 -.155E+04   -.109E-02 -.758E-04 0.341E+01
   0.775E+01 -.783E+01 -.155E+04   -.792E+01 0.801E+01 0.155E+04   -.164E-01 0.863E-02 -.425E+01
   0.403E+01 0.187E+01 -.154E+04   -.400E+01 -.207E+01 0.155E+04   -.139E+00 0.245E+00 -.446E+01
   0.199E+01 0.199E+01 -.519E+03   -.206E+01 -.206E+01 0.519E+03   0.125E+00 0.125E+00 -.180E+00
   0.152E+01 -.100E+01 -.505E+03   -.163E+01 0.988E+00 0.505E+03   0.186E+00 0.190E-01 0.413E+00
 -----------------------------------------------------------------------------------------------
   0.154E-01 0.154E-01 0.117E+02   0.485E-12 -.169E-12 -.227E-11   -.145E-01 -.146E-01 -.117E+02


 POSITION                                       TOTAL-FORCE (eV/Angst)
 -----------------------------------------------------------------------------------
      2.11679      0.00000      7.50000        -0.000365      0.000411      0.384184
      4.23357      2.11679      7.50000        -0.000421      0.000279      0.383971
      2.11679      2.11679      9.61679         0.002965      0.002964      0.049062
      4.23357      0.00000      9.61679         0.002899      0.001799      0.071350
      2.11744      0.00008     11.74390         0.020927     -0.021316     -0.061842
      4.23384      2.12073     11.74845         0.022007      0.007904     -0.111613
      2.11369      2.11369     13.84335        -0.055625     -0.055623     -0.064588
      4.23090      0.01413     13.84167        -0.055129     -0.190204     -0.029944
      2.11679      4.23357      7.50000         0.000283     -0.000427      0.383968
      4.23357      6.35036      7.50000         0.000324     -0.000366      0.383098
      2.11679      6.35036      9.61679        -0.000218     -0.002412      0.071157
      4.23357      4.23357      9.61679        -0.003315     -0.003314      0.075314
      2.12073      4.23384     11.74845         0.007903      0.022008     -0.111614
      4.23864      6.34587     11.74470        -0.005046      0.004080      0.114792
      2.10384      6.35412     13.84167         0.189883      0.054928     -0.030597
      4.21413      4.21413     13.89781         0.242839      0.242842     -0.388409
      6.35036      0.00000      7.50000         0.000376     -0.000218      0.383817
      0.00000      2.11679      7.50000         0.000418     -0.000367      0.384187
      6.35036      2.11679      9.61679        -0.002413     -0.000218      0.071158
      0.00000      0.00000      9.61679        -0.001580     -0.001580      0.048727
      6.35068      8.46418     11.74812        -0.021665     -0.007588     -0.111807
      0.00008      2.11744     11.74390        -0.021316      0.020926     -0.061843
      6.35412      2.10384     13.84167         0.054928      0.189878     -0.030598
      0.00433      0.00433     13.84305         0.055142      0.055149     -0.064670
      6.35036      4.23357      7.50000        -0.000362      0.000326      0.383095
      0.00000      6.35036      7.50000        -0.000214      0.000370      0.383810
      6.35036      6.35036      9.61679         0.004075      0.004077      0.074457
      0.00000      4.23357      9.61679         0.001798      0.002900      0.071351
      6.34587      4.23864     11.74470         0.004079     -0.005045      0.114792
      8.46418      6.35068     11.74812        -0.007588     -0.021666     -0.111807
      6.37157      6.37157     13.89553        -0.246739     -0.246740     -0.376573
      0.01413      4.23090     13.84167        -0.190205     -0.055131     -0.029946
      2.11679      0.00000      9.61679        -0.000280      0.001582      0.060879
      4.23357      2.11679      9.61679        -0.000894      0.012848      0.076664
      2.11679      2.11679      7.50000        -0.000152     -0.000152     -0.462715
      4.23357      0.00000      7.50000        -0.000046     -0.000322     -0.461741
      2.11515      0.00274     13.88869        -0.044082      0.043807      0.022176
      4.23208      2.10624     13.88332        -0.040605      0.108033      0.152579
      2.11718      2.11718     11.73516         0.004177      0.004179      0.032006
      4.23415      8.46335     11.73737         0.004901      0.073745     -0.005916
      2.11679      4.23357      9.61679         0.012844     -0.000893      0.076663
      4.23357      6.35036      9.61679         0.015794     -0.014386      0.062019
      2.11679      6.35036      7.50000         0.000273      0.000162     -0.461739
      4.23357      4.23357      7.50000         0.000209      0.000209     -0.462168
      2.10624      4.23208     13.88332         0.108034     -0.040607      0.152578
      4.21597      6.36925     13.90143         0.187327     -0.187702      0.120183
      2.12134      6.35035     11.73733        -0.073924     -0.004780     -0.005948
      4.23680      4.23680     11.75177        -0.055989     -0.055991     -0.020340
      6.35036      0.00000      9.61679         0.001977     -0.011366      0.076208
      0.00000      2.11679      9.61679         0.001584     -0.000278      0.060880
      6.35036      2.11679      7.50000         0.000165      0.000273     -0.461741
      0.00000      0.00000      7.50000         0.000086      0.000085     -0.462612
      6.35300      0.01199     13.88249         0.040633     -0.111166      0.154284
      0.00274      2.11515     13.88869         0.043803     -0.044082      0.022173
      6.35035      2.12134     11.73733        -0.004780     -0.073926     -0.005946
      0.00031      0.00031     11.73497        -0.004299     -0.004295      0.032050
      6.35036      4.23357      9.61679        -0.014386      0.015792      0.062021
      0.00000      6.35036      9.61679        -0.011369      0.001981      0.076206
      6.35036      6.35036      7.50000        -0.000081     -0.000078     -0.462051
      0.00000      4.23357      7.50000        -0.000322     -0.000048     -0.461740
      6.36925      4.21597     13.90143        -0.187703      0.187327      0.120183
      0.01199      6.35300     13.88249        -0.111168      0.040632      0.154286
      6.34784      6.34784     11.75140         0.055885      0.055890     -0.019903
      8.46335      4.23415     11.73737         0.073741      0.004904     -0.005915
 -----------------------------------------------------------------------------------
    total drift:                                0.000851      0.000817      0.029170


--------------------------------------------------------------------------------------------------------



  FREE ENERGIE OF THE ION-ELECTRON SYSTEM (eV)
  ---------------------------------------------------
  free  energy   TOTEN  =      -371.09632509 eV

  energy  without entropy=     -371.09632509  energy(sigma->0) =     -371.09632509



--------------------------------------------------------------------------------------------------------


    POTLOK:  cpu time      0.3554: real time      0.3554


--------------------------------------------------------------------------------------------------------


     LOOP+:  cpu time     88.3889: real time     88.7182
    4ORBIT:  cpu time      0.0000: real time      0.0000

 total amount of memory used by VASP MPI-rank0    60692. kBytes
=======================================================================

   base      :      30000. kBytes
   nonl-proj :      11997. kBytes
   fftplans  :       4925. kBytes
   grid      :       7379. kBytes
   one-center:         64. kBytes
   wavefun   :       6327. kBytes

  
  
 General timing and accounting informations for this job:
 ========================================================
  
                  Total CPU time used (sec):      125.245
                            User time (sec):      123.293
                          System time (sec):        1.952
                         Elapsed time (sec):      138.147
  
                   Maximum memory used (kb):      157172.
                   Average memory used (kb):          N/A
  
                          Minor page faults:        33781
                          Major page faults:           52
                 Voluntary context switches:        12981
