 **********************************************************************
                          MRCC program system
 **********************************************************************
 
                              Written by
     Mihaly Kallay, Peter R. Nagy, David Mester, Laszlo Gyevi-Nagy,
        Jozsef Csoka, P. Bernat Szabo, Zoltan Rolik, Gyula Samu,
     Jozsef Csontos, Bence Hegely, Adam Ganyecz, Istvan Ladjanszki,
       Lorant Szegedy, Bence Ladoczki, Klara Petrov, Mate Farkas,
                    Pal D. Mezei, and Reka A. Horvath
 
        Department of Physical Chemistry and Materials Science
            Budapest University of Technology and Economics
                  Budapest P.O.Box 91, H-1521 Hungary
 
                              www.mrcc.hu
 
                      Release date: March 18, 2022

 ************************ 2023-02-04 11:56:52 *************************
 Executing minp...

 Reading input from MINP...
 
 Input file:
 
calc=FNO-CCSD(T)
verbosity=3
mem=220GB
unit=angs
scfiguess=small
scfalg=locfit1
ccmaxit=400
ccsdalg=dfdirect
ccsdthreads=4
ccsdmkl=thr
ptthreads=4
lnoepsv=1e-5
naf_cor=1e-2
basis=aug-cc-pVQZ
basis_sm=def2-SVP
dfbasis_scf=def2-QZVPP-RI-JK
dfbasis_cor=aug-cc-pVQZ-RI
unit=angs
geom=xyz
10

C    29.54344629    29.54344629    16.97505516
H    29.54344670    30.44187631    17.60392580
H    29.54344662    28.64496649    17.60393442
H    30.44658454    29.54342777    16.34911135
H    28.64030918    29.54342779    16.34911130
C    21.10243117    25.32292238    16.97524142
H    21.10244979    26.22572171    16.34882843
H    20.20393929    25.32292262    17.60416815
H    22.00097302    25.32292258    17.60417697
H    21.10244972    24.42012416    16.34882759

--------------------Output has been truncated-------------------------


--------------------Output has been truncated-------------------------


--------------------Output has been truncated-------------------------


--------------------Output has been truncated-------------------------


--------------------Output has been truncated-------------------------


--------------------Output has been truncated-------------------------


--------------------Output has been truncated-------------------------


--------------------Output has been truncated-------------------------


--------------------Output has been truncated-------------------------


--------------------Output has been truncated-------------------------


 
 Reference energy [au]:                       -40.215614218668
 DF-MP2 singlet pair energy [au]:              -0.173753038242
 DF-MP2 triplet pair energy [au]:              -0.037498378671
 DF-SCS-MP2 correlation energy [au]:           -0.221003105447
 DF-SCS-MP2 energy [au]:                      -40.436617324115
 DF-SOS-MP2 correlation energy [au]:           -0.225878949714
 DF-SOS-MP2 energy [au]:                      -40.441493168383
 DF-MP2 correlation energy [au]:               -0.211251416912
 DF-MP2 energy [au]:                          -40.426865635581

 Results in FNO basis:
 
 
 Reference energy [au]:                       -40.215614218668
 DF-MP2 singlet pair energy [au]:              -0.170618278847
 DF-MP2 triplet pair energy [au]:              -0.037357069720
 DF-SCS-MP2 correlation energy [au]:           -0.217194291190
 DF-SCS-MP2 energy [au]:                      -40.432808509858
 DF-SOS-MP2 correlation energy [au]:           -0.221803762501
 DF-SOS-MP2 energy [au]:                      -40.437417981169
 DF-MP2 correlation energy [au]:               -0.207975348567
 DF-MP2 energy [au]:                          -40.423589567235

 Results in NAF basis:
 
 
 Reference energy [au]:                       -40.215614218668
 DF-MP2 singlet pair energy [au]:              -0.170600685978
 DF-MP2 triplet pair energy [au]:              -0.037363745232
 DF-SCS-MP2 correlation energy [au]:           -0.217175404918
 DF-SCS-MP2 energy [au]:                      -40.432789623586
 DF-SOS-MP2 correlation energy [au]:           -0.221780891772
 DF-SOS-MP2 energy [au]:                      -40.437395110440
 DF-MP2 correlation energy [au]:               -0.207964431211
 DF-MP2 energy [au]:                          -40.423578649879

 ************************ 2023-02-04 11:57:29 *************************
 Executing ccsd...

 Allocation of 220.0 Gbytes of memory...

 Direct DF-CCSD(T) calculation
 
 Convergence criterion:  1.0E-06
 
 Number of occupied/virtual/auxiliary orbitals:     4   101   320
    163.36 MB is the minimal memory requirement for (T)
     39.40 MB is the minimal memory requirement for CCSD
 
 Reference energy [au]:             -40.215614218668
 T1 contribution [au]:                0.000000000000
 Same spin MP2 energy [au]:          -0.037360403022
 Opposite spin MP2 energy [au]:      -0.170609472593
 MP2 correlation energy [au]:        -0.207969875614
 Total MP2 energy [au]:             -40.423584094283
 MP2 correction [au]:                -0.003281541298
 
 
 CPU time [min]:     0.174                   Wall time [min]:     0.008
 
 Starting CCSD iterations...
 
                     Residual norm          Energy
 Iteration  1        0.138680827730      -40.436529039628
 Iteration  2        0.035376083073      -40.442052589106
 Iteration  3        0.009771749367      -40.442635310788
 Iteration  4        0.002020927313      -40.442639810081
 Iteration  5        0.000374897988      -40.442646320917
 Iteration  6        0.000084797855      -40.442646197678
 Iteration  7        0.000020223496      -40.442646887709
 Iteration  8        0.000003738681      -40.442646944658
 
 CCSD iteration has converged in  8 steps.
      444.29 MB memory was utilized by CCSD
 
 T1 diagnostic:      7.996E-03            D1 diagnostic:      1.292E-02
 
 T1 contribution [au]:                                  0.000000000000
 PPL energy contribution [au]:                          0.060602234783
 Scaled PPL energy contribution [au]:                   0.061559065292

 OS-PPL energy contribution [au]:                       0.053773738903
 Scaled OS-PPL energy contribution [au]:                0.054766828196
 SS-PPL energy contribution [au]:                       0.006828495879
 Scaled SS-PPL energy contribution [au]:                0.006852798849

 Opposite spin CCSD energy [au]:                       -0.191003466778
 Same spin CCSD energy [au]:                           -0.036036035993
 CCSD correlation energy [au]:                         -0.227039502770
 CCSD correlation energy + MP2 correction [au]:        -0.230321044069
 CCSD correlation energy + MP2 + PPL corr. [au]:       -0.229364213559
 Total CCSD energy [au]:                              -40.442653721439
 Total CCSD energy + MP2 correction [au]:             -40.445935262737
 Total CCSD energy + MP2 + PPL corr. [au]:            -40.444978432227
 
 CPU time [min]:     0.890                   Wall time [min]:     0.028
 
 Calculation of (T) correction...
 
 
      124.68 MB memory is utilized for (T)

 0%       25%       50%       75%       100%
 |---------|---------|---------|---------| 
 
 (T) correction [au]:                                    -0.006941739312
 (T*) correction [au]:                                   -0.007051272503
 (T+) correction [au]:                                   -0.007050866197
 CCSD(T) correlation energy [au]:                        -0.233981242082
 CCSD(T) correlation energy + MP2 correction [au]:       -0.237262783380
 CCSD(T+) correlation en. + MP2 + PPL corr. [au]:        -0.236415079756
 Total CCSD(T) energy [au]:                             -40.449595460750
 Total CCSD(T) energy + MP2 correction [au]:            -40.452877002048
 Total CCSD(T+) energy + MP2 + PPL corr. [au]:          -40.452029298424
 
 CPU time [min]:     0.976                   Wall time [min]:     0.031
 
 ************************ 2023-02-04 11:57:31 *************************
                      Normal termination of mrcc.
 **********************************************************************
