 vasp.6.3.0 20Jan22 (build Apr  1 2022 16:44:48) complex                         
 executed on        HPECrayEX_GCC date 2023.01.26  19:12:01
 running  512 mpi-ranks, with    1 threads/rank
 distrk:  each k-point on  512 cores,    1 groups
 distr:  one band on NCORE=   8 cores,   64 groups


--------------------------------------------------------------------------------------------------------


 INCAR:
   SYSTEM = MgO-rocksalt
   ISMEAR = 0
   SIGMA = 0.05
   EDIFF = 1E-6
   ALGO = ALL
   ISTART = 0
   IBRION = -1
   NSW = 0
   ISYM = 0
   DIPOL = 0.5 0.5 0.5
   IDIPOL = 3
   LDIPOL = .TRUE.
   LHFCALC = .TRUE.
   GGA = B5
   AEXX = 0.2
   AGGAX = 0.72
   AGGAC = 0.81
   ALDAC = 0.19
   IVDW = 1
   VDW_S6 = 1.05
   VDW_C6 = 1.23 0.70 0.63 0.70
   VDW_R0 = 1.397 1.342 1.243 1.342
   ENCUT = 600
   PREC = Accurate
   LASPH = .TRUE.
   LREAL = .FALSE.
   ISPIN = 1
   NELM = 200
   NELMIN = 8
   NCORE = 8
   KPAR = 1
   LWAVE = .FALSE.
   LCHARG = .FALSE.

 POTCAR:    PAW_PBE N 08Apr2002                   
 POTCAR:    PAW_PBE O 08Apr2002                   
 POTCAR:    PAW_PBE Mg_pv 13Apr2007               
 POTCAR:    PAW_PBE O 08Apr2002                   
 POTCAR:    PAW_PBE N 08Apr2002                   
   SHA256 =  e053789ff3a61a86a1b75d8a110fcc91f86041011e7b0817c7c99e4e8a6349d7 N/POTCAR              
   COPYR  = (c) Copyright 08Apr2002 Georg Kresse                                                    
   COPYR  = This file is part of the software VASP. Any use, copying, and all other rights are regul
   COPYR  = If you do not have a valid VASP license, you may not use, copy or distribute this file. 
   VRHFIN =N: s2p3                                                                                  
   LEXCH  = PE                                                                                      
   EATOM  =   264.5486 eV,   19.4438 Ry                                                             
                                                                                                    
   TITEL  = PAW_PBE N 08Apr2002                                                                     
   LULTRA =        F    use ultrasoft PP ?                                                          
   IUNSCR =        1    unscreen: 0-lin 1-nonlin 2-no                                               
   RPACOR =    1.200    partial core radius                                                         
   POMASS =   14.001; ZVAL   =    5.000    mass and valenz                                          
   RCORE  =    1.500    outmost cutoff radius                                                       
   RWIGS  =    1.400; RWIGS  =    0.741    wigner-seitz radius (au A)                               
   ENMAX  =  400.000; ENMIN  =  300.000 eV                                                          
   ICORE  =        2    local potential                                                             
   LCOR   =        T    correct aug charges                                                         
   LPAW   =        T    paw PP                                                                      
   EAUG   =  627.112                                                                                
   DEXC   =    0.000                                                                                
   RMAX   =    1.529    core radius for proj-oper                                                   
   RAUG   =    1.300    factor for augmentation sphere                                              
   RDEP   =    1.514    radius for radial grids                                                     
   RDEPT  =    1.338    core radius for aug-charge                                                  
                                                                                                    
   Atomic configuration                                                                             
    4 entries                                                                                       
     n  l   j            E        occ.                                                              
     1  0  0.50      -384.7179   2.0000                                                             
     2  0  0.50       -18.5828   2.0000                                                             
     2  1  0.50        -7.0898   3.0000                                                             
     3  2  1.50        -6.8029   0.0000                                                             
   Description                                                                                      
     l       E           TYP  RCUT    TYP  RCUT                                                     
     0    -18.5828119     23  1.200                                                                 
     0    -13.5018863     23  1.200                                                                 
     1     -7.0897853     23  1.500                                                                 
     1      9.5240782     23  1.500                                                                 
     2     -6.8029130      7  1.500                                                                 
  local pseudopotential read in
  partial core-charges read in
  partial kinetic energy density read in
  atomic valenz-charges read in
  non local Contribution for L=           0  read in
    real space projection operators read in
  non local Contribution for L=           0  read in
    real space projection operators read in
  non local Contribution for L=           1  read in
    real space projection operators read in
  non local Contribution for L=           1  read in
    real space projection operators read in
    PAW grid and wavefunctions read in

   number of l-projection  operators is LMAX  =           4
   number of lm-projection operators is LMMAX =           8

 POTCAR:    PAW_PBE O 08Apr2002                   
   SHA256 =  818f92134a0a090dccd8ba1447fa70422a3b330e708bb4f08108d8ae51209ddf O/POTCAR              
   COPYR  = (c) Copyright 08Apr2002 Georg Kresse                                                    
   COPYR  = This file is part of the software VASP. Any use, copying, and all other rights are regul
   COPYR  = If you do not have a valid VASP license, you may not use, copy or distribute this file. 
   VRHFIN =O: s2p4                                                                                  
   LEXCH  = PE                                                                                      
   EATOM  =   432.3788 eV,   31.7789 Ry                                                             
                                                                                                    
   TITEL  = PAW_PBE O 08Apr2002                                                                     
   LULTRA =        F    use ultrasoft PP ?                                                          
   IUNSCR =        1    unscreen: 0-lin 1-nonlin 2-no                                               
   RPACOR =    1.200    partial core radius                                                         
   POMASS =   16.000; ZVAL   =    6.000    mass and valenz                                          
   RCORE  =    1.520    outmost cutoff radius                                                       
   RWIGS  =    1.550; RWIGS  =    0.820    wigner-seitz radius (au A)                               
   ENMAX  =  400.000; ENMIN  =  300.000 eV                                                          
   ICORE  =        2    local potential                                                             
   LCOR   =        T    correct aug charges                                                         
   LPAW   =        T    paw PP                                                                      
   EAUG   =  605.392                                                                                
   DEXC   =    0.000                                                                                
   RMAX   =    1.553    core radius for proj-oper                                                   
   RAUG   =    1.300    factor for augmentation sphere                                              
   RDEP   =    1.550    radius for radial grids                                                     
   RDEPT  =    1.329    core radius for aug-charge                                                  
                                                                                                    
   Atomic configuration                                                                             
    4 entries                                                                                       
     n  l   j            E        occ.                                                              
     1  0  0.50      -514.6923   2.0000                                                             
     2  0  0.50       -23.9615   2.0000                                                             
     2  1  0.50        -9.0305   4.0000                                                             
     3  2  1.50        -9.5241   0.0000                                                             
   Description                                                                                      
     l       E           TYP  RCUT    TYP  RCUT                                                     
     0    -23.9615318     23  1.200                                                                 
     0     -9.5240782     23  1.200                                                                 
     1     -9.0304911     23  1.520                                                                 
     1      8.1634956     23  1.520                                                                 
     2     -9.5240782      7  1.500                                                                 
  local pseudopotential read in
  partial core-charges read in
  partial kinetic energy density read in
  kinetic energy density of atom read in
  atomic valenz-charges read in
  non local Contribution for L=           0  read in
    real space projection operators read in
  non local Contribution for L=           0  read in
    real space projection operators read in
  non local Contribution for L=           1  read in
    real space projection operators read in
  non local Contribution for L=           1  read in
    real space projection operators read in
    PAW grid and wavefunctions read in

   number of l-projection  operators is LMAX  =           4
   number of lm-projection operators is LMMAX =           8

 POTCAR:    PAW_PBE Mg_pv 13Apr2007               
   SHA256 =  f474ac0dd33840b9ae76c01d57fea79fdf77cdfbb07d5ade72c65f83c709b62b Mg_pv/POTCAR          
   COPYR  = (c) Copyright 13Apr2007 Georg Kresse                                                    
   COPYR  = This file is part of the software VASP. Any use, copying, and all other rights are regul
   COPYR  = If you do not have a valid VASP license, you may not use, copy or distribute this file. 
   VRHFIN =Mg: p6s2                                                                                 
   LEXCH  = PE                                                                                      
   EATOM  =  1056.7344 eV,   77.6678 Ry                                                             
                                                                                                    
   TITEL  = PAW_PBE Mg_pv 13Apr2007                                                                 
   LULTRA =        F    use ultrasoft PP ?                                                          
   IUNSCR =        1    unscreen: 0-lin 1-nonlin 2-no                                               
   RPACOR =    1.500    partial core radius                                                         
   POMASS =   24.305; ZVAL   =    8.000    mass and valenz                                          
   RCORE  =    2.000    outmost cutoff radius                                                       
   RWIGS  =    2.000; RWIGS  =    1.058    wigner-seitz radius (au A)                               
   ENMAX  =  403.929; ENMIN  =  302.947 eV                                                          
   RCLOC  =    1.506    cutoff for local pot                                                        
   LCOR   =        T    correct aug charges                                                         
   LPAW   =        T    paw PP                                                                      
   EAUG   =  758.780                                                                                
   DEXC   =    0.000                                                                                
   RMAX   =    2.045    core radius for proj-oper                                                   
   RAUG   =    1.300    factor for augmentation sphere                                              
   RDEP   =    2.025    radius for radial grids                                                     
   RDEPT  =    1.557    core radius for aug-charge                                                  
                                                                                                    
   Atomic configuration                                                                             
    5 entries                                                                                       
     n  l   j            E        occ.                                                              
     1  0  0.50     -1259.6230   2.0000                                                             
     2  0  0.50       -79.8442   2.0000                                                             
     2  1  1.50       -46.6121   6.0000                                                             
     3  0  0.50        -4.7055   2.0000                                                             
     3  2  1.50        -1.3606   0.0000                                                             
   Description                                                                                      
     l       E           TYP  RCUT    TYP  RCUT                                                     
     1    -46.6121073     23  1.600                                                                 
     1      2.7211652     23  1.600                                                                 
     0     -4.7054661     23  2.000                                                                 
     0     61.2262170     23  2.000                                                                 
     2     -1.3605826     23  2.000                                                                 
  local pseudopotential read in
  partial core-charges read in
  partial kinetic energy density read in
  atomic valenz-charges read in
  non local Contribution for L=           1  read in
    real space projection operators read in
  non local Contribution for L=           1  read in
    real space projection operators read in
  non local Contribution for L=           0  read in
    real space projection operators read in
  non local Contribution for L=           0  read in
    real space projection operators read in
  non local Contribution for L=           2  read in
    real space projection operators read in
    PAW grid and wavefunctions read in

   number of l-projection  operators is LMAX  =           5
   number of lm-projection operators is LMMAX =          13

 POTCAR:    PAW_PBE O 08Apr2002                   
   SHA256 =  818f92134a0a090dccd8ba1447fa70422a3b330e708bb4f08108d8ae51209ddf O/POTCAR              
   COPYR  = (c) Copyright 08Apr2002 Georg Kresse                                                    
   COPYR  = This file is part of the software VASP. Any use, copying, and all other rights are regul
   COPYR  = If you do not have a valid VASP license, you may not use, copy or distribute this file. 
   VRHFIN =O: s2p4                                                                                  
   LEXCH  = PE                                                                                      
   EATOM  =   432.3788 eV,   31.7789 Ry                                                             
                                                                                                    
   TITEL  = PAW_PBE O 08Apr2002                                                                     
   LULTRA =        F    use ultrasoft PP ?                                                          
   IUNSCR =        1    unscreen: 0-lin 1-nonlin 2-no                                               
   RPACOR =    1.200    partial core radius                                                         
   POMASS =   16.000; ZVAL   =    6.000    mass and valenz                                          
   RCORE  =    1.520    outmost cutoff radius                                                       
   RWIGS  =    1.550; RWIGS  =    0.820    wigner-seitz radius (au A)                               
   ENMAX  =  400.000; ENMIN  =  300.000 eV                                                          
   ICORE  =        2    local potential                                                             
   LCOR   =        T    correct aug charges                                                         
   LPAW   =        T    paw PP                                                                      
   EAUG   =  605.392                                                                                
   DEXC   =    0.000                                                                                
   RMAX   =    1.553    core radius for proj-oper                                                   
   RAUG   =    1.300    factor for augmentation sphere                                              
   RDEP   =    1.550    radius for radial grids                                                     
   RDEPT  =    1.329    core radius for aug-charge                                                  
                                                                                                    
   Atomic configuration                                                                             
    4 entries                                                                                       
     n  l   j            E        occ.                                                              
     1  0  0.50      -514.6923   2.0000                                                             
     2  0  0.50       -23.9615   2.0000                                                             
     2  1  0.50        -9.0305   4.0000                                                             
     3  2  1.50        -9.5241   0.0000                                                             
   Description                                                                                      
     l       E           TYP  RCUT    TYP  RCUT                                                     
     0    -23.9615318     23  1.200                                                                 
     0     -9.5240782     23  1.200                                                                 
     1     -9.0304911     23  1.520                                                                 
     1      8.1634956     23  1.520                                                                 
     2     -9.5240782      7  1.500                                                                 
  local pseudopotential read in
  partial core-charges read in
  partial kinetic energy density read in
  kinetic energy density of atom read in
  atomic valenz-charges read in
  non local Contribution for L=           0  read in
    real space projection operators read in
  non local Contribution for L=           0  read in
    real space projection operators read in
  non local Contribution for L=           1  read in
    real space projection operators read in
  non local Contribution for L=           1  read in
    real space projection operators read in
    PAW grid and wavefunctions read in

   number of l-projection  operators is LMAX  =           4
   number of lm-projection operators is LMMAX =           8

 -----------------------------------------------------------------------------
|                                                                             |
|               ----> ADVICE to this user running VASP <----                  |
|                                                                             |
|     You have a (more or less) 'large supercell' and for larger cells it     |
|     might be more efficient to use real-space projection operators.         |
|     Therefore, try LREAL= Auto in the INCAR file.                           |
|     Mind: For very accurate calculation, you might also keep the            |
|     reciprocal projection scheme (i.e. LREAL=.FALSE.).                      |
|                                                                             |
 -----------------------------------------------------------------------------

 -----------------------------------------------------------------------------
|                                                                             |
|               ----> ADVICE to this user running VASP <----                  |
|                                                                             |
|     You enforced a specific xc type in the INCAR file but a different       |
|     type was found in the POTCAR file.                                      |
|     I HOPE YOU KNOW WHAT YOU ARE DOING!                                     |
|                                                                             |
 -----------------------------------------------------------------------------

  PAW_PBE N 08Apr2002                   :
 energy of atom  1       EATOM= -264.5486
 kinetic energy error for atom=    0.0103 (will be added to EATOM!!)
  PAW_PBE O 08Apr2002                   :
 energy of atom  2       EATOM= -432.3788
 kinetic energy error for atom=    0.0168 (will be added to EATOM!!)
  PAW_PBE Mg_pv 13Apr2007               :
 energy of atom  3       EATOM=-1056.7344
 kinetic energy error for atom=    0.0221 (will be added to EATOM!!)
  PAW_PBE O 08Apr2002                   :
 energy of atom  4       EATOM= -432.3788
 kinetic energy error for atom=    0.0168 (will be added to EATOM!!)


 POSCAR:  N  O Mg  O
  positions in direct lattice
  No initial velocities read in
 exchange correlation table for  LEXCH =       12
   RHO(1)=    0.500       N(1)  =     2000
   RHO(2)=  100.500       N(2)  =     4000



--------------------------------------------------------------------------------------------------------


 ion  position               nearest neighbor table
   1  0.546  0.546  0.754-   3 1.18
   2  0.706  0.706  0.754-   4 1.18
   3  0.520  0.520  0.807-   1 1.18
   4  0.732  0.732  0.807-   2 1.18
   5  0.000  0.750  0.352-  37 2.11  39 2.11  40 2.11  47 2.11  56 2.11
   6  0.250  0.000  0.352-  38 2.11  39 2.11  40 2.11  48 2.11  55 2.11
   7  0.000  0.000  0.451-  39 2.11  38 2.11  37 2.11  45 2.11  54 2.11  43 2.12
   8  0.250  0.750  0.451-  40 2.11  38 2.11  37 2.11  46 2.11  53 2.11  44 2.12
   9  1.000  0.750  0.550-  43 2.11  60 2.11  51 2.11  44 2.12  37 2.13  41 2.14
  10  0.250  0.000  0.550-  52 2.11  43 2.11  59 2.11  44 2.11  38 2.12  42 2.15
  11  0.000  0.000  0.649-  49 2.11  42 2.11  58 2.11  41 2.11  43 2.11
  12  0.249  0.750  0.649-  41 2.09  57 2.11  44 2.11  42 2.11  50 2.11
  13  0.000  0.250  0.352-  45 2.11  39 2.11  47 2.11  48 2.11  64 2.11
  14  0.250  0.500  0.352-  46 2.11  40 2.11  47 2.11  48 2.11  63 2.11
  15  0.000  0.500  0.451-  47 2.11  45 2.11  46 2.11  37 2.11  62 2.11  51 2.12
  16  0.250  0.250  0.451-  48 2.11  45 2.11  46 2.11  38 2.11  61 2.11  52 2.12
  17  0.000  0.250  0.550-  52 2.11  43 2.11  51 2.11  68 2.11  45 2.12  49 2.15
  18  0.250  0.500  0.550-  52 2.11  67 2.11  44 2.11  51 2.12  46 2.13  50 2.14
  19  0.001  0.500  0.649-  50 2.09  66 2.11  51 2.11  49 2.11  41 2.11
  20  0.250  0.250  0.649-  49 2.11  42 2.11  50 2.11  65 2.11  52 2.11
  21  0.500  0.750  0.352-  53 2.11  40 2.11  55 2.11  56 2.11  63 2.11
  22  0.750  0.000  0.352-  54 2.11  39 2.11  55 2.11  56 2.11  64 2.11
  23  0.500  0.000  0.451-  55 2.11  53 2.11  54 2.11  38 2.11  61 2.11  59 2.12
  24  0.750  0.750  0.451-  56 2.11  53 2.11  54 2.11  37 2.11  62 2.11  60 2.13
  25  0.501  0.750  0.550-  67 2.10  60 2.10  44 2.11  59 2.11  53 2.12  57 2.16
  26  0.750  1.000  0.550-  43 2.11  60 2.11  59 2.11  68 2.12  54 2.13  58 2.14
  27  0.500  0.001  0.649-  65 2.09  57 2.11  59 2.11  42 2.11  58 2.11
  28  0.752  0.752  0.651-  41 2.10  58 2.10  60 2.14  66 2.14  57 2.14
  29  0.500  0.250  0.352-  61 2.11  55 2.11  48 2.11  63 2.11  64 2.11
  30  0.750  0.500  0.352-  62 2.11  56 2.11  47 2.11  63 2.11  64 2.11
  31  0.500  0.500  0.451-  63 2.11  53 2.11  61 2.11  62 2.11  46 2.11  67 2.13
  32  0.750  0.250  0.451-  64 2.11  54 2.11  61 2.11  62 2.11  45 2.11  68 2.12
  33  0.500  0.250  0.550-  52 2.11  67 2.11  68 2.11  59 2.12  61 2.13  65 2.14
  34  0.750  0.501  0.550-  67 2.10  60 2.10  68 2.11  51 2.11  62 2.12  66 2.16
  35  0.498  0.498  0.651-  65 2.10  50 2.10  67 2.14  66 2.14  57 2.14
  36  0.750  0.249  0.649-  58 2.09  66 2.11  68 2.11  49 2.11  65 2.11
  37  0.000  0.750  0.451-   5 2.11   7 2.11   8 2.11  15 2.11  24 2.11   9 2.13
  38  0.250  0.000  0.451-   6 2.11   7 2.11   8 2.11  16 2.11  23 2.11  10 2.12
  39  0.000  0.000  0.352-   7 2.11   6 2.11   5 2.11  13 2.11  22 2.11
  40  0.250  0.750  0.352-   8 2.11   6 2.11   5 2.11  14 2.11  21 2.11
  41  0.001  0.750  0.650-  12 2.09  28 2.10  11 2.11  19 2.11   9 2.14
  42  0.250  0.000  0.651-  11 2.11  20 2.11  12 2.11  27 2.11  10 2.15
  43  0.000  0.000  0.550-  10 2.11  17 2.11  26 2.11   9 2.11  11 2.11   7 2.12
  44  0.251  0.750  0.550-  12 2.11  25 2.11  10 2.11  18 2.11   9 2.12   8 2.12
  45  0.000  0.250  0.451-  13 2.11   7 2.11  15 2.11  16 2.11  32 2.11  17 2.12
  46  0.250  0.500  0.451-  14 2.11   8 2.11  15 2.11  16 2.11  31 2.11  18 2.13
  47  0.000  0.500  0.352-  15 2.11  13 2.11  14 2.11   5 2.11  30 2.11
  48  0.250  0.250  0.352-  16 2.11  13 2.11  14 2.11   6 2.11  29 2.11
  49  0.000  0.250  0.651-  11 2.11  20 2.11  36 2.11  19 2.11  17 2.15
  50  0.249  0.500  0.650-  19 2.09  35 2.10  20 2.11  12 2.11  18 2.14
  51  1.000  0.500  0.550-  19 2.11  17 2.11  34 2.11   9 2.11  18 2.12  15 2.12
  52  0.250  0.250  0.550-  17 2.11  10 2.11  33 2.11  18 2.11  20 2.11  16 2.12
  53  0.500  0.750  0.451-  21 2.11   8 2.11  23 2.11  24 2.11  31 2.11  25 2.12
  54  0.750  0.000  0.451-  22 2.11   7 2.11  23 2.11  24 2.11  32 2.11  26 2.13
  55  0.500  0.000  0.352-  23 2.11  21 2.11  22 2.11   6 2.11  29 2.11
  56  0.750  0.750  0.352-  24 2.11  21 2.11  22 2.11   5 2.11  30 2.11
  57  0.498  0.752  0.651-  27 2.11  12 2.11  35 2.14  28 2.14  25 2.16
  58  0.750  0.001  0.650-  36 2.09  28 2.10  11 2.11  27 2.11  26 2.14
  59  0.500  1.000  0.550-  27 2.11  10 2.11  25 2.11  26 2.11  33 2.12  23 2.12
  60  0.750  0.750  0.550-  25 2.10  34 2.10   9 2.11  26 2.11  24 2.13  28 2.14
  61  0.500  0.250  0.451-  29 2.11  23 2.11  16 2.11  31 2.11  32 2.11  33 2.13
  62  0.750  0.500  0.451-  30 2.11  24 2.11  15 2.11  31 2.11  32 2.11  34 2.12
  63  0.500  0.500  0.352-  31 2.11  21 2.11  29 2.11  30 2.11  14 2.11
  64  0.750  0.250  0.352-  32 2.11  22 2.11  29 2.11  30 2.11  13 2.11
  65  0.500  0.249  0.650-  27 2.09  35 2.10  20 2.11  36 2.11  33 2.14
  66  0.752  0.498  0.651-  19 2.11  36 2.11  35 2.14  28 2.14  34 2.16
  67  0.500  0.500  0.550-  34 2.10  25 2.10  18 2.11  33 2.11  31 2.13  35 2.14
  68  0.750  0.251  0.550-  36 2.11  34 2.11  17 2.11  33 2.11  26 2.12  32 2.12


IMPORTANT INFORMATION: All symmetrisations will be switched off!
NOSYMM: (Re-)initialisation of all symmetry stuff for point group C_1.


----------------------------------------------------------------------------------------

                                     Primitive cell                                     

  volume of cell :    1519.8199

  direct lattice vectors                    reciprocal lattice vectors
     8.440984654  0.000000000  0.000000000     0.118469591  0.000000000  0.000000000
     0.000000000  8.440984654  0.000000000     0.000000000  0.118469591  0.000000000
     0.000000000  0.000000000 21.330738491     0.000000000  0.000000000  0.046880702

  length of vectors
     8.440984654  8.440984654 21.330738491     0.118469591  0.118469591  0.046880702

  position of ions in fractional coordinates (direct lattice)
     0.546043464  0.546043554  0.753982351
     0.705518136  0.705518155  0.753866875
     0.519545987  0.519546255  0.807369252
     0.732328213  0.732328328  0.807205629
     0.000000000  0.750000000  0.351605267
     0.250000000  0.000000000  0.351605267
     0.000000000  0.000000000  0.450535089
     0.250000000  0.750000000  0.450535089
     0.999798239  0.750144775  0.550245717
     0.250027098  0.000053474  0.550129252
     0.000371466  0.000371472  0.648882746
     0.248696284  0.750225333  0.648718344
     0.000000000  0.250000000  0.351605267
     0.250000000  0.500000000  0.351605267
     0.000000000  0.500000000  0.450535089
     0.250000000  0.250000000  0.450535089
     0.000053477  0.250027114  0.550129253
     0.250298833  0.499926265  0.550268463
     0.001389620  0.499880676  0.648721670
     0.249712485  0.249712492  0.648907263
     0.500000000  0.750000000  0.351605267
     0.750000000  0.000000000  0.351605267
     0.500000000  0.000000000  0.450535089
     0.750000000  0.750000000  0.450535089
     0.500518719  0.749529162  0.550035840
     0.750144785  0.999798249  0.550245716
     0.499880675  0.001389626  0.648721670
     0.752263329  0.752263326  0.650736108
     0.500000000  0.250000000  0.351605267
     0.750000000  0.500000000  0.351605267
     0.500000000  0.500000000  0.450535089
     0.750000000  0.250000000  0.450535089
     0.499926254  0.250298819  0.550268463
     0.749529159  0.500518710  0.550035844
     0.497885295  0.497885281  0.650846849
     0.750225336  0.248696295  0.648718342
     0.000000000  0.750000000  0.450535089
     0.250000000  0.000000000  0.450535089
     0.000000000  0.000000000  0.351605267
     0.250000000  0.750000000  0.351605267
     0.001311888  0.750248159  0.650411303
     0.249885529  0.000191560  0.650896300
     0.000086314  0.000086309  0.549757436
     0.250507912  0.750014892  0.549832485
     0.000000000  0.250000000  0.450535089
     0.250000000  0.500000000  0.450535089
     0.000000000  0.500000000  0.351605267
     0.250000000  0.250000000  0.351605267
     0.000191566  0.249885533  0.650896301
     0.248805130  0.499862101  0.650472785
     0.999573666  0.500041977  0.549829729
     0.249988858  0.249988862  0.549775761
     0.500000000  0.750000000  0.450535089
     0.750000000  0.000000000  0.450535089
     0.500000000  0.000000000  0.351605267
     0.750000000  0.750000000  0.351605267
     0.498266584  0.751869440  0.651164077
     0.750248154  0.001311885  0.650411303
     0.500041974  0.999573651  0.549829728
     0.749750316  0.749750318  0.550374590
     0.500000000  0.250000000  0.450535089
     0.750000000  0.500000000  0.450535089
     0.500000000  0.500000000  0.351605267
     0.750000000  0.250000000  0.351605267
     0.499862110  0.248805133  0.650472788
     0.751869449  0.498266590  0.651164068
     0.500318883  0.500318880  0.550401686
     0.750014891  0.250507906  0.549832487

  ion indices of the primitive-cell ions
   primitive index   ion index
                 1           1
                 2           2
                 3           3
                 4           4
                 5           5
                 6           6
                 7           7
                 8           8
                 9           9
                10          10
                11          11
                12          12
                13          13
                14          14
                15          15
                16          16
                17          17
                18          18
                19          19
                20          20
                21          21
                22          22
                23          23
                24          24
                25          25
                26          26
                27          27
                28          28
                29          29
                30          30
                31          31
                32          32
                33          33
                34          34
                35          35
                36          36
                37          37
                38          38
                39          39
                40          40
                41          41
                42          42
                43          43
                44          44
                45          45
                46          46
                47          47
                48          48
                49          49
                50          50
                51          51
                52          52
                53          53
                54          54
                55          55
                56          56
                57          57
                58          58
                59          59
                60          60
                61          61
                62          62
                63          63
                64          64
                65          65
                66          66
                67          67
                68          68

----------------------------------------------------------------------------------------



 KPOINTS: pymatgen v2020.8.13 with grid density = 

Automatic generation of k-mesh.
 Grid dimensions read from file:
 generate k-points for:    2    2    1

 Generating k-lattice:

  Cartesian coordinates                     Fractional coordinates (reciprocal lattice)
     0.059234796  0.000000000  0.000000000     0.500000000  0.000000000  0.000000000
     0.000000000  0.059234796  0.000000000     0.000000000  0.500000000  0.000000000
     0.000000000  0.000000000  0.046880702     0.000000000  0.000000000  1.000000000

  Length of vectors
     0.059234796  0.059234796  0.046880702

  Shift w.r.t. Gamma in fractional coordinates (k-lattice)
     0.000000000  0.000000000  0.000000000

 
 Subroutine IBZKPT returns following result:
 ===========================================
 
 Found      4 irreducible k-points:
 
 Following reciprocal coordinates:
            Coordinates               Weight
  0.000000  0.000000  0.000000      1.000000
  0.500000  0.000000  0.000000      1.000000
  0.000000  0.500000  0.000000      1.000000
  0.500000  0.500000  0.000000      1.000000
 
 Following cartesian coordinates:
            Coordinates               Weight
  0.000000  0.000000  0.000000      1.000000
  0.059235  0.000000  0.000000      1.000000
  0.000000  0.059235  0.000000      1.000000
  0.059235  0.059235  0.000000      1.000000
 
 
 Subroutine IBZKPT_HF returns following result:
 ==============================================
 
 Found      4 k-points in 1st BZ
 the following      4 k-points will be used (e.g. in the exchange kernel)
 Following reciprocal coordinates:   # in IRBZ
  0.000000  0.000000  0.000000    0.25000000   1 t-inv F
  0.500000  0.000000  0.000000    0.25000000   2 t-inv F
  0.000000  0.500000  0.000000    0.25000000   3 t-inv F
  0.500000  0.500000  0.000000    0.25000000   4 t-inv F


--------------------------------------------------------------------------------------------------------




 Dimension of arrays:
   k-points           NKPTS =      4   k-points in BZ     NKDIM =      4   number of bands    NBANDS=    320
   number of dos      NEDOS =    301   number of ions     NIONS =     68
   non local maximal  LDIM  =      5   non local SUM 2l+1 LMDIM =     13
   total plane-waves  NPLWV = 882000
   max r-space proj   IRMAX =      1   max aug-charges    IRDMAX=  11635
   dimension x,y,z NGX =    70 NGY =   70 NGZ =  180
   dimension x,y,z NGXF=   140 NGYF=  140 NGZF=  360
   support grid    NGXF=   140 NGYF=  140 NGZF=  360
   ions per type =               2   2  32  32
   NGX,Y,Z   is equivalent  to a cutoff of  13.79, 13.79, 14.03 a.u.
   NGXF,Y,Z  is equivalent  to a cutoff of  27.57, 27.57, 28.06 a.u.

 SYSTEM =  MgO-rocksalt                            
 POSCAR =   N  O Mg  O                             

--------------------------------------------------------------------------------------------------------


  energy-cutoff  :      600.00
  volume of cell :     1519.82
      direct lattice vectors                 reciprocal lattice vectors
     8.440984654  0.000000000  0.000000000     0.118469591  0.000000000  0.000000000
     0.000000000  8.440984654  0.000000000     0.000000000  0.118469591  0.000000000
     0.000000000  0.000000000 21.330738491     0.000000000  0.000000000  0.046880702

  length of vectors
     8.440984654  8.440984654 21.330738491     0.118469591  0.118469591  0.046880702



 k-points in units of 2pi/SCALE and weight: pymatgen v2020.8.13 with grid density = 
   0.00000000  0.00000000  0.00000000       0.250
   0.05923480  0.00000000  0.00000000       0.250
   0.00000000  0.05923480  0.00000000       0.250
   0.05923480  0.05923480  0.00000000       0.250

 k-points in reciprocal lattice and weights: pymatgen v2020.8.13 with grid density = 
   0.00000000  0.00000000  0.00000000       0.250
   0.50000000  0.00000000  0.00000000       0.250
   0.00000000  0.50000000  0.00000000       0.250
   0.50000000  0.50000000  0.00000000       0.250

 position of ions in fractional coordinates (direct lattice) 
   0.54604346  0.54604355  0.75398235
   0.70551814  0.70551815  0.75386687
   0.51954599  0.51954625  0.80736925
   0.73232821  0.73232833  0.80720563
   0.00000000  0.75000000  0.35160527
   0.25000000  0.00000000  0.35160527
   0.00000000  0.00000000  0.45053509
   0.25000000  0.75000000  0.45053509
   0.99979824  0.75014478  0.55024572
   0.25002710  0.00005347  0.55012925
   0.00037147  0.00037147  0.64888275
   0.24869628  0.75022533  0.64871834
   0.00000000  0.25000000  0.35160527
   0.25000000  0.50000000  0.35160527
   0.00000000  0.50000000  0.45053509
   0.25000000  0.25000000  0.45053509
   0.00005348  0.25002711  0.55012925
   0.25029883  0.49992626  0.55026846
   0.00138962  0.49988068  0.64872167
   0.24971249  0.24971249  0.64890726
   0.50000000  0.75000000  0.35160527
   0.75000000  0.00000000  0.35160527
   0.50000000  0.00000000  0.45053509
   0.75000000  0.75000000  0.45053509
   0.50051872  0.74952916  0.55003584
   0.75014478  0.99979825  0.55024572
   0.49988068  0.00138963  0.64872167
   0.75226333  0.75226333  0.65073611
   0.50000000  0.25000000  0.35160527
   0.75000000  0.50000000  0.35160527
   0.50000000  0.50000000  0.45053509
   0.75000000  0.25000000  0.45053509
   0.49992625  0.25029882  0.55026846
   0.74952916  0.50051871  0.55003584
   0.49788529  0.49788528  0.65084685
   0.75022534  0.24869630  0.64871834
   0.00000000  0.75000000  0.45053509
   0.25000000  0.00000000  0.45053509
   0.00000000  0.00000000  0.35160527
   0.25000000  0.75000000  0.35160527
   0.00131189  0.75024816  0.65041130
   0.24988553  0.00019156  0.65089630
   0.00008631  0.00008631  0.54975744
   0.25050791  0.75001489  0.54983249
   0.00000000  0.25000000  0.45053509
   0.25000000  0.50000000  0.45053509
   0.00000000  0.50000000  0.35160527
   0.25000000  0.25000000  0.35160527
   0.00019157  0.24988553  0.65089630
   0.24880513  0.49986210  0.65047279
   0.99957367  0.50004198  0.54982973
   0.24998886  0.24998886  0.54977576
   0.50000000  0.75000000  0.45053509
   0.75000000  0.00000000  0.45053509
   0.50000000  0.00000000  0.35160527
   0.75000000  0.75000000  0.35160527
   0.49826658  0.75186944  0.65116408
   0.75024815  0.00131188  0.65041130
   0.50004197  0.99957365  0.54982973
   0.74975032  0.74975032  0.55037459
   0.50000000  0.25000000  0.45053509
   0.75000000  0.50000000  0.45053509
   0.50000000  0.50000000  0.35160527
   0.75000000  0.25000000  0.35160527
   0.49986211  0.24880513  0.65047279
   0.75186945  0.49826659  0.65116407
   0.50031888  0.50031888  0.55040169
   0.75001489  0.25050791  0.54983249

 position of ions in cartesian coordinates  (Angst):
   4.60914450  4.60914526 16.08300037
   5.95526776  5.95526792 16.08053716
   4.38547970  4.38548196 17.22178238
   6.18157121  6.18157218 17.21829218
   0.00000000  6.33073849  7.50000000
   2.11024616  0.00000000  7.50000000
   0.00000000  0.00000000  9.61024616
   2.11024616  6.33073849  9.61024616
   8.43928159  6.33196054 11.73714749
   2.11047489  0.00045137 11.73466322
   0.00313554  0.00313559 13.84114816
   2.09924152  6.33264052 13.83764135
   0.00000000  2.11024616  7.50000000
   2.11024616  4.22049233  7.50000000
   0.00000000  4.22049233  9.61024616
   2.11024616  2.11024616  9.61024616
   0.00045140  2.11047503 11.73466324
   2.11276861  4.21986993 11.73763269
   0.01172976  4.21948511 13.83771230
   2.10781926  2.10781932 13.84167114
   4.22049233  6.33073849  7.50000000
   6.33073849  0.00000000  7.50000000
   4.22049233  0.00000000  9.61024616
   6.33073849  6.33073849  9.61024616
   4.22487083  6.32676416 11.73267066
   6.33196062  8.43928168 11.73714747
   4.21948511  0.01172981 13.83771230
   6.34984322  6.34984319 13.88068175
   4.22049233  2.11024616  7.50000000
   6.33073849  4.22049233  7.50000000
   4.22049233  4.22049233  9.61024616
   6.33073849  2.11024616  9.61024616
   4.21986984  2.11276849 11.73763268
   6.32676413  4.22487075 11.73267075
   4.20264213  4.20264201 13.88304393
   6.33264055  2.09924161 13.83764130
   0.00000000  6.33073849  9.61024616
   2.11024616  0.00000000  9.61024616
   0.00000000  0.00000000  7.50000000
   2.11024616  6.33073849  7.50000000
   0.01107362  6.33283319 13.87375341
   2.10927992  0.00161695 13.88409875
   0.00072857  0.00072853 11.72673211
   2.11453344  6.33086420 11.72833296
   0.00000000  2.11024616  9.61024616
   2.11024616  4.22049233  9.61024616
   0.00000000  4.22049233  7.50000000
   2.11024616  2.11024616  7.50000000
   0.00161701  2.10927995 13.88409878
   2.10016028  4.21932832 13.87506488
   8.43738597  4.22084666 11.72827416
   2.11015211  2.11015215 11.72712299
   4.22049233  6.33073849  9.61024616
   6.33073849  0.00000000  9.61024616
   4.22049233  0.00000000  7.50000000
   6.33073849  6.33073849  7.50000000
   4.20586059  6.34651841 13.88981065
   6.33283316  0.01107360 13.87375342
   4.22084663  8.43738585 11.72827415
   6.32863091  6.32863093 11.73989645
   4.22049233  2.11024616  9.61024616
   6.33073849  4.22049233  9.61024616
   4.22049233  4.22049233  7.50000000
   6.33073849  2.11024616  7.50000000
   4.21932840  2.10016031 13.87506493
   6.34651848  4.20586064 13.88981045
   4.22318401  4.22318399 11.74047442
   6.33086419  2.11453339 11.72833299



--------------------------------------------------------------------------------------------------------

--------------------------------------- Iteration      FINAL  ---------------------------------------


--------------------OUTCAR has been truncated-------------------------


--------------------OUTCAR has been truncated-------------------------


--------------------OUTCAR has been truncated-------------------------


--------------------OUTCAR has been truncated-------------------------


--------------------OUTCAR has been truncated-------------------------


--------------------OUTCAR has been truncated-------------------------


--------------------OUTCAR has been truncated-------------------------


--------------------OUTCAR has been truncated-------------------------


--------------------OUTCAR has been truncated-------------------------


--------------------OUTCAR has been truncated-------------------------


  DFT-D2 method for vdW energy calculation
  -------------------------------------------------------------------

  Parameters of vdW forcefield:
         C6(Jnm^6/mol)     R0(A)
   -----------------------------
   N        1.230          1.397
   O        0.700          1.342
   Mg       0.630          1.243
   O        0.700          1.342

  vdW correction parametrized for the method éÛþ      

  IVDW =   1
  VDW_RADIUS =    50.000 A
  VDW_S6 =     1.050
  VDW_SR =     1.000
  VDW_D =    20.000
  LVDW_EWALD = F

  Number of pair interactions contributing to vdW energy:  814811
  Edisp (eV):   -5.30196
    FORVDW:  cpu time      0.1967: real time      0.1967

 VOLUME and BASIS-vectors are now :
 -----------------------------------------------------------------------------
  energy-cutoff  :      600.00
  volume of cell :     1519.82
      direct lattice vectors                 reciprocal lattice vectors
     8.440984654  0.000000000  0.000000000     0.118469591  0.000000000  0.000000000
     0.000000000  8.440984654  0.000000000     0.000000000  0.118469591  0.000000000
     0.000000000  0.000000000 21.330738491     0.000000000  0.000000000  0.046880702

  length of vectors
     8.440984654  8.440984654 21.330738491     0.118469591  0.118469591  0.046880702


 FORCES acting on ions:
    Electron-Ion                     Ewald-Force                    Non-Local-Force
 -----------------------------------------------------------------------------------------------
   0.458E+02 0.458E+02 -.111E+04   -.440E+02 -.440E+02 0.107E+04   -.172E+01 -.172E+01 0.390E+02
   -.453E+02 -.453E+02 -.111E+04   0.434E+02 0.434E+02 0.107E+04   0.181E+01 0.181E+01 0.389E+02
   0.134E+03 0.134E+03 -.160E+04   -.147E+03 -.147E+03 0.166E+04   0.115E+02 0.115E+02 -.527E+02
   -.135E+03 -.135E+03 -.160E+04   0.148E+03 0.148E+03 0.166E+04   -.116E+02 -.116E+02 -.527E+02
   -.259E+00 -.223E+00 0.210E+04   0.261E+00 0.226E+00 -.209E+04   -.939E-03 -.204E-02 -.639E+01
   0.224E+00 -.238E+00 0.210E+04   -.226E+00 0.241E+00 -.209E+04   0.179E-02 -.202E-02 -.640E+01
   -.852E+00 -.852E+00 0.756E+03   0.865E+00 0.865E+00 -.756E+03   -.880E-02 -.880E-02 0.413E+00
   0.142E+01 -.787E+00 0.757E+03   -.142E+01 0.795E+00 -.758E+03   -.128E-02 -.559E-02 0.416E+00
   -.691E+01 -.413E+01 -.570E+03   0.683E+01 0.409E+01 0.570E+03   0.730E-01 0.157E-01 -.326E+00
   0.410E+01 -.423E+01 -.582E+03   -.406E+01 0.419E+01 0.582E+03   -.191E-01 0.166E-01 -.871E-01
   -.227E+02 -.227E+02 -.193E+04   0.229E+02 0.229E+02 0.193E+04   -.152E+00 -.152E+00 0.542E+01
   0.276E+02 -.242E+02 -.191E+04   -.279E+02 0.244E+02 0.190E+04   0.354E+00 -.142E+00 0.550E+01
   -.238E+00 0.224E+00 0.210E+04   0.241E+00 -.226E+00 -.209E+04   -.202E-02 0.179E-02 -.640E+01
   0.245E+00 0.238E+00 0.210E+04   -.246E+00 -.241E+00 -.209E+04   0.653E-03 0.206E-02 -.639E+01
   -.147E+01 0.856E+00 0.757E+03   0.148E+01 -.863E+00 -.758E+03   -.194E-02 0.524E-02 0.414E+00
   0.791E+00 0.791E+00 0.756E+03   -.799E+00 -.799E+00 -.756E+03   0.569E-02 0.570E-02 0.419E+00
   -.423E+01 0.410E+01 -.582E+03   0.419E+01 -.406E+01 0.582E+03   0.166E-01 -.191E-01 -.871E-01
   0.675E+01 0.429E+01 -.570E+03   -.666E+01 -.426E+01 0.570E+03   -.785E-01 -.147E-01 -.317E+00
   -.280E+02 0.246E+02 -.191E+04   0.283E+02 -.248E+02 0.190E+04   -.342E+00 0.139E+00 0.550E+01
   0.223E+02 0.223E+02 -.193E+04   -.225E+02 -.225E+02 0.193E+04   0.154E+00 0.154E+00 0.542E+01
   0.262E+00 -.247E+00 0.210E+04   -.263E+00 0.248E+00 -.209E+04   0.353E-03 -.298E-03 -.639E+01
   -.223E+00 -.259E+00 0.210E+04   0.226E+00 0.261E+00 -.209E+04   -.203E-02 -.936E-03 -.639E+01
   0.856E+00 -.147E+01 0.757E+03   -.863E+00 0.148E+01 -.758E+03   0.523E-02 -.194E-02 0.414E+00
   -.143E+01 -.143E+01 0.759E+03   0.144E+01 0.144E+01 -.759E+03   -.821E-02 -.821E-02 0.590E+00
   0.697E+01 -.682E+01 -.559E+03   -.691E+01 0.676E+01 0.559E+03   -.629E-01 0.707E-01 0.170E+00
   -.413E+01 -.691E+01 -.570E+03   0.409E+01 0.683E+01 0.570E+03   0.157E-01 0.730E-01 -.326E+00
   0.246E+02 -.280E+02 -.191E+04   -.248E+02 0.283E+02 0.190E+04   0.139E+00 -.342E+00 0.550E+01
   -.420E+02 -.420E+02 -.179E+04   0.427E+02 0.427E+02 0.178E+04   -.644E+00 -.644E+00 0.343E+01
   0.238E+00 0.245E+00 0.210E+04   -.241E+00 -.246E+00 -.209E+04   0.206E-02 0.650E-03 -.639E+01
   -.247E+00 0.262E+00 0.210E+04   0.248E+00 -.263E+00 -.209E+04   -.302E-03 0.356E-03 -.639E+01
   0.150E+01 0.150E+01 0.758E+03   -.152E+01 -.152E+01 -.759E+03   0.764E-02 0.764E-02 0.597E+00
   -.787E+00 0.142E+01 0.757E+03   0.795E+00 -.142E+01 -.758E+03   -.558E-02 -.128E-02 0.416E+00
   0.429E+01 0.675E+01 -.570E+03   -.426E+01 -.666E+01 0.570E+03   -.147E-01 -.785E-01 -.317E+00
   -.682E+01 0.697E+01 -.559E+03   0.676E+01 -.691E+01 0.559E+03   0.707E-01 -.629E-01 0.169E+00
   0.426E+02 0.426E+02 -.179E+04   -.433E+02 -.433E+02 0.179E+04   0.635E+00 0.635E+00 0.345E+01
   -.242E+02 0.276E+02 -.191E+04   0.244E+02 -.279E+02 0.190E+04   -.142E+00 0.354E+00 0.550E+01
   -.838E+00 -.634E+00 0.567E+03   0.867E+00 0.629E+00 -.567E+03   -.352E-01 0.527E-02 -.111E+00
   0.654E+00 -.693E+00 0.566E+03   -.657E+00 0.693E+00 -.566E+03   0.457E-02 -.629E-04 -.123E+00
   -.164E+00 -.164E+00 0.157E+04   0.166E+00 0.166E+00 -.158E+04   -.276E-02 -.276E-02 0.312E+01
   0.205E+00 -.152E+00 0.157E+04   -.207E+00 0.155E+00 -.158E+04   0.288E-02 -.264E-02 0.313E+01
   -.325E+02 -.128E+02 -.144E+04   0.323E+02 0.127E+02 0.145E+04   0.194E+00 0.981E-01 -.440E+01
   0.112E+02 -.114E+02 -.148E+04   -.111E+02 0.113E+02 0.148E+04   -.129E+00 0.128E+00 -.447E+01
   -.404E+01 -.404E+01 -.429E+03   0.404E+01 0.404E+01 0.429E+03   0.577E-03 0.578E-03 0.261E+00
   0.436E+01 -.395E+01 -.423E+03   -.433E+01 0.394E+01 0.423E+03   -.500E-01 0.729E-02 0.275E+00
   -.693E+00 0.654E+00 0.566E+03   0.693E+00 -.657E+00 -.566E+03   -.580E-04 0.457E-02 -.123E+00
   0.797E+00 0.691E+00 0.567E+03   -.830E+00 -.689E+00 -.567E+03   0.414E-01 -.129E-02 -.116E+00
   -.216E+00 0.164E+00 0.157E+04   0.218E+00 -.166E+00 -.158E+04   -.305E-02 0.306E-02 0.313E+01
   0.152E+00 0.152E+00 0.157E+04   -.155E+00 -.155E+00 -.158E+04   0.258E-02 0.258E-02 0.312E+01
   -.114E+02 0.112E+02 -.148E+04   0.113E+02 -.111E+02 0.148E+04   0.128E+00 -.129E+00 -.447E+01
   0.321E+02 0.130E+02 -.144E+04   -.319E+02 -.129E+02 0.145E+04   -.193E+00 -.965E-01 -.440E+01
   -.448E+01 0.404E+01 -.423E+03   0.445E+01 -.402E+01 0.423E+03   0.509E-01 -.133E-01 0.276E+00
   0.391E+01 0.391E+01 -.429E+03   -.390E+01 -.390E+01 0.429E+03   -.147E-02 -.147E-02 0.262E+00
   0.885E+00 -.834E+00 0.570E+03   -.934E+00 0.880E+00 -.570E+03   0.585E-01 -.557E-01 -.837E-01
   -.634E+00 -.838E+00 0.567E+03   0.629E+00 0.867E+00 -.567E+03   0.527E-02 -.352E-01 -.111E+00
   0.164E+00 -.216E+00 0.157E+04   -.166E+00 0.218E+00 -.158E+04   0.306E-02 -.305E-02 0.313E+01
   -.207E+00 -.207E+00 0.158E+04   0.208E+00 0.208E+00 -.158E+04   -.205E-02 -.205E-02 0.313E+01
   0.414E+02 -.410E+02 -.138E+04   -.410E+02 0.406E+02 0.138E+04   -.318E+00 0.320E+00 -.388E+01
   -.128E+02 -.325E+02 -.144E+04   0.127E+02 0.323E+02 0.145E+04   0.981E-01 0.194E+00 -.440E+01
   0.404E+01 -.448E+01 -.423E+03   -.402E+01 0.445E+01 0.423E+03   -.133E-01 0.509E-01 0.276E+00
   -.459E+01 -.459E+01 -.419E+03   0.460E+01 0.460E+01 0.419E+03   0.630E-02 0.630E-02 -.161E+00
   0.691E+00 0.797E+00 0.567E+03   -.689E+00 -.830E+00 -.567E+03   -.130E-02 0.414E-01 -.116E+00
   -.834E+00 0.885E+00 0.570E+03   0.880E+00 -.934E+00 -.570E+03   -.557E-01 0.585E-01 -.837E-01
   0.218E+00 0.218E+00 0.158E+04   -.220E+00 -.220E+00 -.158E+04   0.248E-02 0.248E-02 0.313E+01
   -.152E+00 0.205E+00 0.157E+04   0.155E+00 -.207E+00 -.158E+04   -.263E-02 0.288E-02 0.313E+01
   0.130E+02 0.321E+02 -.144E+04   -.129E+02 -.319E+02 0.145E+04   -.965E-01 -.193E+00 -.440E+01
   -.410E+02 0.414E+02 -.138E+04   0.406E+02 -.410E+02 0.138E+04   0.320E+00 -.318E+00 -.388E+01
   0.472E+01 0.472E+01 -.420E+03   -.473E+01 -.473E+01 0.420E+03   -.934E-02 -.934E-02 -.182E+00
   -.395E+01 0.436E+01 -.423E+03   0.394E+01 -.433E+01 0.423E+03   0.729E-02 -.500E-01 0.275E+00
 -----------------------------------------------------------------------------------------------
   0.441E-01 0.442E-01 0.546E+02   0.142E-12 -.455E-12 -.455E-11   -.349E-01 -.350E-01 -.453E+02


 POSITION                                       TOTAL-FORCE (eV/Angst)
 -----------------------------------------------------------------------------------
      4.60914      4.60915     16.08300        -0.014402     -0.014393      1.890017
      5.95527      5.95527     16.08054         0.015658      0.015671      1.892817
      4.38548      4.38548     17.22178         0.350886      0.350889     -1.758036
      6.18157      6.18157     17.21829        -0.359475     -0.359454     -1.764994
      0.00000      6.33074      7.50000         0.000528      0.000772      0.466399
      2.11025      0.00000      7.50000        -0.000740      0.000793      0.469178
      0.00000      0.00000      9.61025         0.003399      0.003396      0.041745
      2.11025      6.33074      9.61025        -0.000387      0.001686      0.054874
      8.43928      6.33196     11.73715        -0.000733     -0.018555     -0.002151
      2.11047      0.00045     11.73466         0.014652     -0.015316      0.002333
      0.00314      0.00314     13.84115         0.018525      0.018525     -0.139006
      2.09924      6.33264     13.83764         0.037231      0.028370     -0.166101
      0.00000      2.11025      7.50000         0.000795     -0.000740      0.469177
      2.11025      4.22049      7.50000        -0.000461     -0.000824      0.466529
      0.00000      4.22049      9.61025         0.001918     -0.001346      0.055281
      2.11025      2.11025      9.61025        -0.001884     -0.001885      0.042401
      0.00045      2.11048     11.73466        -0.015314      0.014648      0.002341
      2.11277      4.21987     11.73763         0.000646      0.017250     -0.002805
      0.01173      4.21949     13.83771        -0.036637     -0.028670     -0.166888
      2.10782      2.10782     13.84167        -0.018150     -0.018156     -0.138954
      4.22049      6.33074      7.50000        -0.000355      0.000302      0.464792
      6.33074      0.00000      7.50000         0.000769      0.000530      0.466371
      4.22049      0.00000      9.61025        -0.001342      0.001914      0.055279
      6.33074      6.33074      9.61025         0.006357      0.006362      0.049393
      4.22487      6.32676     11.73267        -0.010060      0.010308      0.059474
      6.33196      8.43928     11.73715        -0.018553     -0.000736     -0.002150
      4.21949      0.01173     13.83771        -0.028670     -0.036636     -0.166895
      6.34984      6.34984     13.88068        -0.011600     -0.011601     -0.226666
      4.22049      2.11025      7.50000        -0.000823     -0.000469      0.466564
      6.33074      4.22049      7.50000         0.000300     -0.000355      0.464791
      4.22049      4.22049      9.61025        -0.005938     -0.005937      0.050165
      6.33074      2.11025      9.61025         0.001683     -0.000388      0.054878
      4.21987      2.11277     11.73763         0.017255      0.000648     -0.002797
      6.32676      4.22487     11.73267         0.010304     -0.010064      0.059474
      4.20264      4.20264     13.88304         0.012495      0.012493     -0.227869
      6.33264      2.09924     13.83764         0.028367      0.037226     -0.166105
      0.00000      6.33074      9.61025        -0.011614      0.000693      0.070138
      2.11025      0.00000      9.61025         0.001862     -0.000552      0.051826
      0.00000      0.00000      7.50000        -0.000891     -0.000895     -0.436919
      2.11025      6.33074      7.50000         0.000950     -0.000873     -0.434929
      0.01107      6.33283     13.87375        -0.011597      0.010655     -0.039223
      2.10928      0.00162     13.88410        -0.016234      0.017327     -0.075022
      0.00073      0.00073     11.72673        -0.000579     -0.000575      0.052408
      2.11453      6.33086     11.72833        -0.027427     -0.000354      0.031114
      0.00000      2.11025      9.61025        -0.000548      0.001861      0.051822
      2.11025      4.22049      9.61025         0.013463      0.000378      0.071045
      0.00000      4.22049      7.50000        -0.001023      0.000992     -0.434930
      2.11025      2.11025      7.50000         0.000815      0.000815     -0.437025
      0.00162      2.10928     13.88410         0.017325     -0.016238     -0.075026
      2.10016      4.21933     13.87506         0.011654     -0.011449     -0.041814
      8.43739      4.22085     11.72827         0.027360     -0.000284      0.032157
      2.11015      2.11015     11.72712         0.000562      0.000556      0.052085
      4.22049      6.33074      9.61025         0.018425     -0.017641      0.057145
      6.33074      0.00000      9.61025         0.000686     -0.011622      0.070145
      4.22049      0.00000      7.50000         0.000996     -0.001027     -0.434925
      6.33074      6.33074      7.50000        -0.000679     -0.000678     -0.433269
      4.20586      6.34652     13.88981        -0.009699      0.009704     -0.042639
      6.33283      0.01107     13.87375         0.010657     -0.011600     -0.039231
      4.22085      8.43739     11.72827        -0.000284      0.027364      0.032148
      6.32863      6.32863     11.73990         0.016246      0.016249      0.017414
      4.22049      2.11025      9.61025         0.000379      0.013457      0.071041
      6.33074      4.22049      9.61025        -0.017641      0.018422      0.057147
      4.22049      4.22049      7.50000         0.000795      0.000802     -0.433392
      6.33074      2.11025      7.50000        -0.000870      0.000947     -0.434922
      4.21933      2.10016     13.87506        -0.011453      0.011654     -0.041816
      6.34652      4.20586     13.88981         0.009709     -0.009690     -0.042641
      4.22318      4.22318     11.74047        -0.017233     -0.017228      0.016122
      6.33086      2.11453     11.72833        -0.000353     -0.027431      0.031115
 -----------------------------------------------------------------------------------
    total drift:                                0.000848      0.000897      0.004756


--------------------------------------------------------------------------------------------------------



  FREE ENERGIE OF THE ION-ELECTRON SYSTEM (eV)
  ---------------------------------------------------
  free  energy   TOTEN  =      -470.60144803 eV

  energy  without entropy=     -470.60144803  energy(sigma->0) =     -470.60144803



--------------------------------------------------------------------------------------------------------


    POTLOK:  cpu time      0.8260: real time      0.8263


--------------------------------------------------------------------------------------------------------


     LOOP+:  cpu time   5342.4541: real time   5343.7578
    4ORBIT:  cpu time      0.0000: real time      0.0000

 total amount of memory used by VASP MPI-rank0   189439. kBytes
=======================================================================

   base      :      30000. kBytes
   nonl-proj :      17612. kBytes
   fftplans  :       7742. kBytes
   grid      :       8190. kBytes
   one-center:         73. kBytes
   HF        :        101. kBytes
   nonlr-proj:       6997. kBytes
   wavefun   :       6264. kBytes
   fock_wrk  :     112460. kBytes

  
  
 General timing and accounting informations for this job:
 ========================================================
  
                  Total CPU time used (sec):     5381.324
                            User time (sec):     5368.962
                          System time (sec):       12.362
                         Elapsed time (sec):     5393.738
  
                   Maximum memory used (kb):      429600.
                   Average memory used (kb):          N/A
  
                          Minor page faults:       298587
                          Major page faults:           51
                 Voluntary context switches:        15001
