 vasp.6.3.0 20Jan22 (build Aug 21 2024 11:13:42) complex                         
 executed on        HPECrayEX_GCC date 2024.11.27  00:28:16
 running  512 mpi-ranks, with    1 threads/rank
 distrk:  each k-point on  512 cores,    1 groups
 distr:  one band on NCORE=  16 cores,   32 groups


--------------------------------------------------------------------------------------------------------


 INCAR:
   SYSTEM = TiO2
   ISMEAR = 0
   SIGMA = 0.05
   EDIFF = 1E-4
   ALGO = ALL
   ISTART = 0
   IBRION = -1
   NSW = 0
   ISYM = 0
   ISIF = 2
   EDIFFG = -0.01
   DIPOL = 0.5 0.5 0.5
   IDIPOL = 3
   LDIPOL = .TRUE.
   GGA = RE
   IVDW = 13
   VDW_S8 = 1.7468
   VDW_A1 = 0.5363
   VDW_A2 = 3.0726
   ENCUT = 600
   PREC = Accurate
   LASPH = .TRUE.
   LREAL = .FALSE.
   ISPIN = 1
   NELM = 200
   NELMIN = 8
   NCORE = 16
   KPAR = 1
   LWAVE = .FALSE.
   LCHARG = .FALSE.

 POTCAR:    PAW_PBE N 08Apr2002                   
 POTCAR:    PAW_PBE H 15Jun2001                   
 POTCAR:    PAW_PBE N 08Apr2002                   
   SHA256 =  e053789ff3a61a86a1b75d8a110fcc91f86041011e7b0817c7c99e4e8a6349d7 N/POTCAR              
   COPYR  = (c) Copyright 08Apr2002 Georg Kresse                                                    
   COPYR  = This file is part of the software VASP. Any use, copying, and all other rights are regul
   COPYR  = If you do not have a valid VASP license, you may not use, copy or distribute this file. 
   VRHFIN =N: s2p3                                                                                  
   LEXCH  = PE                                                                                      
   EATOM  =   264.5486 eV,   19.4438 Ry                                                             
                                                                                                    
   TITEL  = PAW_PBE N 08Apr2002                                                                     
   LULTRA =        F    use ultrasoft PP ?                                                          
   IUNSCR =        1    unscreen: 0-lin 1-nonlin 2-no                                               
   RPACOR =    1.200    partial core radius                                                         
   POMASS =   14.001; ZVAL   =    5.000    mass and valenz                                          
   RCORE  =    1.500    outmost cutoff radius                                                       
   RWIGS  =    1.400; RWIGS  =    0.741    wigner-seitz radius (au A)                               
   ENMAX  =  400.000; ENMIN  =  300.000 eV                                                          
   ICORE  =        2    local potential                                                             
   LCOR   =        T    correct aug charges                                                         
   LPAW   =        T    paw PP                                                                      
   EAUG   =  627.112                                                                                
   DEXC   =    0.000                                                                                
   RMAX   =    1.529    core radius for proj-oper                                                   
   RAUG   =    1.300    factor for augmentation sphere                                              
   RDEP   =    1.514    radius for radial grids                                                     
   RDEPT  =    1.338    core radius for aug-charge                                                  
                                                                                                    
   Atomic configuration                                                                             
    4 entries                                                                                       
     n  l   j            E        occ.                                                              
     1  0  0.50      -384.7179   2.0000                                                             
     2  0  0.50       -18.5828   2.0000                                                             
     2  1  0.50        -7.0898   3.0000                                                             
     3  2  1.50        -6.8029   0.0000                                                             
   Description                                                                                      
     l       E           TYP  RCUT    TYP  RCUT                                                     
     0    -18.5828119     23  1.200                                                                 
     0    -13.5018863     23  1.200                                                                 
     1     -7.0897853     23  1.500                                                                 
     1      9.5240782     23  1.500                                                                 
     2     -6.8029130      7  1.500                                                                 
  local pseudopotential read in
  partial core-charges read in
  partial kinetic energy density read in
  atomic valenz-charges read in
  non local Contribution for L=           0  read in
    real space projection operators read in
  non local Contribution for L=           0  read in
    real space projection operators read in
  non local Contribution for L=           1  read in
    real space projection operators read in
  non local Contribution for L=           1  read in
    real space projection operators read in
    PAW grid and wavefunctions read in

   number of l-projection  operators is LMAX  =           4
   number of lm-projection operators is LMMAX =           8

 POTCAR:    PAW_PBE H 15Jun2001                   
   SHA256 =  030f79b5d3ab3cf0e668861823c8fb652ff669f3e15e46930bd03bfd63a607b6 H/POTCAR              
   COPYR  = (c) Copyright 15Jun2001 Georg Kresse                                                    
   COPYR  = This file is part of the software VASP. Any use, copying, and all other rights are regul
   COPYR  = If you do not have a valid VASP license, you may not use, copy or distribute this file. 
   VRHFIN =H: ultrasoft test                                                                        
   LEXCH  = PE                                                                                      
   EATOM  =    12.4884 eV,    0.9179 Ry                                                             
                                                                                                    
   TITEL  = PAW_PBE H 15Jun2001                                                                     
   LULTRA =        F    use ultrasoft PP ?                                                          
   IUNSCR =        0    unscreen: 0-lin 1-nonlin 2-no                                               
   RPACOR =    0.000    partial core radius                                                         
   POMASS =    1.000; ZVAL   =    1.000    mass and valenz                                          
   RCORE  =    1.100    outmost cutoff radius                                                       
   RWIGS  =    0.700; RWIGS  =    0.370    wigner-seitz radius (au A)                               
   ENMAX  =  250.000; ENMIN  =  200.000 eV                                                          
   RCLOC  =    0.701    cutoff for local pot                                                        
   LCOR   =        T    correct aug charges                                                         
   LPAW   =        T    paw PP                                                                      
   EAUG   =  400.000                                                                                
   RMAX   =    1.123    core radius for proj-oper                                                   
   RAUG   =    1.200    factor for augmentation sphere                                              
   RDEP   =    1.112    radius for radial grids                                                     
   RDEPT  =    0.926    core radius for aug-charge                                                  
                                                                                                    
   Atomic configuration                                                                             
    2 entries                                                                                       
     n  l   j            E        occ.                                                              
     1  0  0.50        -6.4927   1.0000                                                             
     2  1  0.50        -3.4015   0.0000                                                             
   Description                                                                                      
     l       E           TYP  RCUT    TYP  RCUT                                                     
     0     -6.4927494     23  1.100                                                                 
     0      6.8029130     23  1.100                                                                 
     1     -4.0817478     23  1.100                                                                 
  local pseudopotential read in
  atomic valenz-charges read in
  non local Contribution for L=           0  read in
    real space projection operators read in
  non local Contribution for L=           0  read in
    real space projection operators read in
  non local Contribution for L=           1  read in
    real space projection operators read in
    PAW grid and wavefunctions read in

   number of l-projection  operators is LMAX  =           3
   number of lm-projection operators is LMMAX =           5

 -----------------------------------------------------------------------------
|                                                                             |
|               ----> ADVICE to this user running VASP <----                  |
|                                                                             |
|     You enforced a specific xc type in the INCAR file but a different       |
|     type was found in the POTCAR file.                                      |
|     I HOPE YOU KNOW WHAT YOU ARE DOING!                                     |
|                                                                             |
 -----------------------------------------------------------------------------

  PAW_PBE N 08Apr2002                   :
 energy of atom  1       EATOM= -264.5486
 kinetic energy error for atom=    0.0103 (will be added to EATOM!!)
  PAW_PBE H 15Jun2001                   :
 energy of atom  2       EATOM=  -12.4884
 kinetic energy error for atom=    0.0004 (will be added to EATOM!!)


 POSCAR:  N  H
  positions in direct lattice
  No initial velocities read in
 -----------------------------------------------------------------------------
|                                                                             |
|           W    W    AA    RRRRR   N    N  II  N    N   GGGG   !!!           |
|           W    W   A  A   R    R  NN   N  II  NN   N  G    G  !!!           |
|           W    W  A    A  R    R  N N  N  II  N N  N  G       !!!           |
|           W WW W  AAAAAA  RRRRR   N  N N  II  N  N N  G  GGG   !            |
|           WW  WW  A    A  R   R   N   NN  II  N   NN  G    G                |
|           W    W  A    A  R    R  N    N  II  N    N   GGGG   !!!           |
|                                                                             |
|     Specifying the vdW parameters                                           |
|     VDW_S8 = 1.747                                                          |
|     VDW_A1 = 0.536                                                          |
|     VDW_A2 = 3.073                                                          |
|     in the INCAR file will overwrite the defaults for revpbe. Please        |
|     make sure that is what you intended.                                    |
|                                                                             |
 -----------------------------------------------------------------------------

 exchange correlation table for  LEXCH =       40
   RHO(1)=    0.500       N(1)  =     2000
   RHO(2)=  100.500       N(2)  =     4000



--------------------------------------------------------------------------------------------------------


 ion  position               nearest neighbor table
   1  0.614  0.500  0.812-   2 1.01   3 1.02   4 1.02
   2  0.550  0.500  0.843-   1 1.01
   3  0.672  0.428  0.814-   1 1.02
   4  0.672  0.572  0.814-   1 1.02


IMPORTANT INFORMATION: All symmetrisations will be switched off!
NOSYMM: (Re-)initialisation of all symmetry stuff for point group C_1.


----------------------------------------------------------------------------------------

                                     Primitive cell                                     

  volume of cell :    2859.6974

  direct lattice vectors                    reciprocal lattice vectors
    10.250982430  0.000000000  0.000000000     0.097551626 -0.000000000  0.000000000
     0.000000000 11.253211329  0.000000000     0.000000000  0.088863523  0.000000000
     0.000000000  0.000000000 24.790090512     0.000000000  0.000000000  0.040338699

  length of vectors
    10.250982430 11.253211329 24.790090512     0.097551626  0.088863523  0.040338699

  position of ions in fractional coordinates (direct lattice)
     0.613613132  0.499999537  0.811640581
     0.550448546  0.500000230  0.843037462
     0.672326445  0.427568488  0.814353961
     0.672326926  0.572432552  0.814354004

  ion indices of the primitive-cell ions
   primitive index   ion index
                 1           1
                 2           2
                 3           3
                 4           4

----------------------------------------------------------------------------------------



 KPOINTS: pymatgen v2020.8.13 with grid density = 

Automatic generation of k-mesh.
 Grid dimensions read from file:
 generate k-points for:    3    3    1

 Generating k-lattice:

  Cartesian coordinates                     Fractional coordinates (reciprocal lattice)
     0.032517209 -0.000000000  0.000000000     0.333333333 -0.000000000  0.000000000
     0.000000000  0.029621174  0.000000000     0.000000000  0.333333333  0.000000000
     0.000000000  0.000000000  0.040338699     0.000000000  0.000000000  1.000000000

  Length of vectors
     0.032517209  0.029621174  0.040338699

  Shift w.r.t. Gamma in fractional coordinates (k-lattice)
     0.000000000  0.000000000  0.000000000

 
 Subroutine IBZKPT returns following result:
 ===========================================
 
 Found      5 irreducible k-points:
 
 Following reciprocal coordinates:
            Coordinates               Weight
  0.000000  0.000000  0.000000      1.000000
  0.333333  0.000000  0.000000      2.000000
  0.000000  0.333333  0.000000      2.000000
  0.333333  0.333333  0.000000      2.000000
  0.333333 -0.333333  0.000000      2.000000
 
 Following cartesian coordinates:
            Coordinates               Weight
  0.000000  0.000000  0.000000      1.000000
  0.032517  0.000000  0.000000      2.000000
  0.000000  0.029621  0.000000      2.000000
  0.032517  0.029621  0.000000      2.000000
  0.032517 -0.029621  0.000000      2.000000
 


--------------------------------------------------------------------------------------------------------




 Dimension of arrays:
   k-points           NKPTS =      5   k-points in BZ     NKDIM =      5   number of bands    NBANDS=     32
   number of dos      NEDOS =    301   number of ions     NIONS =      4
   non local maximal  LDIM  =      4   non local SUM 2l+1 LMDIM =      8
   total plane-waves  NPLWV = ******
   max r-space proj   IRMAX =      1   max aug-charges    IRDMAX=   6705
   dimension x,y,z NGX =    84 NGY =   90 NGZ =  200
   dimension x,y,z NGXF=   168 NGYF=  180 NGZF=  400
   support grid    NGXF=   168 NGYF=  180 NGZF=  400
   ions per type =               1   3
   NGX,Y,Z   is equivalent  to a cutoff of  13.62, 13.30, 13.41 a.u.
   NGXF,Y,Z  is equivalent  to a cutoff of  27.25, 26.59, 26.82 a.u.

 SYSTEM =  TiO2                                    
 POSCAR =   N  H                                   

--------------------------------------------------------------------------------------------------------


  energy-cutoff  :      600.00
  volume of cell :     2859.70
      direct lattice vectors                 reciprocal lattice vectors
    10.250982430  0.000000000  0.000000000     0.097551626 -0.000000000  0.000000000
     0.000000000 11.253211329  0.000000000     0.000000000  0.088863523  0.000000000
     0.000000000  0.000000000 24.790090512     0.000000000  0.000000000  0.040338699

  length of vectors
    10.250982430 11.253211329 24.790090512     0.097551626  0.088863523  0.040338699



 k-points in units of 2pi/SCALE and weight: pymatgen v2020.8.13 with grid density = 
   0.00000000  0.00000000  0.00000000       0.111
   0.03251721  0.00000000  0.00000000       0.222
   0.00000000  0.02962117  0.00000000       0.222
   0.03251721  0.02962117  0.00000000       0.222
   0.03251721 -0.02962117  0.00000000       0.222

 k-points in reciprocal lattice and weights: pymatgen v2020.8.13 with grid density = 
   0.00000000  0.00000000  0.00000000       0.111
   0.33333333  0.00000000  0.00000000       0.222
   0.00000000  0.33333333  0.00000000       0.222
   0.33333333  0.33333333  0.00000000       0.222
   0.33333333 -0.33333333  0.00000000       0.222

 position of ions in fractional coordinates (direct lattice) 
   0.61361313  0.49999954  0.81164058
   0.55044855  0.50000023  0.84303746
   0.67232644  0.42756849  0.81435396
   0.67232693  0.57243255  0.81435400

 position of ions in cartesian coordinates  (Angst):
   6.29013744  5.62660046 20.12064347
   5.64263837  5.62660826 20.89897499
   6.89200657  4.81151855 20.18790840
   6.89201151  6.44170448 20.18790947



--------------------------------------------------------------------------------------------------------

--------------------------------------- Iteration      FINAL  ---------------------------------------


--------------------OUTCAR has been truncated-------------------------


--------------------OUTCAR has been truncated-------------------------


--------------------OUTCAR has been truncated-------------------------


--------------------OUTCAR has been truncated-------------------------


--------------------OUTCAR has been truncated-------------------------


--------------------OUTCAR has been truncated-------------------------


--------------------OUTCAR has been truncated-------------------------


--------------------OUTCAR has been truncated-------------------------


--------------------OUTCAR has been truncated-------------------------


--------------------OUTCAR has been truncated-------------------------



  FORCE on cell =-STRESS in cart. coord.  units (eV):
  Direction    XX          YY          ZZ          XY          YZ          ZX
  --------------------------------------------------------------------------------------
  Alpha Z     0.08073     0.08073     0.08073
  Ewald     114.04904   119.66572   -57.51417    -0.00121     0.00037   -34.82358
  Hartree   189.34113   182.41383    53.97571     0.00000     0.00012    -6.60793
  E(xc)     -31.12448   -31.07017   -31.30876     0.00000     0.00000    -0.14449
  Local    -376.53672  -370.49795   -81.71405     0.00069    -0.00043    31.42221
  n-local   -22.40066   -21.87069   -23.41825     0.00007     0.00001    -0.87592
  augment     1.32665     1.18742     1.65890     0.00000    -0.00000     0.27551
  Kinetic   125.29893   120.37159   138.44992     0.00003    -0.00014    10.71317
  Fock        0.00000     0.00000     0.00000     0.00000     0.00000     0.00000
  vdW         0.01170     0.01271     0.00794    -0.00000     0.00000    -0.00323
  -------------------------------------------------------------------------------------
  Total       0.04631     0.29320     0.21797    -0.00041    -0.00008    -0.04425
  in kB       0.02595     0.16427     0.12212    -0.00023    -0.00004    -0.02479
  external pressure =        0.10 kB  Pullay stress =        0.00 kB


 VOLUME and BASIS-vectors are now :
 -----------------------------------------------------------------------------
  energy-cutoff  :      600.00
  volume of cell :     2859.70
      direct lattice vectors                 reciprocal lattice vectors
    10.250982430  0.000000000  0.000000000     0.097551626 -0.000000000  0.000000000
     0.000000000 11.253211329  0.000000000     0.000000000  0.088863523  0.000000000
     0.000000000  0.000000000 24.790090512     0.000000000  0.000000000  0.040338699

  length of vectors
    10.250982430 11.253211329 24.790090512     0.097551626  0.088863523  0.040338699


 FORCES acting on ions:
    Electron-Ion                     Ewald-Force                    Non-Local-Force
 -----------------------------------------------------------------------------------------------
   0.236E+02 -.793E-03 0.389E+02   -.377E+02 0.138E-02 -.634E+02   0.141E+02 0.175E-03 0.240E+02
   0.476E+02 -.515E-03 -.530E+02   -.525E+02 0.549E-03 0.588E+02   0.490E+01 -.688E-04 -.550E+01
   -.408E+02 0.577E+02 -.196E+01   0.451E+02 -.638E+02 0.234E+01   -.427E+01 0.591E+01 -.264E+00
   -.408E+02 -.577E+02 -.196E+01   0.451E+02 0.638E+02 0.234E+01   -.427E+01 -.590E+01 -.264E+00
 -----------------------------------------------------------------------------------------------
   -.104E+02 -.453E-03 -.179E+02   0.000E+00 -.711E-14 -.711E-14   0.104E+02 0.459E-03 0.179E+02


 POSITION                                       TOTAL-FORCE (eV/Angst)
 -----------------------------------------------------------------------------------
      6.29014      5.62660     20.12064        -0.015265      0.000759     -0.558671
      5.64264      5.62661     20.89897        -0.068167     -0.000036      0.312845
      6.89201      4.81152     20.18791         0.041969     -0.208704      0.122961
      6.89201      6.44170     20.18791         0.041463      0.207980      0.122865
 -----------------------------------------------------------------------------------
    total drift:                               -0.006493      0.000006     -0.009328


--------------------------------------------------------------------------------------------------------



  FREE ENERGIE OF THE ION-ELECTRON SYSTEM (eV)
  ---------------------------------------------------
  free  energy   TOTEN  =       -19.56999358 eV

  energy  without entropy=      -19.56999358  energy(sigma->0) =      -19.56999358



--------------------------------------------------------------------------------------------------------


    POTLOK:  cpu time      0.1428: real time      0.1429


--------------------------------------------------------------------------------------------------------


     LOOP+:  cpu time     25.9225: real time     25.9956
    4ORBIT:  cpu time      0.0000: real time      0.0000

 total amount of memory used by VASP MPI-rank0    49437. kBytes
=======================================================================

   base      :      30000. kBytes
   nonl-proj :       4212. kBytes
   fftplans  :       5404. kBytes
   grid      :       8375. kBytes
   one-center:          3. kBytes
   wavefun   :       1443. kBytes

  
  
 General timing and accounting informations for this job:
 ========================================================
  
                  Total CPU time used (sec):       55.200
                            User time (sec):       54.272
                          System time (sec):        0.928
                         Elapsed time (sec):       68.362
  
                   Maximum memory used (kb):      179232.
                   Average memory used (kb):          N/A
  
                          Minor page faults:        19917
                          Major page faults:          540
                 Voluntary context switches:        10855
