 vasp.6.3.0 20Jan22 (build Apr  1 2022 16:44:48) complex                         
 executed on        HPECrayEX_GCC date 2022.11.13  01:05:42
 running  512 mpi-ranks, with    1 threads/rank
 distrk:  each k-point on  512 cores,    1 groups
 distr:  one band on NCORE=   8 cores,   64 groups


--------------------------------------------------------------------------------------------------------


 INCAR:
   SYSTEM = MgO-rocksalt
   ISMEAR = 0
   SIGMA = 0.05
   EDIFF = 1E-6
   ALGO = ALL
   ISTART = 0
   IBRION = -1
   NSW = 0
   ISYM = 0
   DIPOL = 0.5 0.5 0.5
   IDIPOL = 3
   LDIPOL = .TRUE.
   GGA = RE
   AGGAC = 0.0
   LUSE_VDW = .TRUE.
   LASPH = .TRUE.
   ENCUT = 600
   PREC = Accurate
   LASPH = .TRUE.
   LREAL = .FALSE.
   ISPIN = 1
   NELM = 200
   NELMIN = 8
   NCORE = 8
   KPAR = 1
   LWAVE = .FALSE.
   LCHARG = .FALSE.

 POTCAR:    PAW_PBE Mg_pv 13Apr2007               
 POTCAR:    PAW_PBE O 08Apr2002                   
 -----------------------------------------------------------------------------
|                                                                             |
|               ----> ADVICE to this user running VASP <----                  |
|                                                                             |
|     You have switched on vdW-DFT.                                           |
|     This routine was written and supplied by Jiri Klimes. We recommend      |
|     that you carefully read and cite the following publications:            |
|       J. Klimes, D.R. Bowler, A. Michelides                                 |
|          J. Phys.: Cond Matt. 22 022201 (2010)                              |
|       J. Klimes, D.R. Bowler, A. Michelides                                 |
|          Phys. Rev. B. 83, 195131 (2011)                                    |
|     and references therein.                                                 |
|                                                                             |
 -----------------------------------------------------------------------------

 POTCAR:    PAW_PBE Mg_pv 13Apr2007               
   SHA256 =  f474ac0dd33840b9ae76c01d57fea79fdf77cdfbb07d5ade72c65f83c709b62b Mg_pv/POTCAR          
   COPYR  = (c) Copyright 13Apr2007 Georg Kresse                                                    
   COPYR  = This file is part of the software VASP. Any use, copying, and all other rights are regul
   COPYR  = If you do not have a valid VASP license, you may not use, copy or distribute this file. 
   VRHFIN =Mg: p6s2                                                                                 
   LEXCH  = PE                                                                                      
   EATOM  =  1056.7344 eV,   77.6678 Ry                                                             
                                                                                                    
   TITEL  = PAW_PBE Mg_pv 13Apr2007                                                                 
   LULTRA =        F    use ultrasoft PP ?                                                          
   IUNSCR =        1    unscreen: 0-lin 1-nonlin 2-no                                               
   RPACOR =    1.500    partial core radius                                                         
   POMASS =   24.305; ZVAL   =    8.000    mass and valenz                                          
   RCORE  =    2.000    outmost cutoff radius                                                       
   RWIGS  =    2.000; RWIGS  =    1.058    wigner-seitz radius (au A)                               
   ENMAX  =  403.929; ENMIN  =  302.947 eV                                                          
   RCLOC  =    1.506    cutoff for local pot                                                        
   LCOR   =        T    correct aug charges                                                         
   LPAW   =        T    paw PP                                                                      
   EAUG   =  758.780                                                                                
   DEXC   =    0.000                                                                                
   RMAX   =    2.045    core radius for proj-oper                                                   
   RAUG   =    1.300    factor for augmentation sphere                                              
   RDEP   =    2.025    radius for radial grids                                                     
   RDEPT  =    1.557    core radius for aug-charge                                                  
                                                                                                    
   Atomic configuration                                                                             
    5 entries                                                                                       
     n  l   j            E        occ.                                                              
     1  0  0.50     -1259.6230   2.0000                                                             
     2  0  0.50       -79.8442   2.0000                                                             
     2  1  1.50       -46.6121   6.0000                                                             
     3  0  0.50        -4.7055   2.0000                                                             
     3  2  1.50        -1.3606   0.0000                                                             
   Description                                                                                      
     l       E           TYP  RCUT    TYP  RCUT                                                     
     1    -46.6121073     23  1.600                                                                 
     1      2.7211652     23  1.600                                                                 
     0     -4.7054661     23  2.000                                                                 
     0     61.2262170     23  2.000                                                                 
     2     -1.3605826     23  2.000                                                                 
  local pseudopotential read in
  partial core-charges read in
  partial kinetic energy density read in
  atomic valenz-charges read in
  non local Contribution for L=           1  read in
    real space projection operators read in
  non local Contribution for L=           1  read in
    real space projection operators read in
  non local Contribution for L=           0  read in
    real space projection operators read in
  non local Contribution for L=           0  read in
    real space projection operators read in
  non local Contribution for L=           2  read in
    real space projection operators read in
    PAW grid and wavefunctions read in

   number of l-projection  operators is LMAX  =           5
   number of lm-projection operators is LMMAX =          13

 POTCAR:    PAW_PBE O 08Apr2002                   
   SHA256 =  818f92134a0a090dccd8ba1447fa70422a3b330e708bb4f08108d8ae51209ddf O/POTCAR              
   COPYR  = (c) Copyright 08Apr2002 Georg Kresse                                                    
   COPYR  = This file is part of the software VASP. Any use, copying, and all other rights are regul
   COPYR  = If you do not have a valid VASP license, you may not use, copy or distribute this file. 
   VRHFIN =O: s2p4                                                                                  
   LEXCH  = PE                                                                                      
   EATOM  =   432.3788 eV,   31.7789 Ry                                                             
                                                                                                    
   TITEL  = PAW_PBE O 08Apr2002                                                                     
   LULTRA =        F    use ultrasoft PP ?                                                          
   IUNSCR =        1    unscreen: 0-lin 1-nonlin 2-no                                               
   RPACOR =    1.200    partial core radius                                                         
   POMASS =   16.000; ZVAL   =    6.000    mass and valenz                                          
   RCORE  =    1.520    outmost cutoff radius                                                       
   RWIGS  =    1.550; RWIGS  =    0.820    wigner-seitz radius (au A)                               
   ENMAX  =  400.000; ENMIN  =  300.000 eV                                                          
   ICORE  =        2    local potential                                                             
   LCOR   =        T    correct aug charges                                                         
   LPAW   =        T    paw PP                                                                      
   EAUG   =  605.392                                                                                
   DEXC   =    0.000                                                                                
   RMAX   =    1.553    core radius for proj-oper                                                   
   RAUG   =    1.300    factor for augmentation sphere                                              
   RDEP   =    1.550    radius for radial grids                                                     
   RDEPT  =    1.329    core radius for aug-charge                                                  
                                                                                                    
   Atomic configuration                                                                             
    4 entries                                                                                       
     n  l   j            E        occ.                                                              
     1  0  0.50      -514.6923   2.0000                                                             
     2  0  0.50       -23.9615   2.0000                                                             
     2  1  0.50        -9.0305   4.0000                                                             
     3  2  1.50        -9.5241   0.0000                                                             
   Description                                                                                      
     l       E           TYP  RCUT    TYP  RCUT                                                     
     0    -23.9615318     23  1.200                                                                 
     0     -9.5240782     23  1.200                                                                 
     1     -9.0304911     23  1.520                                                                 
     1      8.1634956     23  1.520                                                                 
     2     -9.5240782      7  1.500                                                                 
  local pseudopotential read in
  partial core-charges read in
  partial kinetic energy density read in
  kinetic energy density of atom read in
  atomic valenz-charges read in
  non local Contribution for L=           0  read in
    real space projection operators read in
  non local Contribution for L=           0  read in
    real space projection operators read in
  non local Contribution for L=           1  read in
    real space projection operators read in
  non local Contribution for L=           1  read in
    real space projection operators read in
    PAW grid and wavefunctions read in

   number of l-projection  operators is LMAX  =           4
   number of lm-projection operators is LMMAX =           8

 -----------------------------------------------------------------------------
|                                                                             |
|               ----> ADVICE to this user running VASP <----                  |
|                                                                             |
|     You have a (more or less) 'large supercell' and for larger cells it     |
|     might be more efficient to use real-space projection operators.         |
|     Therefore, try LREAL= Auto in the INCAR file.                           |
|     Mind: For very accurate calculation, you might also keep the            |
|     reciprocal projection scheme (i.e. LREAL=.FALSE.).                      |
|                                                                             |
 -----------------------------------------------------------------------------

 -----------------------------------------------------------------------------
|                                                                             |
|               ----> ADVICE to this user running VASP <----                  |
|                                                                             |
|     You enforced a specific xc type in the INCAR file but a different       |
|     type was found in the POTCAR file.                                      |
|     I HOPE YOU KNOW WHAT YOU ARE DOING!                                     |
|                                                                             |
 -----------------------------------------------------------------------------

  PAW_PBE Mg_pv 13Apr2007               :
 energy of atom  1       EATOM=-1056.7344
 kinetic energy error for atom=    0.0221 (will be added to EATOM!!)
  PAW_PBE O 08Apr2002                   :
 energy of atom  2       EATOM= -432.3788
 kinetic energy error for atom=    0.0168 (will be added to EATOM!!)


 POSCAR: Mg  O
  positions in direct lattice
  No initial velocities read in
 exchange correlation table for  LEXCH =       40
   RHO(1)=    0.500       N(1)  =     2000
   RHO(2)=  100.500       N(2)  =     4000



--------------------------------------------------------------------------------------------------------


 ion  position               nearest neighbor table
   1  0.250  0.000  0.353-  35 2.09  36 2.09  43 2.09  52 2.09  33 2.09
   2  0.500  0.250  0.353-  35 2.09  36 2.09  44 2.09  51 2.09  34 2.09
   3  0.250  0.250  0.451-  33 2.09  34 2.09  41 2.09  50 2.09  35 2.09  39 2.10
   4  0.500  0.000  0.451-  33 2.09  34 2.09  42 2.09  49 2.09  36 2.09  40 2.10
   5  0.250  0.000  0.550-  56 2.09  39 2.09  40 2.09  47 2.09  33 2.10  37 2.11
   6  0.500  0.250  0.550-  40 2.08  39 2.08  55 2.08  48 2.08  34 2.10  38 2.15
   7  0.248  0.250  0.648-  54 2.07  37 2.08  39 2.09  45 2.09  38 2.11
   8  0.500  0.998  0.647-  46 2.07  40 2.08  37 2.09  53 2.09  38 2.11
   9  0.250  0.500  0.353-  35 2.09  43 2.09  44 2.09  60 2.09  41 2.09
  10  0.500  0.750  0.353-  36 2.09  43 2.09  44 2.09  59 2.09  42 2.09
  11  0.250  0.750  0.451-  33 2.09  41 2.09  42 2.09  58 2.09  43 2.09  47 2.09
  12  0.500  0.500  0.451-  34 2.09  41 2.09  42 2.09  57 2.09  44 2.09  48 2.10
  13  0.250  0.500  0.550-  64 2.09  39 2.09  47 2.09  48 2.09  41 2.10  45 2.12
  14  0.500  0.750  0.550-  47 2.09  63 2.09  40 2.09  48 2.09  42 2.10  46 2.12
  15  0.250  0.750  0.647-  62 2.08  47 2.09  37 2.09  45 2.09  46 2.09
  16  0.500  0.503  0.647-  46 2.06  48 2.08  45 2.09  61 2.09  38 2.11
  17  0.750  0.000  0.353-  36 2.09  51 2.09  52 2.09  59 2.09  49 2.09
  18  0.000  0.250  0.353-  35 2.09  51 2.09  52 2.09  60 2.09  50 2.09
  19  0.750  0.250  0.451-  34 2.09  49 2.09  50 2.09  57 2.09  51 2.09  55 2.10
  20  0.000  0.000  0.451-  33 2.09  49 2.09  50 2.09  58 2.09  52 2.09  56 2.09
  21  0.750  0.000  0.550-  56 2.09  55 2.09  40 2.09  63 2.09  49 2.10  53 2.11
  22  0.000  0.250  0.550-  56 2.09  64 2.09  39 2.09  55 2.09  50 2.10  54 2.12
  23  0.752  0.250  0.648-  54 2.07  53 2.08  55 2.09  61 2.09  38 2.11
  24  1.000  1.000  0.648-  62 2.09  56 2.09  53 2.09  37 2.09  54 2.09
  25  0.750  0.500  0.353-  44 2.09  51 2.09  59 2.09  60 2.09  57 2.09
  26  0.000  0.750  0.353-  43 2.09  52 2.09  59 2.09  60 2.09  58 2.09
  27  0.750  0.750  0.451-  42 2.09  49 2.09  57 2.09  58 2.09  59 2.09  63 2.09
  28  0.000  0.500  0.451-  41 2.09  50 2.09  57 2.09  58 2.09  60 2.09  64 2.09
  29  0.750  0.500  0.550-  64 2.09  55 2.09  63 2.09  48 2.09  57 2.10  61 2.12
  30  0.000  0.750  0.550-  64 2.09  47 2.09  63 2.09  56 2.09  58 2.10  62 2.12
  31  0.750  0.750  0.647-  62 2.08  63 2.09  53 2.09  61 2.09  46 2.09
  32  1.000  0.500  0.647-  62 2.08  64 2.09  61 2.09  45 2.09  54 2.09
  33  0.250  0.000  0.451-   3 2.09   4 2.09  11 2.09  20 2.09   1 2.09   5 2.10
  34  0.500  0.250  0.451-   3 2.09   4 2.09  12 2.09  19 2.09   2 2.09   6 2.10
  35  0.250  0.250  0.353-   1 2.09   2 2.09   9 2.09  18 2.09   3 2.09
  36  0.500  0.000  0.353-   1 2.09   2 2.09  10 2.09  17 2.09   4 2.09
  37  0.250  0.000  0.649-   7 2.08   8 2.09  15 2.09  24 2.09   5 2.11
  38  0.500  0.250  0.651-   7 2.11  23 2.11   8 2.11  16 2.11   6 2.15
  39  0.250  0.250  0.550-   6 2.08   7 2.09  13 2.09   5 2.09  22 2.09   3 2.10
  40  0.500  0.000  0.550-   8 2.08   6 2.08   5 2.09  21 2.09  14 2.09   4 2.10
  41  0.250  0.500  0.451-   3 2.09  11 2.09  12 2.09  28 2.09   9 2.09  13 2.10
  42  0.500  0.750  0.451-   4 2.09  11 2.09  12 2.09  27 2.09  10 2.09  14 2.10
  43  0.250  0.750  0.353-   1 2.09   9 2.09  10 2.09  26 2.09  11 2.09
  44  0.500  0.500  0.353-   2 2.09   9 2.09  10 2.09  25 2.09  12 2.09
  45  0.250  0.500  0.649-  16 2.09   7 2.09  32 2.09  15 2.09  13 2.12
  46  0.500  0.750  0.649-  16 2.06   8 2.07  15 2.09  31 2.09  14 2.12
  47  0.250  0.750  0.549-  15 2.09  14 2.09  13 2.09  30 2.09   5 2.09  11 2.09
  48  0.500  0.500  0.550-  16 2.08   6 2.08  13 2.09  29 2.09  14 2.09  12 2.10
  49  0.750  0.000  0.451-   4 2.09  19 2.09  20 2.09  27 2.09  17 2.09  21 2.10
  50  0.000  0.250  0.451-   3 2.09  19 2.09  20 2.09  28 2.09  18 2.09  22 2.10
  51  0.750  0.250  0.353-   2 2.09  17 2.09  18 2.09  25 2.09  19 2.09
  52  0.000  0.000  0.353-   1 2.09  17 2.09  18 2.09  26 2.09  20 2.09
  53  0.750  0.000  0.649-  23 2.08   8 2.09  31 2.09  24 2.09  21 2.11
  54  1.000  0.250  0.649-  23 2.07   7 2.07  32 2.09  24 2.09  22 2.12
  55  0.750  0.250  0.550-   6 2.08  23 2.09  29 2.09  21 2.09  22 2.09  19 2.10
  56  1.000  0.000  0.549-  22 2.09  21 2.09   5 2.09  30 2.09  24 2.09  20 2.09
  57  0.750  0.500  0.451-  12 2.09  19 2.09  27 2.09  28 2.09  25 2.09  29 2.10
  58  0.000  0.750  0.451-  11 2.09  20 2.09  27 2.09  28 2.09  26 2.09  30 2.10
  59  0.750  0.750  0.353-  10 2.09  17 2.09  25 2.09  26 2.09  27 2.09
  60  0.000  0.500  0.353-   9 2.09  18 2.09  25 2.09  26 2.09  28 2.09
  61  0.750  0.500  0.649-  16 2.09  23 2.09  32 2.09  31 2.09  29 2.12
  62  1.000  0.750  0.649-  31 2.08  15 2.08  32 2.08  24 2.09  30 2.12
  63  0.750  0.750  0.549-  31 2.09  14 2.09  29 2.09  30 2.09  21 2.09  27 2.09
  64  1.000  0.500  0.549-  32 2.09  13 2.09  29 2.09  22 2.09  30 2.09  28 2.09


IMPORTANT INFORMATION: All symmetrisations will be switched off!
NOSYMM: (Re-)initialisation of all symmetry stuff for point group C_1.


----------------------------------------------------------------------------------------

                                     Primitive cell                                     

  volume of cell :    1482.1129

  direct lattice vectors                    reciprocal lattice vectors
     8.349111827  0.000000000  0.000000000     0.119773219  0.000000000  0.000000000
     0.000000000  8.349111827  0.000000000     0.000000000  0.119773219  0.000000000
     0.000000000  0.000000000 21.261833870     0.000000000  0.000000000  0.047032632

  length of vectors
     8.349111827  8.349111827 21.261833870     0.119773219  0.119773219  0.047032632

  position of ions in fractional coordinates (direct lattice)
     0.250000000  0.000000000  0.352744737
     0.500000000  0.250000000  0.352744737
     0.250000000  0.250000000  0.450914912
     0.500000000  0.000000000  0.450914912
     0.249906234  0.000004547  0.549792456
     0.499999911  0.249983236  0.549640692
     0.247646064  0.249714763  0.647664475
     0.499999942  0.997565359  0.647475736
     0.250000000  0.500000000  0.352744737
     0.500000000  0.750000000  0.352744737
     0.250000000  0.750000000  0.450914912
     0.500000000  0.500000000  0.450914912
     0.249876202  0.499973763  0.549782369
     0.499999918  0.750165627  0.549561151
     0.249590324  0.750178239  0.647470288
     0.499999900  0.503076118  0.647206753
     0.750000000  0.000000000  0.352744737
     0.000000000  0.250000000  0.352744737
     0.750000000  0.250000000  0.450914912
     0.000000000  0.000000000  0.450914912
     0.750093722  0.000004531  0.549792430
     0.000000019  0.249919517  0.549669734
     0.752353908  0.249714742  0.647664295
     0.999999956  0.999606868  0.647600710
     0.750000000  0.500000000  0.352744737
     0.000000000  0.750000000  0.352744737
     0.750000000  0.750000000  0.450914912
     0.000000000  0.500000000  0.450914912
     0.750123733  0.499973802  0.549782367
     0.000000003  0.749966950  0.549710641
     0.750409613  0.750178230  0.647470203
     0.999999964  0.500257685  0.647484152
     0.250000000  0.000000000  0.450914912
     0.500000000  0.250000000  0.450914912
     0.250000000  0.250000000  0.352744737
     0.500000000  0.000000000  0.352744737
     0.250181882  0.000068224  0.649150987
     0.499999967  0.250007090  0.650603210
     0.250424474  0.250053913  0.549582719
     0.499999950  0.000448588  0.549514812
     0.250000000  0.500000000  0.450914912
     0.500000000  0.750000000  0.450914912
     0.250000000  0.750000000  0.352744737
     0.500000000  0.500000000  0.352744737
     0.250136688  0.499823484  0.649353795
     0.499999962  0.750135951  0.649116847
     0.250073171  0.749906300  0.549363387
     0.499999950  0.499624002  0.549542950
     0.750000000  0.000000000  0.450914912
     0.000000000  0.250000000  0.450914912
     0.750000000  0.250000000  0.352744737
     0.000000000  0.000000000  0.352744737
     0.749818080  0.000068188  0.649150956
     0.999999970  0.250025384  0.649239679
     0.749575463  0.250053900  0.549582676
     0.999999974  0.000076880  0.549377106
     0.750000000  0.500000000  0.450914912
     0.000000000  0.750000000  0.450914912
     0.750000000  0.750000000  0.352744737
     0.000000000  0.500000000  0.352744737
     0.749863251  0.499823485  0.649353700
     0.999999961  0.749904634  0.649378826
     0.749926743  0.749906307  0.549363367
     0.999999999  0.499914921  0.549388304

  ion indices of the primitive-cell ions
   primitive index   ion index
                 1           1
                 2           2
                 3           3
                 4           4
                 5           5
                 6           6
                 7           7
                 8           8
                 9           9
                10          10
                11          11
                12          12
                13          13
                14          14
                15          15
                16          16
                17          17
                18          18
                19          19
                20          20
                21          21
                22          22
                23          23
                24          24
                25          25
                26          26
                27          27
                28          28
                29          29
                30          30
                31          31
                32          32
                33          33
                34          34
                35          35
                36          36
                37          37
                38          38
                39          39
                40          40
                41          41
                42          42
                43          43
                44          44
                45          45
                46          46
                47          47
                48          48
                49          49
                50          50
                51          51
                52          52
                53          53
                54          54
                55          55
                56          56
                57          57
                58          58
                59          59
                60          60
                61          61
                62          62
                63          63
                64          64

----------------------------------------------------------------------------------------



 KPOINTS: pymatgen v2020.8.13 with grid density = 

Automatic generation of k-mesh.
 Grid dimensions read from file:
 generate k-points for:    2    2    1

 Generating k-lattice:

  Cartesian coordinates                     Fractional coordinates (reciprocal lattice)
     0.059886610  0.000000000  0.000000000     0.500000000  0.000000000  0.000000000
     0.000000000  0.059886610  0.000000000     0.000000000  0.500000000  0.000000000
     0.000000000  0.000000000  0.047032632     0.000000000  0.000000000  1.000000000

  Length of vectors
     0.059886610  0.059886610  0.047032632

  Shift w.r.t. Gamma in fractional coordinates (k-lattice)
     0.000000000  0.000000000  0.000000000

 
 Subroutine IBZKPT returns following result:
 ===========================================
 
 Found      4 irreducible k-points:
 
 Following reciprocal coordinates:
            Coordinates               Weight
  0.000000  0.000000  0.000000      1.000000
  0.500000  0.000000  0.000000      1.000000
  0.000000  0.500000  0.000000      1.000000
  0.500000  0.500000  0.000000      1.000000
 
 Following cartesian coordinates:
            Coordinates               Weight
  0.000000  0.000000  0.000000      1.000000
  0.059887  0.000000  0.000000      1.000000
  0.000000  0.059887  0.000000      1.000000
  0.059887  0.059887  0.000000      1.000000
 


--------------------------------------------------------------------------------------------------------




 Dimension of arrays:
   k-points           NKPTS =      4   k-points in BZ     NKDIM =      4   number of bands    NBANDS=    320
   number of dos      NEDOS =    301   number of ions     NIONS =     64
   non local maximal  LDIM  =      5   non local SUM 2l+1 LMDIM =     13
   total plane-waves  NPLWV = 882000
   max r-space proj   IRMAX =      1   max aug-charges    IRDMAX=  11926
   dimension x,y,z NGX =    70 NGY =   70 NGZ =  180
   dimension x,y,z NGXF=   140 NGYF=  140 NGZF=  360
   support grid    NGXF=   140 NGYF=  140 NGZF=  360
   ions per type =              32  32
   NGX,Y,Z   is equivalent  to a cutoff of  13.94, 13.94, 14.07 a.u.
   NGXF,Y,Z  is equivalent  to a cutoff of  27.88, 27.88, 28.15 a.u.

 SYSTEM =  MgO-rocksalt                            
 POSCAR =  Mg  O                                   

--------------------------------------------------------------------------------------------------------


  energy-cutoff  :      600.00
  volume of cell :     1482.11
      direct lattice vectors                 reciprocal lattice vectors
     8.349111827  0.000000000  0.000000000     0.119773219  0.000000000  0.000000000
     0.000000000  8.349111827  0.000000000     0.000000000  0.119773219  0.000000000
     0.000000000  0.000000000 21.261833870     0.000000000  0.000000000  0.047032632

  length of vectors
     8.349111827  8.349111827 21.261833870     0.119773219  0.119773219  0.047032632



 k-points in units of 2pi/SCALE and weight: pymatgen v2020.8.13 with grid density = 
   0.00000000  0.00000000  0.00000000       0.250
   0.05988661  0.00000000  0.00000000       0.250
   0.00000000  0.05988661  0.00000000       0.250
   0.05988661  0.05988661  0.00000000       0.250

 k-points in reciprocal lattice and weights: pymatgen v2020.8.13 with grid density = 
   0.00000000  0.00000000  0.00000000       0.250
   0.50000000  0.00000000  0.00000000       0.250
   0.00000000  0.50000000  0.00000000       0.250
   0.50000000  0.50000000  0.00000000       0.250

 position of ions in fractional coordinates (direct lattice) 
   0.25000000  0.00000000  0.35274474
   0.50000000  0.25000000  0.35274474
   0.25000000  0.25000000  0.45091491
   0.50000000  0.00000000  0.45091491
   0.24990623  0.00000455  0.54979246
   0.49999991  0.24998324  0.54964069
   0.24764606  0.24971476  0.64766447
   0.49999994  0.99756536  0.64747574
   0.25000000  0.50000000  0.35274474
   0.50000000  0.75000000  0.35274474
   0.25000000  0.75000000  0.45091491
   0.50000000  0.50000000  0.45091491
   0.24987620  0.49997376  0.54978237
   0.49999992  0.75016563  0.54956115
   0.24959032  0.75017824  0.64747029
   0.49999990  0.50307612  0.64720675
   0.75000000  0.00000000  0.35274474
   0.00000000  0.25000000  0.35274474
   0.75000000  0.25000000  0.45091491
   0.00000000  0.00000000  0.45091491
   0.75009372  0.00000453  0.54979243
   0.00000002  0.24991952  0.54966973
   0.75235391  0.24971474  0.64766430
   0.99999996  0.99960687  0.64760071
   0.75000000  0.50000000  0.35274474
   0.00000000  0.75000000  0.35274474
   0.75000000  0.75000000  0.45091491
   0.00000000  0.50000000  0.45091491
   0.75012373  0.49997380  0.54978237
   0.00000000  0.74996695  0.54971064
   0.75040961  0.75017823  0.64747020
   0.99999996  0.50025769  0.64748415
   0.25000000  0.00000000  0.45091491
   0.50000000  0.25000000  0.45091491
   0.25000000  0.25000000  0.35274474
   0.50000000  0.00000000  0.35274474
   0.25018188  0.00006822  0.64915099
   0.49999997  0.25000709  0.65060321
   0.25042447  0.25005391  0.54958272
   0.49999995  0.00044859  0.54951481
   0.25000000  0.50000000  0.45091491
   0.50000000  0.75000000  0.45091491
   0.25000000  0.75000000  0.35274474
   0.50000000  0.50000000  0.35274474
   0.25013669  0.49982348  0.64935380
   0.49999996  0.75013595  0.64911685
   0.25007317  0.74990630  0.54936339
   0.49999995  0.49962400  0.54954295
   0.75000000  0.00000000  0.45091491
   0.00000000  0.25000000  0.45091491
   0.75000000  0.25000000  0.35274474
   0.00000000  0.00000000  0.35274474
   0.74981808  0.00006819  0.64915096
   0.99999997  0.25002538  0.64923968
   0.74957546  0.25005390  0.54958268
   0.99999997  0.00007688  0.54937711
   0.75000000  0.50000000  0.45091491
   0.00000000  0.75000000  0.45091491
   0.75000000  0.75000000  0.35274474
   0.00000000  0.50000000  0.35274474
   0.74986325  0.49982349  0.64935370
   0.99999996  0.74990463  0.64937883
   0.74992674  0.74990631  0.54936337
   1.00000000  0.49991492  0.54938830

 position of ions in cartesian coordinates  (Angst):
   2.08727796  0.00000000  7.50000000
   4.17455591  2.08727796  7.50000000
   2.08727796  2.08727796  9.58727796
   4.17455591  0.00000000  9.58727796
   2.08649509  0.00003797 11.68959587
   4.17455517  2.08713799 11.68636908
   2.06762468  2.08489648 13.77053446
   4.17455543  8.32878474 13.76652153
   2.08727796  4.17455591  7.50000000
   4.17455591  6.26183387  7.50000000
   2.08727796  6.26183387  9.58727796
   4.17455591  4.17455591  9.58727796
   2.08624435  4.17433686 11.68938139
   4.17455523  6.26321671 11.68467790
   2.08385752  6.26332201 13.76640570
   4.17455508  4.20023877 13.76080246
   6.26183387  0.00000000  7.50000000
   0.00000000  2.08727796  7.50000000
   6.26183387  2.08727796  9.58727796
   0.00000000  0.00000000  9.58727796
   6.26261637  0.00003783 11.68959531
   0.00000016  2.08660600 11.68698656
   6.28148691  2.08489631 13.77053065
   8.34911146  8.34582953 13.76917871
   6.26183387  4.17455591  7.50000000
   0.00000000  6.26183387  7.50000000
   6.26183387  6.26183387  9.58727796
   0.00000000  4.17455591  9.58727796
   6.26286693  4.17433718 11.68938136
   0.00000003  6.26155793 11.68785632
   6.26525378  6.26332193 13.76640390
   8.34911153  4.17670735 13.76670047
   2.08727796  0.00000000  9.58727796
   4.17455591  2.08727796  9.58727796
   2.08727796  2.08727796  7.50000000
   4.17455591  0.00000000  7.50000000
   2.08879651  0.00056961 13.80214044
   4.17455564  2.08733715 13.83301736
   2.09082194  2.08772808 11.68513647
   4.17455549  0.00374531 11.68369264
   2.08727796  4.17455591  9.58727796
   4.17455591  6.26183387  9.58727796
   2.08727796  6.26183387  7.50000000
   4.17455591  4.17455591  7.50000000
   2.08841918  4.17308216 13.80645252
   4.17455560  6.26296894 13.80141457
   2.08788887  6.26105156 11.68047308
   4.17455549  4.17141667 11.68429090
   6.26183387  0.00000000  9.58727796
   0.00000000  2.08727796  9.58727796
   6.26183387  2.08727796  7.50000000
   0.00000000  0.00000000  7.50000000
   6.26031500  0.00056931 13.80213978
   8.34911158  2.08748989 13.80402620
   6.25828936  2.08772798 11.68513555
   8.34911161  0.00064188 11.68076476
   6.26183387  4.17455591  9.58727796
   0.00000000  6.26183387  9.58727796
   6.26183387  6.26183387  7.50000000
   0.00000000  4.17455591  7.50000000
   6.26069214  4.17308217 13.80645049
   8.34911150  6.26103765 13.80698472
   6.26122224  6.26105162 11.68047264
   8.34911182  4.17384558 11.68100285



--------------------------------------------------------------------------------------------------------

--------------------------------------- Iteration      FINAL  ---------------------------------------


--------------------OUTCAR has been truncated-------------------------


--------------------OUTCAR has been truncated-------------------------


--------------------OUTCAR has been truncated-------------------------


--------------------OUTCAR has been truncated-------------------------


--------------------OUTCAR has been truncated-------------------------


--------------------OUTCAR has been truncated-------------------------


--------------------OUTCAR has been truncated-------------------------


--------------------OUTCAR has been truncated-------------------------


--------------------OUTCAR has been truncated-------------------------


--------------------OUTCAR has been truncated-------------------------


  FORCE on cell =-STRESS in cart. coord.  units (eV):
  Direction    XX          YY          ZZ          XY          YZ          ZX
  --------------------------------------------------------------------------------------
  Alpha Z   897.52708   897.52708   897.52708
  Ewald  166087.77898166087.82203************     0.00000     0.12727    -0.00007
  Hartree176062.19703176062.19697************     0.00000     0.09617    -0.00004
  E(xc)   -2526.61741 -2526.61719 -2529.41070    -0.00000     0.00035    -0.00000
  Local  ************************352709.40935    -0.00002    -0.23208     0.00012
  n-local -2811.20067 -2811.19753 -2831.26113    -0.00001     0.00252    -0.00001
  augment  1076.89465  1076.89504  1067.78360     0.00000     0.00200    -0.00000
  Kinetic  7348.63062  7348.63619  7379.59068     0.00002     0.00421     0.00001
  Fock        0.00000     0.00000     0.00000     0.00000     0.00000     0.00000
  -------------------------------------------------------------------------------------
  Total      11.79715    11.81029    28.66340     0.00001     0.00043     0.00001
  in kB      12.75283    12.76703    30.98539     0.00001     0.00047     0.00001
  external pressure =       18.84 kB  Pullay stress =        0.00 kB


 VOLUME and BASIS-vectors are now :
 -----------------------------------------------------------------------------
  energy-cutoff  :      600.00
  volume of cell :     1482.11
      direct lattice vectors                 reciprocal lattice vectors
     8.349111827  0.000000000  0.000000000     0.119773219  0.000000000  0.000000000
     0.000000000  8.349111827  0.000000000     0.000000000  0.119773219  0.000000000
     0.000000000  0.000000000 21.261833870     0.000000000  0.000000000  0.047032632

  length of vectors
     8.349111827  8.349111827 21.261833870     0.119773219  0.119773219  0.047032632


 FORCES acting on ions:
    Electron-Ion                     Ewald-Force                    Non-Local-Force
 -----------------------------------------------------------------------------------------------
   -.457E-01 -.922E-01 0.212E+04   0.461E-01 0.938E-01 -.212E+04   -.205E-03 -.114E-02 -.652E+01
   0.653E-06 -.116E-01 0.212E+04   -.520E-05 0.118E-01 -.212E+04   0.461E-05 -.127E-03 -.653E+01
   -.201E+00 -.207E-01 0.702E+03   0.228E+00 0.222E-01 -.702E+03   -.205E-01 -.136E-02 0.464E+00
   0.160E-04 -.418E+00 0.702E+03   -.226E-04 0.458E+00 -.703E+03   0.430E-05 -.287E-01 0.449E+00
   -.931E+00 -.115E+01 -.708E+03   0.100E+01 0.125E+01 0.709E+03   -.408E-01 -.742E-01 -.317E+00
   -.740E-04 -.326E+00 -.715E+03   0.647E-04 0.313E+00 0.716E+03   0.129E-04 0.156E-01 -.213E+00
   -.951E+01 -.934E+00 -.211E+04   0.993E+01 0.974E+00 0.210E+04   -.550E-01 -.299E-02 0.552E+01
   -.228E-03 -.974E+01 -.211E+04   0.227E-03 0.101E+02 0.210E+04   0.504E-05 -.674E-02 0.553E+01
   -.528E-01 0.925E-01 0.212E+04   0.531E-01 -.942E-01 -.212E+04   -.213E-03 0.122E-02 -.652E+01
   0.527E-05 0.128E-01 0.212E+04   -.472E-05 -.126E-01 -.212E+04   0.103E-05 -.107E-03 -.650E+01
   -.412E-01 0.616E-02 0.703E+03   0.259E-01 -.970E-02 -.703E+03   0.109E-01 0.265E-02 0.438E+00
   -.415E-05 0.403E+00 0.702E+03   0.720E-06 -.436E+00 -.702E+03   0.156E-05 0.249E-01 0.461E+00
   -.108E+01 0.128E+01 -.709E+03   0.114E+01 -.137E+01 0.709E+03   -.296E-01 0.697E-01 -.287E+00
   -.408E-04 0.265E+00 -.705E+03   0.372E-04 -.244E+00 0.705E+03   0.665E-05 -.274E-01 -.108E+00
   -.450E-01 0.771E+00 -.211E+04   -.135E+00 -.785E+00 0.210E+04   0.172E+00 -.123E-01 0.562E+01
   -.301E-03 0.110E+02 -.211E+04   0.302E-03 -.114E+02 0.210E+04   0.109E-04 -.804E-01 0.548E+01
   0.457E-01 -.922E-01 0.212E+04   -.461E-01 0.938E-01 -.212E+04   0.208E-03 -.114E-02 -.652E+01
   -.734E-05 -.586E-02 0.212E+04   0.556E-05 0.583E-02 -.212E+04   -.338E-05 0.602E-05 -.651E+01
   0.201E+00 -.207E-01 0.702E+03   -.228E+00 0.223E-01 -.702E+03   0.205E-01 -.135E-02 0.464E+00
   -.394E-04 -.223E+00 0.703E+03   0.415E-04 0.216E+00 -.703E+03   -.244E-05 0.456E-02 0.444E+00
   0.931E+00 -.115E+01 -.708E+03   -.100E+01 0.125E+01 0.709E+03   0.408E-01 -.742E-01 -.317E+00
   0.173E-04 -.209E+00 -.706E+03   -.140E-05 0.205E+00 0.706E+03   -.140E-04 0.112E-01 -.128E+00
   0.951E+01 -.934E+00 -.211E+04   -.993E+01 0.974E+00 0.210E+04   0.550E-01 -.299E-02 0.552E+01
   0.124E-04 -.867E-01 -.211E+04   -.199E-04 -.788E-01 0.210E+04   0.133E-04 0.156E+00 0.565E+01
   0.528E-01 0.925E-01 0.212E+04   -.531E-01 -.942E-01 -.212E+04   0.209E-03 0.122E-02 -.652E+01
   -.628E-05 0.411E-02 0.212E+04   0.495E-05 -.421E-02 -.212E+04   -.379E-05 0.613E-04 -.652E+01
   0.412E-01 0.619E-02 0.703E+03   -.259E-01 -.973E-02 -.703E+03   -.109E-01 0.264E-02 0.438E+00
   -.198E-05 0.266E+00 0.703E+03   -.402E-06 -.262E+00 -.703E+03   -.202E-05 -.306E-02 0.447E+00
   0.108E+01 0.128E+01 -.709E+03   -.114E+01 -.138E+01 0.709E+03   0.296E-01 0.696E-01 -.287E+00
   0.451E-04 -.749E-01 -.708E+03   -.302E-04 0.683E-01 0.708E+03   -.149E-04 0.839E-02 -.128E+00
   0.451E-01 0.771E+00 -.211E+04   0.135E+00 -.785E+00 0.210E+04   -.172E+00 -.123E-01 0.562E+01
   0.827E-04 -.229E-01 -.211E+04   -.884E-04 0.179E+00 0.210E+04   0.260E-05 -.143E+00 0.559E+01
   -.198E+00 -.334E+00 0.526E+03   0.203E+00 0.338E+00 -.526E+03   -.624E-02 -.410E-02 -.959E-01
   -.245E-05 -.601E-01 0.526E+03   -.364E-06 0.577E-01 -.526E+03   -.361E-05 0.374E-02 -.985E-01
   -.407E-01 -.563E-02 0.159E+04   0.439E-01 0.585E-02 -.160E+04   -.443E-02 -.325E-03 0.352E+01
   -.134E-05 -.744E-01 0.159E+04   -.507E-05 0.788E-01 -.160E+04   0.184E-05 -.614E-02 0.352E+01
   -.133E+01 -.146E+01 -.160E+04   0.156E+01 0.168E+01 0.161E+04   -.328E+00 -.303E+00 -.486E+01
   -.216E-03 -.115E+01 -.161E+04   0.234E-03 0.128E+01 0.161E+04   -.127E-04 -.136E+00 -.527E+01
   -.177E+01 -.159E+00 -.528E+03   0.191E+01 0.167E+00 0.528E+03   -.224E+00 -.145E-01 0.145E+00
   -.550E-04 -.212E+01 -.527E+03   0.644E-04 0.227E+01 0.527E+03   -.600E-05 -.237E+00 0.185E+00
   -.246E+00 0.342E+00 0.526E+03   0.251E+00 -.343E+00 -.526E+03   -.570E-02 0.931E-03 -.977E-01
   0.884E-06 0.863E-01 0.527E+03   0.194E-06 -.919E-01 -.527E+03   -.562E-05 0.659E-02 -.212E-01
   -.246E-01 0.542E-02 0.160E+04   0.230E-01 -.554E-02 -.160E+04   0.223E-02 0.177E-03 0.353E+01
   0.498E-05 0.736E-01 0.159E+04   -.243E-05 -.782E-01 -.160E+04   -.417E-05 0.653E-02 0.352E+01
   -.162E+01 0.166E+01 -.160E+04   0.185E+01 -.192E+01 0.161E+04   -.315E+00 0.352E+00 -.498E+01
   -.124E-03 -.768E-01 -.160E+04   0.137E-03 0.106E+00 0.161E+04   -.799E-05 -.187E-01 -.485E+01
   0.105E+00 0.768E-01 -.525E+03   -.902E-01 -.837E-01 0.524E+03   -.252E-01 0.162E-01 0.311E+00
   -.285E-04 0.214E+01 -.527E+03   0.393E-04 -.228E+01 0.526E+03   -.729E-05 0.229E+00 0.254E+00
   0.198E+00 -.334E+00 0.526E+03   -.203E+00 0.338E+00 -.526E+03   0.624E-02 -.410E-02 -.959E-01
   -.132E-04 -.378E-01 0.527E+03   0.146E-04 0.404E-01 -.526E+03   0.203E-05 -.314E-02 -.448E-01
   0.408E-01 -.563E-02 0.159E+04   -.439E-01 0.586E-02 -.160E+04   0.443E-02 -.326E-03 0.352E+01
   -.942E-06 -.571E-01 0.160E+04   0.543E-05 0.570E-01 -.160E+04   -.249E-05 0.234E-03 0.352E+01
   0.133E+01 -.146E+01 -.160E+04   -.156E+01 0.168E+01 0.161E+04   0.328E+00 -.303E+00 -.486E+01
   0.734E-04 -.104E+00 -.160E+04   -.746E-04 0.142E+00 0.161E+04   0.439E-06 -.594E-01 -.480E+01
   0.177E+01 -.159E+00 -.528E+03   -.191E+01 0.167E+00 0.528E+03   0.224E+00 -.146E-01 0.145E+00
   -.387E-04 0.547E-02 -.525E+03   0.358E-04 -.850E-02 0.525E+03   0.369E-05 -.947E-02 0.295E+00
   0.246E+00 0.342E+00 0.526E+03   -.251E+00 -.343E+00 -.526E+03   0.570E-02 0.940E-03 -.977E-01
   -.118E-04 -.383E-02 0.527E+03   0.118E-04 0.508E-02 -.527E+03   -.488E-06 -.153E-02 -.619E-01
   0.246E-01 0.542E-02 0.160E+04   -.230E-01 -.554E-02 -.160E+04   -.224E-02 0.174E-03 0.353E+01
   -.923E-06 0.584E-01 0.160E+04   0.240E-05 -.582E-01 -.160E+04   -.342E-05 -.358E-03 0.352E+01
   0.162E+01 0.166E+01 -.160E+04   -.185E+01 -.193E+01 0.161E+04   0.315E+00 0.352E+00 -.498E+01
   0.453E-04 0.198E+00 -.160E+04   -.481E-04 -.248E+00 0.161E+04   0.563E-05 0.692E-01 -.492E+01
   -.105E+00 0.767E-01 -.525E+03   0.902E-01 -.837E-01 0.524E+03   0.252E-01 0.162E-01 0.311E+00
   0.221E-04 0.232E+00 -.525E+03   -.365E-04 -.248E+00 0.525E+03   0.871E-05 0.226E-01 0.311E+00
 -----------------------------------------------------------------------------------------------
   -.164E-04 0.144E+00 0.158E+02   0.577E-12 -.394E-12 -.205E-11   0.903E-05 -.145E+00 -.158E+02


 POSITION                                       TOTAL-FORCE (eV/Angst)
 -----------------------------------------------------------------------------------
      2.08728      0.00000      7.50000         0.000105      0.000469     -0.015506
      4.17456      2.08728      7.50000         0.000000      0.000052     -0.013663
      2.08728      2.08728      9.58728         0.006657      0.000219      0.060726
      4.17456      0.00000      9.58728        -0.000002      0.010628      0.055298
      2.08650      0.00004     11.68960         0.029051      0.026659     -0.004750
      4.17456      2.08714     11.68637         0.000004      0.002714      0.225611
      2.06762      2.08490     13.77053         0.365894      0.036954      0.353125
      4.17456      8.32878     13.76652         0.000004      0.364420      0.366563
      2.08728      4.17456      7.50000         0.000093     -0.000471     -0.015317
      4.17456      6.26183      7.50000         0.000002      0.000084     -0.018976
      2.08728      6.26183      9.58728        -0.004326     -0.000860      0.038535
      4.17456      4.17456      9.58728        -0.000002     -0.008043      0.058436
      2.08624      4.17434     11.68938         0.029131     -0.028073      0.014232
      4.17456      6.26322     11.68468         0.000003     -0.005697     -0.018519
      2.08386      6.26332     13.76641        -0.007564     -0.025692      0.323532
      4.17456      4.20024     13.76080         0.000012     -0.415658      0.424581
      6.26183      0.00000      7.50000        -0.000102      0.000462     -0.015502
      0.00000      2.08728      7.50000        -0.000005     -0.000004     -0.017929
      6.26183      2.08728      9.58728        -0.006659      0.000219      0.060725
      0.00000      0.00000      9.58728        -0.000000     -0.002099      0.038679
      6.26262      0.00004     11.68960        -0.029049      0.026656     -0.004751
      0.00000      2.08661     11.68699         0.000002      0.006412     -0.020911
      6.28149      2.08490     13.77053        -0.365903      0.036955      0.353134
      8.34911      8.34583     13.76918         0.000006     -0.008827      0.298014
      6.26183      4.17456      7.50000        -0.000097     -0.000469     -0.015319
      0.00000      6.26183      7.50000        -0.000005     -0.000022     -0.016302
      6.26183      6.26183      9.58728         0.004324     -0.000864      0.038532
      0.00000      4.17456      9.58728        -0.000004      0.000820      0.039486
      6.26287      4.17434     11.68938        -0.029127     -0.028072      0.014225
      0.00000      6.26156     11.68786         0.000000      0.001803     -0.011692
      6.26525      6.26332     13.76640         0.007558     -0.025689      0.323539
      8.34911      4.17671     13.76670        -0.000003      0.012760      0.332065
      2.08728      0.00000      9.58728        -0.001045     -0.000666      0.080491
      4.17456      2.08728      9.58728        -0.000006      0.001387      0.062156
      2.08728      2.08728      7.50000        -0.001304     -0.000085     -0.721090
      4.17456      0.00000      7.50000        -0.000004     -0.001784     -0.720733
      2.08880      0.00057     13.80214        -0.091862     -0.081888      0.291210
      4.17456      2.08734     13.83302         0.000005     -0.007039      0.077308
      2.09082      2.08773     11.68514        -0.082088     -0.007076     -0.040888
      4.17456      0.00375     11.68369         0.000004     -0.081020     -0.037882
      2.08728      4.17456      9.58728        -0.000615     -0.000203      0.078720
      4.17456      6.26183      9.58728        -0.000004      0.001036      0.076583
      2.08728      6.26183      7.50000         0.000644      0.000072     -0.720157
      4.17456      4.17456      7.50000        -0.000002      0.001940     -0.720713
      2.08842      4.17308     13.80645        -0.082541      0.092129      0.249943
      4.17456      6.26297     13.80141         0.000004      0.010699      0.284407
      2.08789      6.26105     11.68047        -0.010772      0.009294      0.023487
      4.17456      4.17142     11.68429         0.000004      0.082500     -0.054104
      6.26183      0.00000      9.58728         0.001049     -0.000658      0.080491
      0.00000      2.08728      9.58728         0.000004     -0.000475      0.082331
      6.26183      2.08728      7.50000         0.001309     -0.000083     -0.721097
      0.00000      0.00000      7.50000         0.000002      0.000085     -0.720524
      6.26031      0.00057     13.80214         0.091860     -0.081882      0.291204
      8.34911      2.08749     13.80403        -0.000001     -0.021359      0.291124
      6.25829      2.08773     11.68514         0.082087     -0.007072     -0.040875
      8.34911      0.00064     11.68076         0.000001     -0.012485      0.029988
      6.26183      4.17456      9.58728         0.000621     -0.000211      0.078727
      0.00000      6.26183      9.58728        -0.000000     -0.000275      0.080572
      6.26183      6.26183      7.50000        -0.000647      0.000070     -0.720157
      0.00000      4.17456      7.50000        -0.000002     -0.000093     -0.720531
      6.26069      4.17308     13.80645         0.082536      0.092133      0.249945
      8.34911      6.26104     13.80698         0.000003      0.019047      0.256980
      6.26122      6.26105     11.68047         0.010768      0.009295      0.023489
      8.34911      4.17385     11.68100        -0.000006      0.006921      0.019695
 -----------------------------------------------------------------------------------
    total drift:                               -0.000007     -0.001111      0.010298


--------------------------------------------------------------------------------------------------------



  FREE ENERGIE OF THE ION-ELECTRON SYSTEM (eV)
  ---------------------------------------------------
  free  energy   TOTEN  =      -227.04335716 eV

  energy  without entropy=     -227.04335716  energy(sigma->0) =     -227.04335716



--------------------------------------------------------------------------------------------------------


    POTLOK:  cpu time      2.2533: real time      2.2537


--------------------------------------------------------------------------------------------------------


     LOOP+:  cpu time    165.3827: real time    165.6100
    4ORBIT:  cpu time      0.0000: real time      0.0000

 total amount of memory used by VASP MPI-rank0    59967. kBytes
=======================================================================

   base      :      30000. kBytes
   nonl-proj :      11522. kBytes
   fftplans  :       4921. kBytes
   grid      :       7379. kBytes
   one-center:         64. kBytes
   wavefun   :       6081. kBytes

  
  
 General timing and accounting informations for this job:
 ========================================================
  
                  Total CPU time used (sec):      197.816
                            User time (sec):      196.384
                          System time (sec):        1.432
                         Elapsed time (sec):      207.841
  
                   Maximum memory used (kb):      266408.
                   Average memory used (kb):          N/A
  
                          Minor page faults:        68215
                          Major page faults:            0
                 Voluntary context switches:        12693
