 vasp.6.3.0 20Jan22 (build Mar 11 2022 13:48:16) complex                        
  
 executed on             LinuxIFC date 2024.01.22  16:28:43
 running on  304 total cores
 distrk:  each k-point on  304 cores,    1 groups
 distr:  one band on NCORE=   2 cores,  152 groups


--------------------------------------------------------------------------------------------------------


 INCAR:
   SYSTEM = TiO2
   ISMEAR = 0
   SIGMA = 0.05
   EDIFF = 1E-5
   ALGO = ALL
   ISTART = 0
   IBRION = -1
   NSW = 0
   ISYM = 0
   ISIF = 2
   EDIFFG = -0.01
   DIPOL = 0.5 0.5 0.5
   IDIPOL = 3
   LDIPOL = .TRUE.
   GGA = RE
   AGGAC = 0.0
   LUSE_VDW = .TRUE.
   LASPH = .TRUE.
   ENCUT = 600
   PREC = Accurate
   LASPH = .TRUE.
   LREAL = .FALSE.
   ISPIN = 1
   NELM = 200
   NELMIN = 8
   NCORE = 2
   KPAR = 1
   LWAVE = .FALSE.
   LCHARG = .FALSE.

 POTCAR:    PAW_PBE C 08Apr2002                   
 POTCAR:    PAW_PBE O 08Apr2002                   
 POTCAR:    PAW_PBE Ti_pv 07Sep2000               
 POTCAR:    PAW_PBE O 08Apr2002                   
 -----------------------------------------------------------------------------
|                                                                             |
|           W    W    AA    RRRRR   N    N  II  N    N   GGGG   !!!           |
|           W    W   A  A   R    R  NN   N  II  NN   N  G    G  !!!           |
|           W    W  A    A  R    R  N N  N  II  N N  N  G       !!!           |
|           W WW W  AAAAAA  RRRRR   N  N N  II  N  N N  G  GGG   !            |
|           WW  WW  A    A  R   R   N   NN  II  N   NN  G    G                |
|           W    W  A    A  R    R  N    N  II  N    N   GGGG   !!!           |
|                                                                             |
|     For optimal performance we recommend to set                             |
|       NCORE = 2 up to number-of-cores-per-socket                            |
|     NCORE specifies how many cores store one orbital (NPAR=cpu/NCORE).      |
|     This setting can greatly improve the performance of VASP for DFT.       |
|     The default, NCORE=1 might be grossly inefficient on modern             |
|     multi-core architectures or massively parallel machines. Do your        |
|     own testing! More info at https://www.vasp.at/wiki/index.php/NCORE      |
|     Unfortunately you need to use the default for GW and RPA                |
|     calculations (for HF NCORE is supported but not extensively tested      |
|     yet).                                                                   |
|                                                                             |
 -----------------------------------------------------------------------------

 -----------------------------------------------------------------------------
|                                                                             |
|               ----> ADVICE to this user running VASP <----                  |
|                                                                             |
|     You have switched on vdW-DFT.                                           |
|     This routine was written and supplied by Jiri Klimes. We recommend      |
|     that you carefully read and cite the following publications:            |
|       J. Klimes, D.R. Bowler, A. Michelides                                 |
|          J. Phys.: Cond Matt. 22 022201 (2010)                              |
|       J. Klimes, D.R. Bowler, A. Michelides                                 |
|          Phys. Rev. B. 83, 195131 (2011)                                    |
|     and references therein.                                                 |
|                                                                             |
 -----------------------------------------------------------------------------

 POTCAR:    PAW_PBE C 08Apr2002                   
   SHA256 =  253f7b50bb8d59471dbedb8285d89021f4a42ed1a2c5d38a03a736e69125dd95 C/POTCAR              
   COPYR  = (c) Copyright 08Apr2002 Georg Kresse                                                    
   COPYR  = This file is part of the software VASP. Any use, copying, and all other rights are regul
   COPYR  = If you do not have a valid VASP license, you may not use, copy or distribute this file. 
   VRHFIN =C: s2p2                                                                                  
   LEXCH  = PE                                                                                      
   EATOM  =   147.1560 eV,   10.8157 Ry                                                             
                                                                                                    
   TITEL  = PAW_PBE C 08Apr2002                                                                     
   LULTRA =        F    use ultrasoft PP ?                                                          
   IUNSCR =        1    unscreen: 0-lin 1-nonlin 2-no                                               
   RPACOR =    1.200    partial core radius                                                         
   POMASS =   12.011; ZVAL   =    4.000    mass and valenz                                          
   RCORE  =    1.500    outmost cutoff radius                                                       
   RWIGS  =    1.630; RWIGS  =    0.863    wigner-seitz radius (au A)                               
   ENMAX  =  400.000; ENMIN  =  300.000 eV                                                          
   ICORE  =        2    local potential                                                             
   LCOR   =        T    correct aug charges                                                         
   LPAW   =        T    paw PP                                                                      
   EAUG   =  644.873                                                                                
   DEXC   =    0.000                                                                                
   RMAX   =    1.529    core radius for proj-oper                                                   
   RAUG   =    1.300    factor for augmentation sphere                                              
   RDEP   =    1.501    radius for radial grids                                                     
   RDEPT  =    1.300    core radius for aug-charge                                                  
                                                                                                    
   Atomic configuration                                                                             
    4 entries                                                                                       
     n  l   j            E        occ.                                                              
     1  0  0.50      -273.3789   2.0000                                                             
     2  0  0.50       -13.7508   2.0000                                                             
     2  1  0.50        -5.2854   2.0000                                                             
     3  2  1.50        -5.4423   0.0000                                                             
   Description                                                                                      
     l       E           TYP  RCUT    TYP  RCUT                                                     
     0    -13.7508458     23  1.200                                                                 
     0     -8.2022199     23  1.200                                                                 
     1     -5.2854383     23  1.500                                                                 
     1     34.0145650     23  1.500                                                                 
     2     -5.4423304      7  1.500                                                                 
  local pseudopotential read in
  partial core-charges read in
  partial kinetic energy density read in
  atomic valenz-charges read in
  non local Contribution for L=           0  read in
    real space projection operators read in
  non local Contribution for L=           0  read in
    real space projection operators read in
  non local Contribution for L=           1  read in
    real space projection operators read in
  non local Contribution for L=           1  read in
    real space projection operators read in
    PAW grid and wavefunctions read in
 
   number of l-projection  operators is LMAX  =           4
   number of lm-projection operators is LMMAX =           8
 
 POTCAR:    PAW_PBE O 08Apr2002                   
   SHA256 =  818f92134a0a090dccd8ba1447fa70422a3b330e708bb4f08108d8ae51209ddf O/POTCAR              
   COPYR  = (c) Copyright 08Apr2002 Georg Kresse                                                    
   COPYR  = This file is part of the software VASP. Any use, copying, and all other rights are regul
   COPYR  = If you do not have a valid VASP license, you may not use, copy or distribute this file. 
   VRHFIN =O: s2p4                                                                                  
   LEXCH  = PE                                                                                      
   EATOM  =   432.3788 eV,   31.7789 Ry                                                             
                                                                                                    
   TITEL  = PAW_PBE O 08Apr2002                                                                     
   LULTRA =        F    use ultrasoft PP ?                                                          
   IUNSCR =        1    unscreen: 0-lin 1-nonlin 2-no                                               
   RPACOR =    1.200    partial core radius                                                         
   POMASS =   16.000; ZVAL   =    6.000    mass and valenz                                          
   RCORE  =    1.520    outmost cutoff radius                                                       
   RWIGS  =    1.550; RWIGS  =    0.820    wigner-seitz radius (au A)                               
   ENMAX  =  400.000; ENMIN  =  300.000 eV                                                          
   ICORE  =        2    local potential                                                             
   LCOR   =        T    correct aug charges                                                         
   LPAW   =        T    paw PP                                                                      
   EAUG   =  605.392                                                                                
   DEXC   =    0.000                                                                                
   RMAX   =    1.553    core radius for proj-oper                                                   
   RAUG   =    1.300    factor for augmentation sphere                                              
   RDEP   =    1.550    radius for radial grids                                                     
   RDEPT  =    1.329    core radius for aug-charge                                                  
                                                                                                    
   Atomic configuration                                                                             
    4 entries                                                                                       
     n  l   j            E        occ.                                                              
     1  0  0.50      -514.6923   2.0000                                                             
     2  0  0.50       -23.9615   2.0000                                                             
     2  1  0.50        -9.0305   4.0000                                                             
     3  2  1.50        -9.5241   0.0000                                                             
   Description                                                                                      
     l       E           TYP  RCUT    TYP  RCUT                                                     
     0    -23.9615318     23  1.200                                                                 
     0     -9.5240782     23  1.200                                                                 
     1     -9.0304911     23  1.520                                                                 
     1      8.1634956     23  1.520                                                                 
     2     -9.5240782      7  1.500                                                                 
  local pseudopotential read in
  partial core-charges read in
  partial kinetic energy density read in
  kinetic energy density of atom read in
  atomic valenz-charges read in
  non local Contribution for L=           0  read in
    real space projection operators read in
  non local Contribution for L=           0  read in
    real space projection operators read in
  non local Contribution for L=           1  read in
    real space projection operators read in
  non local Contribution for L=           1  read in
    real space projection operators read in
    PAW grid and wavefunctions read in
 
   number of l-projection  operators is LMAX  =           4
   number of lm-projection operators is LMMAX =           8
 
 POTCAR:    PAW_PBE Ti_pv 07Sep2000               
   SHA256 =  f757a1b2c6d082f4c628fa3d987464a8763bf92e53844ac0500b0e2ddc9ce5c0 Ti_pv/POTCAR          
   COPYR  = (c) Copyright 07Sep2000 Georg Kresse                                                    
   COPYR  = This file is part of the software VASP. Any use, copying, and all other rights are regul
   COPYR  = If you do not have a valid VASP license, you may not use, copy or distribute this file. 
   VRHFIN =Ti: d3 s1                                                                                
   LEXCH  = PE                                                                                      
   EATOM  =  1042.5995 eV,   76.6289 Ry                                                             
                                                                                                    
   TITEL  = PAW_PBE Ti_pv 07Sep2000                                                                 
   LULTRA =        F    use ultrasoft PP ?                                                          
   IUNSCR =        1    unscreen: 0-lin 1-nonlin 2-no                                               
   RPACOR =    2.200    partial core radius                                                         
   POMASS =   47.880; ZVAL   =   10.000    mass and valenz                                          
   RCORE  =    2.500    outmost cutoff radius                                                       
   RWIGS  =    2.500; RWIGS  =    1.323    wigner-seitz radius (au A)                               
   ENMAX  =  222.335; ENMIN  =  166.751 eV                                                          
   RCLOC  =    1.701    cutoff for local pot                                                        
   LCOR   =        T    correct aug charges                                                         
   LPAW   =        T    paw PP                                                                      
   EAUG   =  482.848                                                                                
   DEXC   =    0.000                                                                                
   RMAX   =    2.564    core radius for proj-oper                                                   
   RAUG   =    1.300    factor for augmentation sphere                                              
   RDEP   =    2.538    radius for radial grids                                                     
   RDEPT  =    1.952    core radius for aug-charge                                                  
                                                                                                    
   Atomic configuration                                                                             
    8 entries                                                                                       
     n  l   j            E        occ.                                                              
     1  0  0.50     -4865.3608   2.0000                                                             
     2  0  0.50      -533.1368   2.0000                                                             
     2  1  1.50      -440.5031   6.0000                                                             
     3  0  0.50       -59.3186   2.0000                                                             
     3  1  1.50       -35.7012   6.0000                                                             
     3  2  2.50        -1.9157   3.0000                                                             
     4  0  0.50        -3.7291   1.0000                                                             
     4  3  2.50        -1.3606   0.0000                                                             
   Description                                                                                      
     l       E           TYP  RCUT    TYP  RCUT                                                     
     1    -35.7012140     23  2.300                                                                 
     1     -1.3605826     23  2.300                                                                 
     2     -1.9156996     23  2.500                                                                 
     2     -0.4063033     23  2.500                                                                 
     0     -3.7290856     23  2.500                                                                 
     0     20.4087390     23  2.500                                                                 
  local pseudopotential read in
  partial core-charges read in
  partial kinetic energy density read in
  atomic valenz-charges read in
  non local Contribution for L=           1  read in
    real space projection operators read in
  non local Contribution for L=           1  read in
    real space projection operators read in
  non local Contribution for L=           2  read in
    real space projection operators read in
  non local Contribution for L=           2  read in
    real space projection operators read in
  non local Contribution for L=           0  read in
    real space projection operators read in
  non local Contribution for L=           0  read in
    real space projection operators read in
    PAW grid and wavefunctions read in
 
   number of l-projection  operators is LMAX  =           6
   number of lm-projection operators is LMMAX =          18
 
 POTCAR:    PAW_PBE O 08Apr2002                   
   SHA256 =  818f92134a0a090dccd8ba1447fa70422a3b330e708bb4f08108d8ae51209ddf O/POTCAR              
   COPYR  = (c) Copyright 08Apr2002 Georg Kresse                                                    
   COPYR  = This file is part of the software VASP. Any use, copying, and all other rights are regul
   COPYR  = If you do not have a valid VASP license, you may not use, copy or distribute this file. 
   VRHFIN =O: s2p4                                                                                  
   LEXCH  = PE                                                                                      
   EATOM  =   432.3788 eV,   31.7789 Ry                                                             
                                                                                                    
   TITEL  = PAW_PBE O 08Apr2002                                                                     
   LULTRA =        F    use ultrasoft PP ?                                                          
   IUNSCR =        1    unscreen: 0-lin 1-nonlin 2-no                                               
   RPACOR =    1.200    partial core radius                                                         
   POMASS =   16.000; ZVAL   =    6.000    mass and valenz                                          
   RCORE  =    1.520    outmost cutoff radius                                                       
   RWIGS  =    1.550; RWIGS  =    0.820    wigner-seitz radius (au A)                               
   ENMAX  =  400.000; ENMIN  =  300.000 eV                                                          
   ICORE  =        2    local potential                                                             
   LCOR   =        T    correct aug charges                                                         
   LPAW   =        T    paw PP                                                                      
   EAUG   =  605.392                                                                                
   DEXC   =    0.000                                                                                
   RMAX   =    1.553    core radius for proj-oper                                                   
   RAUG   =    1.300    factor for augmentation sphere                                              
   RDEP   =    1.550    radius for radial grids                                                     
   RDEPT  =    1.329    core radius for aug-charge                                                  
                                                                                                    
   Atomic configuration                                                                             
    4 entries                                                                                       
     n  l   j            E        occ.                                                              
     1  0  0.50      -514.6923   2.0000                                                             
     2  0  0.50       -23.9615   2.0000                                                             
     2  1  0.50        -9.0305   4.0000                                                             
     3  2  1.50        -9.5241   0.0000                                                             
   Description                                                                                      
     l       E           TYP  RCUT    TYP  RCUT                                                     
     0    -23.9615318     23  1.200                                                                 
     0     -9.5240782     23  1.200                                                                 
     1     -9.0304911     23  1.520                                                                 
     1      8.1634956     23  1.520                                                                 
     2     -9.5240782      7  1.500                                                                 
  local pseudopotential read in
  partial core-charges read in
  partial kinetic energy density read in
  kinetic energy density of atom read in
  atomic valenz-charges read in
  non local Contribution for L=           0  read in
    real space projection operators read in
  non local Contribution for L=           0  read in
    real space projection operators read in
  non local Contribution for L=           1  read in
    real space projection operators read in
  non local Contribution for L=           1  read in
    real space projection operators read in
    PAW grid and wavefunctions read in
 
   number of l-projection  operators is LMAX  =           4
   number of lm-projection operators is LMMAX =           8
 
 -----------------------------------------------------------------------------
|                                                                             |
|               ----> ADVICE to this user running VASP <----                  |
|                                                                             |
|     You have a (more or less) 'large supercell' and for larger cells it     |
|     might be more efficient to use real-space projection operators.         |
|     Therefore, try LREAL= Auto in the INCAR file.                           |
|     Mind: For very accurate calculation, you might also keep the            |
|     reciprocal projection scheme (i.e. LREAL=.FALSE.).                      |
|                                                                             |
 -----------------------------------------------------------------------------

 -----------------------------------------------------------------------------
|                                                                             |
|               ----> ADVICE to this user running VASP <----                  |
|                                                                             |
|     You enforced a specific xc type in the INCAR file but a different       |
|     type was found in the POTCAR file.                                      |
|     I HOPE YOU KNOW WHAT YOU ARE DOING!                                     |
|                                                                             |
 -----------------------------------------------------------------------------

  PAW_PBE C 08Apr2002                   :
 energy of atom  1       EATOM= -147.1560
 kinetic energy error for atom=    0.0057 (will be added to EATOM!!)
  PAW_PBE O 08Apr2002                   :
 energy of atom  2       EATOM= -432.3788
 kinetic energy error for atom=    0.0168 (will be added to EATOM!!)
  PAW_PBE Ti_pv 07Sep2000               :
 energy of atom  3       EATOM=-1042.5995
 kinetic energy error for atom=    0.0007 (will be added to EATOM!!)
  PAW_PBE O 08Apr2002                   :
 energy of atom  4       EATOM= -432.3788
 kinetic energy error for atom=    0.0168 (will be added to EATOM!!)
 
 
 POSCAR:  C  O Ti  O
  positions in direct lattice
  No initial velocities read in
 exchange correlation table for  LEXCH =       40
   RHO(1)=    0.500       N(1)  =     2000
   RHO(2)=  100.500       N(2)  =     4000
 


--------------------------------------------------------------------------------------------------------


 ion  position               nearest neighbor table
   1  0.500  0.573  0.814-   2 1.17   3 1.18
   2  0.500  0.649  0.837-   1 1.17
   3  0.500  0.495  0.791-   1 1.18  83 2.43
   4  0.750  0.625  0.286-  84 1.98  85 1.98 144 1.98 145 1.98 166 2.00  87 2.00  14 3.03  34 3.03

   5  0.000  0.750  0.286-  86 1.98  87 1.98 106 1.98 107 1.98  88 2.00  35 3.03  15 3.03
   6  0.000  0.625  0.393-  89 1.98 149 1.98 148 1.98  88 1.98  90 2.00  91 2.00  16 3.03  36 3.03

   7  0.750  0.750  0.393-  90 1.98 110 1.98 171 1.98 191 1.98  92 2.00  85 2.00  17 3.03  37 3.03

   8  0.750  0.625  0.500-  92 1.98  93 1.98 152 1.98 153 1.98  95 2.00 174 2.00  18 3.03  38 3.03

   9  0.000  0.750  0.500-  94 1.98 114 1.98  95 1.98 115 1.98  89 2.00  96 2.01  19 3.03  39 3.03

  10  1.000  0.625  0.605-  96 1.94 156 1.94  98 1.98  99 1.98 157 2.03  97 2.03  20 3.03  40 3.03

  11  0.750  0.750  0.610- 100 1.92 179 2.00 199 2.00  98 2.00 118 2.00  93 2.09  21 3.03  41 3.03

  12  0.750  0.626  0.720- 101 1.88 161 1.88 182 2.06 103 2.06 100 2.10 160 2.10  22 3.02  42 3.03

  13  0.000  0.750  0.710-  97 1.86 122 1.97 123 1.97 102 1.97 103 1.97  23 3.03  43 3.03
  14  0.750  0.875  0.286-  84 1.98  85 1.98 104 1.98 105 1.98 186 2.00 107 2.00   4 3.03  24 3.03

  15  0.000  0.000  0.286- 106 1.98 107 1.98 126 1.98 127 1.98 108 2.00  25 3.03   5 3.03
  16  0.000  0.875  0.393-  89 1.98 109 1.98 108 1.98  88 1.98 110 2.00 111 2.00   6 3.03  26 3.03

  17  0.750  0.000  0.393- 110 1.98 130 1.98 191 1.98 211 1.98 112 2.00 105 2.00   7 3.03  27 3.03

  18  0.750  0.875  0.500-  92 1.98  93 1.98 112 1.98 113 1.98 115 2.00 194 2.00   8 3.03  28 3.03

  19  0.000  0.000  0.500- 114 1.98 134 1.98 115 1.98 135 1.98 109 2.00 116 2.01   9 3.03  29 3.03

  20  0.000  0.875  0.605- 116 1.94  96 1.94 119 1.98 118 1.98  97 2.03 117 2.03  30 3.03  10 3.03

  21  0.750  0.000  0.610- 120 1.92 219 2.00 199 2.00 138 2.00 118 2.00 113 2.09  31 3.03  11 3.03

  22  0.750  0.876  0.720- 121 1.87 101 1.88 202 2.06 123 2.06 120 2.11 100 2.11  12 3.02  32 3.03

  23  1.000  0.000  0.710- 117 1.86 143 1.97 142 1.97 123 1.97 122 1.97  13 3.03  33 3.03
  24  0.750  0.125  0.286- 104 1.98 105 1.98 124 1.98 125 1.98 206 2.00 127 2.00  14 3.03  34 3.03

  25  0.000  0.250  0.286- 126 1.98 127 1.98 146 1.98 147 1.98 128 2.00  35 3.03  15 3.03
  26  0.000  0.125  0.393- 109 1.98 129 1.98 128 1.98 108 1.98 130 2.00 131 2.00  16 3.03  36 3.03

  27  0.750  0.250  0.393- 130 1.98 150 1.98 211 1.98 231 1.98 132 2.00 125 2.00  17 3.03  37 3.03

  28  0.750  0.125  0.500- 112 1.98 113 1.98 132 1.98 133 1.98 135 2.00 214 2.00  18 3.03  38 3.03

  29  0.000  0.250  0.500- 134 1.98 154 1.98 135 1.98 155 1.98 129 2.00 136 2.01  19 3.03  39 3.03

  30  0.000  0.125  0.605- 136 1.94 116 1.94 139 1.98 138 1.98 117 2.03 137 2.03  20 3.03  40 3.03

  31  0.750  0.250  0.610- 140 1.92 239 2.00 219 2.00 158 2.00 138 2.00 133 2.09  21 3.03  41 3.03

  32  0.750  0.125  0.720- 121 1.87 141 1.88 222 2.06 143 2.06 140 2.11 120 2.11  22 3.03  42 3.03

  33  0.000  0.250  0.710- 137 1.86 143 1.97 142 1.97 162 1.97 163 1.97  23 3.03  43 3.03
  34  0.750  0.375  0.286- 124 1.98 125 1.98 144 1.98 145 1.98 226 2.00 147 2.00   4 3.03  24 3.03

  35  0.000  0.500  0.286-  86 1.98  87 1.98 146 1.98 147 1.98 148 2.00  25 3.03   5 3.03
  36  0.000  0.375  0.393- 129 1.98 149 1.98 148 1.98 128 1.98 150 2.00 151 2.00   6 3.03  26 3.03

  37  0.750  0.500  0.393-  90 1.98 150 1.98 171 1.98 231 1.98 152 2.00 145 2.00   7 3.03  27 3.03

  38  0.750  0.375  0.500- 132 1.98 133 1.98 152 1.98 153 1.98 155 2.00 234 2.00   8 3.03  28 3.03

  39  0.000  0.500  0.500-  94 1.98 154 1.98  95 1.98 155 1.98 149 2.00 156 2.01   9 3.03  29 3.03

  40  0.000  0.375  0.605- 156 1.94 136 1.94 159 1.98 158 1.98 137 2.03 157 2.03  30 3.03  10 3.03

  41  0.750  0.500  0.610- 160 1.92 179 2.00 239 2.00 158 2.00  98 2.00 153 2.09  11 3.03  31 3.03

  42  0.750  0.375  0.720- 141 1.87 161 1.88 242 2.05 163 2.06 160 2.11 140 2.11  32 3.03  12 3.03

  43  0.000  0.500  0.710- 157 1.86 162 1.97 163 1.97 102 1.97 103 1.97  13 3.03  33 3.03
  44  0.250  0.625  0.286- 164 1.98 165 1.98 224 1.98 225 1.98 167 2.00  86 2.00  54 3.03  74 3.03

  45  0.500  0.750  0.286- 166 1.98 167 1.98 186 1.98 187 1.98 168 2.00  75 3.03  55 3.03
  46  0.500  0.625  0.393- 169 1.98 229 1.98 228 1.98 168 1.98 171 2.00 170 2.00  56 3.03  76 3.03

  47  0.250  0.750  0.393-  91 1.98 111 1.98 170 1.98 190 1.98 172 2.00 165 2.00  57 3.03  77 3.03

  48  0.250  0.625  0.500- 172 1.98 173 1.98 232 1.98 233 1.98 175 2.00  94 2.00  58 3.03  78 3.03

  49  0.500  0.750  0.500- 174 1.98 194 1.98 175 1.98 195 1.98 169 2.00 176 2.01  59 3.03  79 3.03

  50  0.500  0.624  0.606- 236 1.94 176 1.95 179 1.98 178 1.98 177 2.02 237 2.02  80 3.01  60 3.03

  51  0.250  0.750  0.610- 180 1.92 178 2.00 198 2.00  99 2.00 119 2.00 173 2.09  61 3.03  81 3.03

  52  0.250  0.626  0.720- 181 1.88 241 1.88 183 2.06 102 2.06 180 2.10 240 2.10  62 3.02  82 3.03

  53  0.500  0.751  0.709- 177 1.86 183 1.96 182 1.96 202 1.97 203 1.97  63 3.02  83 3.04
  54  0.250  0.875  0.286- 164 1.98 165 1.98 184 1.98 185 1.98 187 2.00 106 2.00  44 3.03  64 3.03

  55  0.500  0.000  0.286- 186 1.98 187 1.98 206 1.98 207 1.98 188 2.00  65 3.03  45 3.03
  56  0.500  0.875  0.393- 169 1.98 189 1.98 188 1.98 168 1.98 191 2.00 190 2.00  46 3.03  66 3.03

  57  0.250  0.000  0.393- 111 1.98 131 1.98 190 1.98 210 1.98 192 2.00 185 2.00  47 3.03  67 3.03

  58  0.250  0.875  0.500- 172 1.98 173 1.98 192 1.98 193 1.98 195 2.00 114 2.00  48 3.03  68 3.03

  59  0.500  0.000  0.500- 194 1.98 214 1.98 195 1.98 215 1.98 196 2.00 189 2.00  49 3.03  69 3.03

  60  0.500  0.875  0.605- 176 1.94 196 1.94 199 1.98 198 1.98 177 2.02 197 2.03  70 3.03  50 3.03

  61  0.250  0.000  0.610- 200 1.92 218 2.00 198 2.00 139 2.00 119 2.00 193 2.09  71 3.03  51 3.03

  62  0.250  0.876  0.720- 201 1.87 181 1.88 203 2.06 122 2.06 200 2.11 180 2.11  52 3.02  72 3.03

  63  0.500  0.001  0.709- 197 1.86 222 1.97 223 1.97 202 1.97 203 1.97  53 3.02  73 3.02
  64  0.250  0.125  0.286- 184 1.98 185 1.98 204 1.98 205 1.98 207 2.00 126 2.00  54 3.03  74 3.03

  65  0.500  0.250  0.286- 206 1.98 207 1.98 226 1.98 227 1.98 208 2.00  75 3.03  55 3.03
  66  0.500  0.125  0.393- 189 1.98 209 1.98 208 1.98 188 1.98 211 2.00 210 2.00  56 3.03  76 3.03

  67  0.250  0.250  0.393- 131 1.98 151 1.98 210 1.98 230 1.98 212 2.00 205 2.00  57 3.03  77 3.03

  68  0.250  0.125  0.500- 192 1.98 193 1.98 212 1.98 213 1.98 215 2.00 134 2.00  58 3.03  78 3.03

  69  0.500  0.250  0.500- 214 1.98 234 1.98 215 1.98 235 1.98 209 2.00 216 2.01  59 3.03  79 3.03

  70  0.500  0.126  0.605- 216 1.94 196 1.94 219 1.98 218 1.98 217 2.02 197 2.03  80 3.03  60 3.03

  71  0.250  0.250  0.610- 220 1.92 238 2.00 218 2.00 159 2.00 139 2.00 213 2.09  61 3.03  81 3.03

  72  0.250  0.125  0.720- 201 1.87 221 1.88 223 2.06 142 2.06 220 2.11 200 2.11  62 3.03  82 3.03

  73  0.500  0.250  0.709- 217 1.86 243 1.96 242 1.96 223 1.97 222 1.97  63 3.02  83 3.02
  74  0.250  0.375  0.286- 204 1.98 205 1.98 224 1.98 225 1.98 227 2.00 146 2.00  44 3.03  64 3.03

  75  0.500  0.500  0.286- 166 1.98 167 1.98 226 1.98 227 1.98 228 2.00  65 3.03  45 3.03
  76  0.500  0.375  0.393- 209 1.98 229 1.98 228 1.98 208 1.98 231 2.00 230 2.00  46 3.03  66 3.03

  77  0.250  0.500  0.393-  91 1.98 151 1.98 170 1.98 230 1.98 232 2.00 225 2.00  47 3.03  67 3.03

  78  0.250  0.375  0.500- 212 1.98 213 1.98 232 1.98 233 1.98 235 2.00 154 2.00  48 3.03  68 3.03

  79  0.500  0.500  0.500- 174 1.98 234 1.98 175 1.98 235 1.98 229 2.00 236 2.01  49 3.03  69 3.03

  80  0.500  0.376  0.606- 236 1.94 216 1.96 238 1.98 239 1.98 217 2.02 237 2.03  50 3.01  70 3.03

  81  0.250  0.500  0.610- 240 1.92 178 2.00 238 2.00 159 2.00  99 2.00 233 2.09  51 3.03  71 3.03

  82  0.250  0.375  0.720- 221 1.87 241 1.88 243 2.05 162 2.06 240 2.11 220 2.11  72 3.03  52 3.03

  83  0.500  0.500  0.711- 237 1.90 243 1.97 242 1.97 182 1.98 183 1.98   3 2.43  73 3.02  53 3.04

  84  0.750  0.750  0.244-   4 1.98  14 1.98
  85  0.750  0.750  0.328-   4 1.98  14 1.98   7 2.00
  86  0.098  0.625  0.286-   5 1.98  35 1.98  44 2.00
  87  0.902  0.625  0.286-   5 1.98  35 1.98   4 2.00
  88  0.000  0.750  0.351-   6 1.98  16 1.98   5 2.00
  89  0.000  0.750  0.435-   6 1.98  16 1.98   9 2.00
  90  0.848  0.625  0.393-   7 1.98  37 1.98   6 2.00
  91  0.152  0.625  0.393-  47 1.98  77 1.98   6 2.00
  92  0.750  0.750  0.458-   8 1.98  18 1.98   7 2.00
  93  0.750  0.750  0.542-   8 1.98  18 1.98  11 2.09
  94  0.098  0.625  0.500-   9 1.98  39 1.98  48 2.00
  95  0.902  0.625  0.500-   9 1.98  39 1.98   8 2.00
  96  1.000  0.750  0.565-  10 1.94  20 1.94   9 2.01
  97  1.000  0.750  0.649-  13 1.86  20 2.03  10 2.03
  98  0.850  0.625  0.607-  10 1.98  11 2.00  41 2.00
  99  0.150  0.625  0.607-  10 1.98  51 2.00  81 2.00
 100  0.750  0.751  0.672-  11 1.92  12 2.10  22 2.11
 101  0.750  0.750  0.756-  12 1.88  22 1.88
 102  0.093  0.625  0.720-  43 1.97  13 1.97  52 2.06
 103  0.907  0.625  0.720-  43 1.97  13 1.97  12 2.06
 104  0.750  0.000  0.244-  14 1.98  24 1.98
 105  0.750  0.000  0.328-  14 1.98  24 1.98  17 2.00
 106  0.098  0.875  0.286-   5 1.98  15 1.98  54 2.00
 107  0.902  0.875  0.286-   5 1.98  15 1.98  14 2.00
 108  0.000  0.000  0.351-  16 1.98  26 1.98  15 2.00
 109  0.000  0.000  0.435-  16 1.98  26 1.98  19 2.00
 110  0.848  0.875  0.393-   7 1.98  17 1.98  16 2.00
 111  0.152  0.875  0.393-  47 1.98  57 1.98  16 2.00
 112  0.750  0.000  0.458-  18 1.98  28 1.98  17 2.00
 113  0.750  0.000  0.542-  18 1.98  28 1.98  21 2.09
 114  0.098  0.875  0.500-   9 1.98  19 1.98  58 2.00
 115  0.902  0.875  0.500-   9 1.98  19 1.98  18 2.00
 116  1.000  0.000  0.565-  20 1.94  30 1.94  19 2.01
 117  1.000  0.000  0.649-  23 1.86  30 2.03  20 2.03
 118  0.850  0.875  0.607-  20 1.98  21 2.00  11 2.00
 119  0.150  0.875  0.607-  20 1.98  61 2.00  51 2.00
 120  0.750  0.000  0.672-  21 1.92  22 2.11  32 2.11
 121  0.750  0.000  0.756-  22 1.87  32 1.87
 122  0.093  0.875  0.719-  13 1.97  23 1.97  62 2.06
 123  0.907  0.875  0.719-  13 1.97  23 1.97  22 2.06
 124  0.750  0.250  0.244-  24 1.98  34 1.98
 125  0.750  0.250  0.328-  24 1.98  34 1.98  27 2.00
 126  0.098  0.125  0.286-  15 1.98  25 1.98  64 2.00
 127  0.902  0.125  0.286-  15 1.98  25 1.98  24 2.00
 128  0.000  0.250  0.351-  26 1.98  36 1.98  25 2.00
 129  0.000  0.250  0.435-  26 1.98  36 1.98  29 2.00
 130  0.848  0.125  0.393-  17 1.98  27 1.98  26 2.00
 131  0.152  0.125  0.393-  57 1.98  67 1.98  26 2.00
 132  0.750  0.250  0.458-  28 1.98  38 1.98  27 2.00
 133  0.750  0.250  0.542-  28 1.98  38 1.98  31 2.09
 134  0.098  0.125  0.500-  19 1.98  29 1.98  68 2.00
 135  0.902  0.125  0.500-  19 1.98  29 1.98  28 2.00
 136  1.000  0.250  0.565-  30 1.94  40 1.94  29 2.01
 137  0.000  0.250  0.649-  33 1.86  40 2.03  30 2.03
 138  0.850  0.125  0.607-  30 1.98  21 2.00  31 2.00
 139  0.150  0.125  0.607-  30 1.98  61 2.00  71 2.00
 140  0.751  0.250  0.672-  31 1.92  32 2.11  42 2.11
 141  0.750  0.251  0.756-  42 1.87  32 1.88
 142  0.093  0.125  0.719-  33 1.97  23 1.97  72 2.06
 143  0.907  0.125  0.719-  33 1.97  23 1.97  32 2.06
 144  0.750  0.500  0.244-   4 1.98  34 1.98
 145  0.750  0.500  0.328-   4 1.98  34 1.98  37 2.00
 146  0.098  0.375  0.286-  25 1.98  35 1.98  74 2.00
 147  0.902  0.375  0.286-  25 1.98  35 1.98  34 2.00
 148  0.000  0.500  0.351-   6 1.98  36 1.98  35 2.00
 149  0.000  0.500  0.435-   6 1.98  36 1.98  39 2.00
 150  0.848  0.375  0.393-  27 1.98  37 1.98  36 2.00
 151  0.152  0.375  0.393-  67 1.98  77 1.98  36 2.00
 152  0.750  0.500  0.458-   8 1.98  38 1.98  37 2.00
 153  0.750  0.500  0.542-   8 1.98  38 1.98  41 2.09
 154  0.098  0.375  0.500-  29 1.98  39 1.98  78 2.00
 155  0.902  0.375  0.500-  29 1.98  39 1.98  38 2.00
 156  1.000  0.500  0.565-  40 1.94  10 1.94  39 2.01
 157  0.000  0.500  0.649-  43 1.86  10 2.03  40 2.03
 158  0.850  0.375  0.607-  40 1.98  31 2.00  41 2.00
 159  0.150  0.375  0.607-  40 1.98  71 2.00  81 2.00
 160  0.751  0.501  0.672-  41 1.92  12 2.10  42 2.11
 161  0.748  0.501  0.756-  42 1.88  12 1.88
 162  0.093  0.376  0.720-  43 1.97  33 1.97  82 2.06
 163  0.907  0.376  0.720-  43 1.97  33 1.97  42 2.06
 164  0.250  0.750  0.244-  44 1.98  54 1.98
 165  0.250  0.750  0.328-  44 1.98  54 1.98  47 2.00
 166  0.598  0.625  0.286-  45 1.98  75 1.98   4 2.00
 167  0.402  0.625  0.286-  45 1.98  75 1.98  44 2.00
 168  0.500  0.750  0.351-  46 1.98  56 1.98  45 2.00
 169  0.500  0.750  0.435-  46 1.98  56 1.98  49 2.00
 170  0.348  0.625  0.393-  47 1.98  77 1.98  46 2.00
 171  0.652  0.625  0.393-   7 1.98  37 1.98  46 2.00
 172  0.250  0.750  0.458-  48 1.98  58 1.98  47 2.00
 173  0.250  0.750  0.542-  48 1.98  58 1.98  51 2.09
 174  0.598  0.625  0.500-  49 1.98  79 1.98   8 2.00
 175  0.402  0.625  0.500-  49 1.98  79 1.98  48 2.00
 176  0.500  0.750  0.565-  60 1.94  50 1.95  49 2.01
 177  0.500  0.751  0.649-  53 1.86  60 2.02  50 2.02
 178  0.349  0.625  0.607-  50 1.98  81 2.00  51 2.00
 179  0.651  0.625  0.607-  50 1.98  41 2.00  11 2.00
 180  0.250  0.751  0.672-  51 1.92  52 2.10  62 2.11
 181  0.250  0.750  0.756-  52 1.88  62 1.88
 182  0.594  0.627  0.719-  53 1.96  83 1.98  12 2.06
 183  0.406  0.627  0.719-  53 1.96  83 1.98  52 2.06
 184  0.250  0.000  0.244-  54 1.98  64 1.98
 185  0.250  0.000  0.328-  54 1.98  64 1.98  57 2.00
 186  0.598  0.875  0.286-  45 1.98  55 1.98  14 2.00
 187  0.402  0.875  0.286-  45 1.98  55 1.98  54 2.00
 188  0.500  0.000  0.351-  56 1.98  66 1.98  55 2.00
 189  0.500  0.000  0.435-  56 1.98  66 1.98  59 2.00
 190  0.348  0.875  0.393-  47 1.98  57 1.98  56 2.00
 191  0.652  0.875  0.393-   7 1.98  17 1.98  56 2.00
 192  0.250  0.000  0.458-  58 1.98  68 1.98  57 2.00
 193  0.250  0.000  0.542-  58 1.98  68 1.98  61 2.09
 194  0.598  0.875  0.500-  49 1.98  59 1.98  18 2.00
 195  0.402  0.875  0.500-  49 1.98  59 1.98  58 2.00
 196  0.500  0.000  0.565-  60 1.94  70 1.94  59 2.00
 197  0.500  0.000  0.649-  63 1.86  70 2.03  60 2.03
 198  0.349  0.875  0.607-  60 1.98  51 2.00  61 2.00
 199  0.651  0.875  0.607-  60 1.98  11 2.00  21 2.00
 200  0.250  0.000  0.672-  61 1.92  62 2.11  72 2.11
 201  0.250  0.000  0.756-  62 1.87  72 1.87
 202  0.593  0.876  0.719-  63 1.97  53 1.97  22 2.06
 203  0.407  0.876  0.719-  63 1.97  53 1.97  62 2.06
 204  0.250  0.250  0.244-  64 1.98  74 1.98
 205  0.250  0.250  0.328-  64 1.98  74 1.98  67 2.00
 206  0.598  0.125  0.286-  55 1.98  65 1.98  24 2.00
 207  0.402  0.125  0.286-  55 1.98  65 1.98  64 2.00
 208  0.500  0.250  0.351-  66 1.98  76 1.98  65 2.00
 209  0.500  0.250  0.435-  66 1.98  76 1.98  69 2.00
 210  0.348  0.125  0.393-  57 1.98  67 1.98  66 2.00
 211  0.652  0.125  0.393-  17 1.98  27 1.98  66 2.00
 212  0.250  0.250  0.458-  68 1.98  78 1.98  67 2.00
 213  0.250  0.250  0.542-  68 1.98  78 1.98  71 2.09
 214  0.598  0.125  0.500-  59 1.98  69 1.98  28 2.00
 215  0.402  0.125  0.500-  59 1.98  69 1.98  68 2.00
 216  0.500  0.251  0.565-  70 1.94  80 1.96  69 2.01
 217  0.500  0.250  0.649-  73 1.86  70 2.02  80 2.02
 218  0.349  0.125  0.607-  70 1.98  61 2.00  71 2.00
 219  0.651  0.125  0.607-  70 1.98  21 2.00  31 2.00
 220  0.249  0.250  0.672-  71 1.92  72 2.11  82 2.11
 221  0.250  0.251  0.756-  82 1.87  72 1.88
 222  0.593  0.125  0.719-  63 1.97  73 1.97  32 2.06
 223  0.407  0.125  0.719-  63 1.97  73 1.97  72 2.06
 224  0.250  0.500  0.244-  44 1.98  74 1.98
 225  0.250  0.500  0.328-  44 1.98  74 1.98  77 2.00
 226  0.598  0.375  0.286-  65 1.98  75 1.98  34 2.00
 227  0.402  0.375  0.286-  65 1.98  75 1.98  74 2.00
 228  0.500  0.500  0.351-  46 1.98  76 1.98  75 2.00
 229  0.500  0.500  0.435-  46 1.98  76 1.98  79 2.00
 230  0.348  0.375  0.393-  67 1.98  77 1.98  76 2.00
 231  0.652  0.375  0.393-  27 1.98  37 1.98  76 2.00
 232  0.250  0.500  0.458-  48 1.98  78 1.98  77 2.00
 233  0.250  0.500  0.542-  48 1.98  78 1.98  81 2.09
 234  0.598  0.375  0.500-  69 1.98  79 1.98  38 2.00
 235  0.402  0.375  0.500-  69 1.98  79 1.98  78 2.00
 236  0.500  0.500  0.566-  50 1.94  80 1.94  79 2.01
 237  0.500  0.501  0.650-  83 1.90  50 2.02  80 2.03
 238  0.349  0.375  0.608-  80 1.98  81 2.00  71 2.00
 239  0.651  0.375  0.608-  80 1.98  41 2.00  31 2.00
 240  0.249  0.501  0.672-  81 1.92  52 2.10  82 2.11
 241  0.252  0.501  0.756-  82 1.88  52 1.88
 242  0.594  0.374  0.718-  73 1.96  83 1.97  42 2.05
 243  0.406  0.374  0.718-  73 1.96  83 1.97  82 2.05
 

IMPORTANT INFORMATION: All symmetrisations will be switched off!
NOSYMM: (Re-)initialisation of all symmetry stuff for point group C_1.


----------------------------------------------------------------------------------------

                                     Primitive cell                                     

  volume of cell :    4886.2662

  direct lattice vectors                    reciprocal lattice vectors
    13.143747607  0.000000000  0.000000000     0.076081802  0.000000000  0.000000000
     0.000000000 12.104894358  0.000000000     0.000000000  0.082611212  0.000000000
     0.000000000  0.000000000 30.711208800     0.000000000  0.000000000  0.032561401

  length of vectors
    13.143747607 12.104894358 30.711208800     0.076081802  0.082611212  0.032561401

  position of ions in fractional coordinates (direct lattice)
     0.499999984  0.572657375  0.813895848
     0.500000007  0.649246808  0.836963707
     0.499999965  0.494896034  0.790527421
     0.750000000  0.625000000  0.286010579
     0.000000000  0.750000000  0.286010579
     0.000000000  0.625000000  0.393005289
     0.750000000  0.750000000  0.393005289
     0.750000000  0.625000000  0.500000000
     0.000000000  0.750000000  0.500000000
     0.999999977  0.625286753  0.605106751
     0.750013728  0.750290596  0.609792688
     0.750059350  0.625675967  0.719828417
     0.000000025  0.750493197  0.709756308
     0.750000000  0.875000000  0.286010579
     0.000000000  0.000000000  0.286010579
     0.000000000  0.875000000  0.393005289
     0.750000000  0.000000000  0.393005289
     0.750000000  0.875000000  0.500000000
     0.000000000  0.000000000  0.500000000
     0.000000018  0.875283325  0.605137431
     0.750004245  0.000271927  0.609859719
     0.749929445  0.875569098  0.720098434
     0.999999976  0.000459402  0.709767759
     0.750000000  0.125000000  0.286010579
     0.000000000  0.250000000  0.286010579
     0.000000000  0.125000000  0.393005289
     0.750000000  0.250000000  0.393005289
     0.750000000  0.125000000  0.500000000
     0.000000000  0.250000000  0.500000000
     0.000000006  0.125255614  0.605117745
     0.750047393  0.250240328  0.609836467
     0.749958877  0.125495279  0.720075127
     0.000000002  0.250445920  0.709755961
     0.750000000  0.375000000  0.286010579
     0.000000000  0.500000000  0.286010579
     0.000000000  0.375000000  0.393005289
     0.750000000  0.500000000  0.393005289
     0.750000000  0.375000000  0.500000000
     0.000000000  0.500000000  0.500000000
     0.000000062  0.375266964  0.605119006
     0.750060467  0.500270032  0.609826432
     0.750027834  0.375452719  0.719910714
     0.000000029  0.500472524  0.709738278
     0.250000000  0.625000000  0.286010579
     0.500000000  0.750000000  0.286010579
     0.500000000  0.625000000  0.393005289
     0.250000000  0.750000000  0.393005289
     0.250000000  0.625000000  0.500000000
     0.500000000  0.750000000  0.500000000
     0.500000036  0.624461891  0.605520947
     0.249986269  0.750290498  0.609792706
     0.249940649  0.625676513  0.719828439
     0.500000018  0.751000541  0.709064113
     0.250000000  0.875000000  0.286010579
     0.500000000  0.000000000  0.286010579
     0.500000000  0.875000000  0.393005289
     0.250000000  0.000000000  0.393005289
     0.250000000  0.875000000  0.500000000
     0.500000000  0.000000000  0.500000000
     0.499999990  0.875080143  0.604712695
     0.249995766  0.000271946  0.609859589
     0.250070944  0.875569694  0.720098442
     0.500000093  0.000512226  0.709356140
     0.250000000  0.125000000  0.286010579
     0.500000000  0.250000000  0.286010579
     0.500000000  0.125000000  0.393005289
     0.250000000  0.250000000  0.393005289
     0.250000000  0.125000000  0.500000000
     0.500000000  0.250000000  0.500000000
     0.500000055  0.125542751  0.604775786
     0.249952708  0.250240368  0.609836472
     0.250041055  0.125495560  0.720075069
     0.499999893  0.250060235  0.709303393
     0.250000000  0.375000000  0.286010579
     0.500000000  0.500000000  0.286010579
     0.500000000  0.375000000  0.393005289
     0.250000000  0.500000000  0.393005289
     0.250000000  0.375000000  0.500000000
     0.500000000  0.500000000  0.500000000
     0.499999993  0.375916351  0.605693746
     0.249939556  0.500270069  0.609826519
     0.249972118  0.375453056  0.719910732
     0.499999954  0.499848914  0.711472322
     0.750000000  0.750000000  0.244210511
     0.750000000  0.750000000  0.327810646
     0.097668537  0.625000000  0.286010579
     0.902331463  0.625000000  0.286010579
     0.000000000  0.750000000  0.351205222
     0.000000000  0.750000000  0.434805357
     0.847668537  0.625000000  0.393005289
     0.152331463  0.625000000  0.393005289
     0.750000000  0.750000000  0.458199933
     0.750000000  0.750000000  0.541800067
     0.097668537  0.625000000  0.500000000
     0.902331463  0.625000000  0.500000000
     0.999999940  0.750278292  0.565381811
     0.999999993  0.750269419  0.649064608
     0.849659660  0.625336407  0.607234390
     0.150340309  0.625336427  0.607234385
     0.750491159  0.750614651  0.672258466
     0.749560677  0.750302343  0.756102389
     0.093316964  0.625437644  0.719554862
     0.906682962  0.625437556  0.719554846
     0.750000000  0.000000000  0.244210511
     0.750000000  0.000000000  0.327810646
     0.097668537  0.875000000  0.286010579
     0.902331463  0.875000000  0.286010579
     0.000000000  0.000000000  0.351205222
     0.000000000  0.000000000  0.434805357
     0.847668537  0.875000000  0.393005289
     0.152331463  0.875000000  0.393005289
     0.750000000  0.000000000  0.458199933
     0.750000000  0.000000000  0.541800067
     0.097668537  0.875000000  0.500000000
     0.902331463  0.875000000  0.500000000
     0.999999993  0.000215939  0.565382153
     0.999999998  0.000310590  0.649069348
     0.849646855  0.875300569  0.607269269
     0.150353152  0.875300540  0.607269243
     0.750217293  0.000350205  0.672307873
     0.750018338  0.000486251  0.756119894
     0.093308203  0.875420677  0.719485440
     0.906691794  0.875420655  0.719485404
     0.750000000  0.250000000  0.244210511
     0.750000000  0.250000000  0.327810646
     0.097668537  0.125000000  0.286010579
     0.902331463  0.125000000  0.286010579
     0.000000000  0.250000000  0.351205222
     0.000000000  0.250000000  0.434805357
     0.847668537  0.125000000  0.393005289
     0.152331463  0.125000000  0.393005289
     0.750000000  0.250000000  0.458199933
     0.750000000  0.250000000  0.541800067
     0.097668537  0.125000000  0.500000000
     0.902331463  0.125000000  0.500000000
     0.999999946  0.250218057  0.565384146
     0.000000024  0.250365014  0.649063182
     0.849665964  0.125183236  0.607264436
     0.150334025  0.125183230  0.607264404
     0.750831017  0.250135163  0.672255762
     0.749640631  0.250682598  0.756048442
     0.093286123  0.125499158  0.719484487
     0.906713886  0.125499155  0.719484465
     0.750000000  0.500000000  0.244210511
     0.750000000  0.500000000  0.327810646
     0.097668537  0.375000000  0.286010579
     0.902331463  0.375000000  0.286010579
     0.000000000  0.500000000  0.351205222
     0.000000000  0.500000000  0.434805357
     0.847668537  0.375000000  0.393005289
     0.152331463  0.375000000  0.393005289
     0.750000000  0.500000000  0.458199933
     0.750000000  0.500000000  0.541800067
     0.097668537  0.375000000  0.500000000
     0.902331463  0.375000000  0.500000000
     0.999999984  0.500240915  0.565379823
     0.000000023  0.500339247  0.649050873
     0.849661433  0.375245479  0.607226037
     0.150338556  0.375245451  0.607226029
     0.750899641  0.500549505  0.672258630
     0.748432528  0.500634901  0.756014986
     0.093317116  0.375575764  0.719559459
     0.906682876  0.375575785  0.719559466
     0.250000000  0.750000000  0.244210511
     0.250000000  0.750000000  0.327810646
     0.597668537  0.625000000  0.286010579
     0.402331463  0.625000000  0.286010579
     0.500000000  0.750000000  0.351205222
     0.500000000  0.750000000  0.434805357
     0.347668537  0.625000000  0.393005289
     0.652331463  0.625000000  0.393005289
     0.250000000  0.750000000  0.458199933
     0.250000000  0.750000000  0.541800067
     0.597668537  0.625000000  0.500000000
     0.402331463  0.625000000  0.500000000
     0.499999954  0.749647239  0.565327625
     0.500000004  0.750786923  0.648590276
     0.349417036  0.625252793  0.607430388
     0.650582983  0.625252768  0.607430354
     0.249508875  0.750614626  0.672258486
     0.250439400  0.750302620  0.756102432
     0.593536748  0.626913666  0.718836483
     0.406463235  0.626913762  0.718836473
     0.250000000  0.000000000  0.244210511
     0.250000000  0.000000000  0.327810646
     0.597668537  0.875000000  0.286010579
     0.402331463  0.875000000  0.286010579
     0.500000000  0.000000000  0.351205222
     0.500000000  0.000000000  0.434805357
     0.347668537  0.875000000  0.393005289
     0.652331463  0.875000000  0.393005289
     0.250000000  0.000000000  0.458199933
     0.250000000  0.000000000  0.541800067
     0.597668537  0.875000000  0.500000000
     0.402331463  0.875000000  0.500000000
     0.499999980  0.000256739  0.565171431
     0.500000019  0.000258469  0.648695826
     0.349494486  0.875271260  0.607206386
     0.650505470  0.875271248  0.607206368
     0.249782751  0.000350191  0.672307895
     0.249981799  0.000486348  0.756120020
     0.593410802  0.875706754  0.719150681
     0.406589155  0.875706807  0.719150697
     0.250000000  0.250000000  0.244210511
     0.250000000  0.250000000  0.327810646
     0.597668537  0.125000000  0.286010579
     0.402331463  0.125000000  0.286010579
     0.500000000  0.250000000  0.351205222
     0.500000000  0.250000000  0.434805357
     0.347668537  0.125000000  0.393005289
     0.652331463  0.125000000  0.393005289
     0.250000000  0.250000000  0.458199933
     0.250000000  0.250000000  0.541800067
     0.597668537  0.125000000  0.500000000
     0.402331463  0.125000000  0.500000000
     0.499999950  0.250897811  0.565381028
     0.500000016  0.249524676  0.648690515
     0.349461047  0.125241925  0.607232221
     0.650538951  0.125241947  0.607232217
     0.249168977  0.250135176  0.672255766
     0.250359375  0.250682444  0.756048416
     0.593451124  0.125135047  0.719146827
     0.406548772  0.125134998  0.719146834
     0.250000000  0.500000000  0.244210511
     0.250000000  0.500000000  0.327810646
     0.597668537  0.375000000  0.286010579
     0.402331463  0.375000000  0.286010579
     0.500000000  0.500000000  0.351205222
     0.500000000  0.500000000  0.434805357
     0.347668537  0.375000000  0.393005289
     0.652331463  0.375000000  0.393005289
     0.250000000  0.500000000  0.458199933
     0.250000000  0.500000000  0.541800067
     0.597668537  0.375000000  0.500000000
     0.402331463  0.375000000  0.500000000
     0.499999970  0.500075946  0.565557151
     0.499999981  0.500604909  0.649725503
     0.349426208  0.375282078  0.607513965
     0.650573804  0.375282132  0.607513929
     0.249100350  0.500549486  0.672258575
     0.251567555  0.500635035  0.756014849
     0.593867562  0.374057889  0.717993093
     0.406132398  0.374057881  0.717993068

  ion indices of the primitive-cell ions
   primitive index   ion index
                 1           1
                 2           2
                 3           3
                 4           4
                 5           5
                 6           6
                 7           7
                 8           8
                 9           9
                10          10
                11          11
                12          12
                13          13
                14          14
                15          15
                16          16
                17          17
                18          18
                19          19
                20          20
                21          21
                22          22
                23          23
                24          24
                25          25
                26          26
                27          27
                28          28
                29          29
                30          30
                31          31
                32          32
                33          33
                34          34
                35          35
                36          36
                37          37
                38          38
                39          39
                40          40
                41          41
                42          42
                43          43
                44          44
                45          45
                46          46
                47          47
                48          48
                49          49
                50          50
                51          51
                52          52
                53          53
                54          54
                55          55
                56          56
                57          57
                58          58
                59          59
                60          60
                61          61
                62          62
                63          63
                64          64
                65          65
                66          66
                67          67
                68          68
                69          69
                70          70
                71          71
                72          72
                73          73
                74          74
                75          75
                76          76
                77          77
                78          78
                79          79
                80          80
                81          81
                82          82
                83          83
                84          84
                85          85
                86          86
                87          87
                88          88
                89          89
                90          90
                91          91
                92          92
                93          93
                94          94
                95          95
                96          96
                97          97
                98          98
                99          99
               100         100
               101         101
               102         102
               103         103
               104         104
               105         105
               106         106
               107         107
               108         108
               109         109
               110         110
               111         111
               112         112
               113         113
               114         114
               115         115
               116         116
               117         117
               118         118
               119         119
               120         120
               121         121
               122         122
               123         123
               124         124
               125         125
               126         126
               127         127
               128         128
               129         129
               130         130
               131         131
               132         132
               133         133
               134         134
               135         135
               136         136
               137         137
               138         138
               139         139
               140         140
               141         141
               142         142
               143         143
               144         144
               145         145
               146         146
               147         147
               148         148
               149         149
               150         150
               151         151
               152         152
               153         153
               154         154
               155         155
               156         156
               157         157
               158         158
               159         159
               160         160
               161         161
               162         162
               163         163
               164         164
               165         165
               166         166
               167         167
               168         168
               169         169
               170         170
               171         171
               172         172
               173         173
               174         174
               175         175
               176         176
               177         177
               178         178
               179         179
               180         180
               181         181
               182         182
               183         183
               184         184
               185         185
               186         186
               187         187
               188         188
               189         189
               190         190
               191         191
               192         192
               193         193
               194         194
               195         195
               196         196
               197         197
               198         198
               199         199
               200         200
               201         201
               202         202
               203         203
               204         204
               205         205
               206         206
               207         207
               208         208
               209         209
               210         210
               211         211
               212         212
               213         213
               214         214
               215         215
               216         216
               217         217
               218         218
               219         219
               220         220
               221         221
               222         222
               223         223
               224         224
               225         225
               226         226
               227         227
               228         228
               229         229
               230         230
               231         231
               232         232
               233         233
               234         234
               235         235
               236         236
               237         237
               238         238
               239         239
               240         240
               241         241
               242         242
               243         243

----------------------------------------------------------------------------------------

 
 
 KPOINTS: pymatgen v2020.8.13 with grid density = 

Automatic generation of k-mesh.
 Grid dimensions read from file:
 generate k-points for:    2    2    1

 Generating k-lattice:

  Cartesian coordinates                     Fractional coordinates (reciprocal lattice)
     0.038040901  0.000000000  0.000000000     0.500000000  0.000000000  0.000000000
     0.000000000  0.041305606  0.000000000     0.000000000  0.500000000  0.000000000
     0.000000000  0.000000000  0.032561401     0.000000000  0.000000000  1.000000000

  Length of vectors
     0.038040901  0.041305606  0.032561401

  Shift w.r.t. Gamma in fractional coordinates (k-lattice)
     0.000000000  0.000000000  0.000000000

 
 Subroutine IBZKPT returns following result:
 ===========================================
 
 Found      4 irreducible k-points:
 
 Following reciprocal coordinates:
            Coordinates               Weight
  0.000000  0.000000  0.000000      1.000000
  0.500000  0.000000  0.000000      1.000000
  0.000000  0.500000  0.000000      1.000000
  0.500000  0.500000  0.000000      1.000000
 
 Following cartesian coordinates:
            Coordinates               Weight
  0.000000  0.000000  0.000000      1.000000
  0.038041  0.000000  0.000000      1.000000
  0.000000  0.041306  0.000000      1.000000
  0.038041  0.041306  0.000000      1.000000
 


--------------------------------------------------------------------------------------------------------




 Dimension of arrays:
   k-points           NKPTS =      4   k-points in BZ     NKDIM =      4   number of bands    NBANDS=   1216
   number of dos      NEDOS =    301   number of ions     NIONS =    243
   non local maximal  LDIM  =      6   non local SUM 2l+1 LMDIM =     18
   total plane-waves  NPLWV = ******
   max r-space proj   IRMAX =      1   max aug-charges    IRDMAX=  21221
   dimension x,y,z NGX =   108 NGY =   98 NGZ =  250
   dimension x,y,z NGXF=   216 NGYF=  196 NGZF=  500
   support grid    NGXF=   216 NGYF=  196 NGZF=  500
   ions per type =               1   2  80 160
   NGX,Y,Z   is equivalent  to a cutoff of  13.66, 13.46, 13.53 a.u.
   NGXF,Y,Z  is equivalent  to a cutoff of  27.32, 26.92, 27.07 a.u.

 SYSTEM =  TiO2                                    
 POSCAR =   C  O Ti  O                             

--------------------------------------------------------------------------------------------------------


  energy-cutoff  :      600.00
  volume of cell :     4886.27
      direct lattice vectors                 reciprocal lattice vectors
    13.143747607  0.000000000  0.000000000     0.076081802  0.000000000  0.000000000
     0.000000000 12.104894358  0.000000000     0.000000000  0.082611212  0.000000000
     0.000000000  0.000000000 30.711208800     0.000000000  0.000000000  0.032561401

  length of vectors
    13.143747607 12.104894358 30.711208800     0.076081802  0.082611212  0.032561401


 
 k-points in units of 2pi/SCALE and weight: pymatgen v2020.8.13 with grid density = 
   0.00000000  0.00000000  0.00000000       0.250
   0.03804090  0.00000000  0.00000000       0.250
   0.00000000  0.04130561  0.00000000       0.250
   0.03804090  0.04130561  0.00000000       0.250
 
 k-points in reciprocal lattice and weights: pymatgen v2020.8.13 with grid density = 
   0.00000000  0.00000000  0.00000000       0.250
   0.50000000  0.00000000  0.00000000       0.250
   0.00000000  0.50000000  0.00000000       0.250
   0.50000000  0.50000000  0.00000000       0.250
 
 position of ions in fractional coordinates (direct lattice) 
   0.49999998  0.57265738  0.81389585
   0.50000001  0.64924681  0.83696371
   0.49999997  0.49489603  0.79052742
   0.75000000  0.62500000  0.28601058
   0.00000000  0.75000000  0.28601058
   0.00000000  0.62500000  0.39300529
   0.75000000  0.75000000  0.39300529
   0.75000000  0.62500000  0.50000000
   0.00000000  0.75000000  0.50000000
   0.99999998  0.62528675  0.60510675
   0.75001373  0.75029060  0.60979269
   0.75005935  0.62567597  0.71982842
   0.00000003  0.75049320  0.70975631
   0.75000000  0.87500000  0.28601058
   0.00000000  0.00000000  0.28601058
   0.00000000  0.87500000  0.39300529
   0.75000000  0.00000000  0.39300529
   0.75000000  0.87500000  0.50000000
   0.00000000  0.00000000  0.50000000
   0.00000002  0.87528332  0.60513743
   0.75000425  0.00027193  0.60985972
   0.74992945  0.87556910  0.72009843
   0.99999998  0.00045940  0.70976776
   0.75000000  0.12500000  0.28601058
   0.00000000  0.25000000  0.28601058
   0.00000000  0.12500000  0.39300529
   0.75000000  0.25000000  0.39300529
   0.75000000  0.12500000  0.50000000
   0.00000000  0.25000000  0.50000000
   0.00000001  0.12525561  0.60511775
   0.75004739  0.25024033  0.60983647
   0.74995888  0.12549528  0.72007513
   0.00000000  0.25044592  0.70975596
   0.75000000  0.37500000  0.28601058
   0.00000000  0.50000000  0.28601058
   0.00000000  0.37500000  0.39300529
   0.75000000  0.50000000  0.39300529
   0.75000000  0.37500000  0.50000000
   0.00000000  0.50000000  0.50000000
   0.00000006  0.37526696  0.60511901
   0.75006047  0.50027003  0.60982643
   0.75002783  0.37545272  0.71991071
   0.00000003  0.50047252  0.70973828
   0.25000000  0.62500000  0.28601058
   0.50000000  0.75000000  0.28601058
   0.50000000  0.62500000  0.39300529
   0.25000000  0.75000000  0.39300529
   0.25000000  0.62500000  0.50000000
   0.50000000  0.75000000  0.50000000
   0.50000004  0.62446189  0.60552095
   0.24998627  0.75029050  0.60979271
   0.24994065  0.62567651  0.71982844
   0.50000002  0.75100054  0.70906411
   0.25000000  0.87500000  0.28601058
   0.50000000  0.00000000  0.28601058
   0.50000000  0.87500000  0.39300529
   0.25000000  0.00000000  0.39300529
   0.25000000  0.87500000  0.50000000
   0.50000000  0.00000000  0.50000000
   0.49999999  0.87508014  0.60471269
   0.24999577  0.00027195  0.60985959
   0.25007094  0.87556969  0.72009844
   0.50000009  0.00051223  0.70935614
   0.25000000  0.12500000  0.28601058
   0.50000000  0.25000000  0.28601058
   0.50000000  0.12500000  0.39300529
   0.25000000  0.25000000  0.39300529
   0.25000000  0.12500000  0.50000000
   0.50000000  0.25000000  0.50000000
   0.50000006  0.12554275  0.60477579
   0.24995271  0.25024037  0.60983647
   0.25004105  0.12549556  0.72007507
   0.49999989  0.25006024  0.70930339
   0.25000000  0.37500000  0.28601058
   0.50000000  0.50000000  0.28601058
   0.50000000  0.37500000  0.39300529
   0.25000000  0.50000000  0.39300529
   0.25000000  0.37500000  0.50000000
   0.50000000  0.50000000  0.50000000
   0.49999999  0.37591635  0.60569375
   0.24993956  0.50027007  0.60982652
   0.24997212  0.37545306  0.71991073
   0.49999995  0.49984891  0.71147232
   0.75000000  0.75000000  0.24421051
   0.75000000  0.75000000  0.32781065
   0.09766854  0.62500000  0.28601058
   0.90233146  0.62500000  0.28601058
   0.00000000  0.75000000  0.35120522
   0.00000000  0.75000000  0.43480536
   0.84766854  0.62500000  0.39300529
   0.15233146  0.62500000  0.39300529
   0.75000000  0.75000000  0.45819993
   0.75000000  0.75000000  0.54180007
   0.09766854  0.62500000  0.50000000
   0.90233146  0.62500000  0.50000000
   0.99999994  0.75027829  0.56538181
   0.99999999  0.75026942  0.64906461
   0.84965966  0.62533641  0.60723439
   0.15034031  0.62533643  0.60723438
   0.75049116  0.75061465  0.67225847
   0.74956068  0.75030234  0.75610239
   0.09331696  0.62543764  0.71955486
   0.90668296  0.62543756  0.71955485
   0.75000000  0.00000000  0.24421051
   0.75000000  0.00000000  0.32781065
   0.09766854  0.87500000  0.28601058
   0.90233146  0.87500000  0.28601058
   0.00000000  0.00000000  0.35120522
   0.00000000  0.00000000  0.43480536
   0.84766854  0.87500000  0.39300529
   0.15233146  0.87500000  0.39300529
   0.75000000  0.00000000  0.45819993
   0.75000000  0.00000000  0.54180007
   0.09766854  0.87500000  0.50000000
   0.90233146  0.87500000  0.50000000
   0.99999999  0.00021594  0.56538215
   1.00000000  0.00031059  0.64906935
   0.84964685  0.87530057  0.60726927
   0.15035315  0.87530054  0.60726924
   0.75021729  0.00035020  0.67230787
   0.75001834  0.00048625  0.75611989
   0.09330820  0.87542068  0.71948544
   0.90669179  0.87542066  0.71948540
   0.75000000  0.25000000  0.24421051
   0.75000000  0.25000000  0.32781065
   0.09766854  0.12500000  0.28601058
   0.90233146  0.12500000  0.28601058
   0.00000000  0.25000000  0.35120522
   0.00000000  0.25000000  0.43480536
   0.84766854  0.12500000  0.39300529
   0.15233146  0.12500000  0.39300529
   0.75000000  0.25000000  0.45819993
   0.75000000  0.25000000  0.54180007
   0.09766854  0.12500000  0.50000000
   0.90233146  0.12500000  0.50000000
   0.99999995  0.25021806  0.56538415
   0.00000002  0.25036501  0.64906318
   0.84966596  0.12518324  0.60726444
   0.15033402  0.12518323  0.60726440
   0.75083102  0.25013516  0.67225576
   0.74964063  0.25068260  0.75604844
   0.09328612  0.12549916  0.71948449
   0.90671389  0.12549915  0.71948446
   0.75000000  0.50000000  0.24421051
   0.75000000  0.50000000  0.32781065
   0.09766854  0.37500000  0.28601058
   0.90233146  0.37500000  0.28601058
   0.00000000  0.50000000  0.35120522
   0.00000000  0.50000000  0.43480536
   0.84766854  0.37500000  0.39300529
   0.15233146  0.37500000  0.39300529
   0.75000000  0.50000000  0.45819993
   0.75000000  0.50000000  0.54180007
   0.09766854  0.37500000  0.50000000
   0.90233146  0.37500000  0.50000000
   0.99999998  0.50024091  0.56537982
   0.00000002  0.50033925  0.64905087
   0.84966143  0.37524548  0.60722604
   0.15033856  0.37524545  0.60722603
   0.75089964  0.50054951  0.67225863
   0.74843253  0.50063490  0.75601499
   0.09331712  0.37557576  0.71955946
   0.90668288  0.37557578  0.71955947
   0.25000000  0.75000000  0.24421051
   0.25000000  0.75000000  0.32781065
   0.59766854  0.62500000  0.28601058
   0.40233146  0.62500000  0.28601058
   0.50000000  0.75000000  0.35120522
   0.50000000  0.75000000  0.43480536
   0.34766854  0.62500000  0.39300529
   0.65233146  0.62500000  0.39300529
   0.25000000  0.75000000  0.45819993
   0.25000000  0.75000000  0.54180007
   0.59766854  0.62500000  0.50000000
   0.40233146  0.62500000  0.50000000
   0.49999995  0.74964724  0.56532763
   0.50000000  0.75078692  0.64859028
   0.34941704  0.62525279  0.60743039
   0.65058298  0.62525277  0.60743035
   0.24950887  0.75061463  0.67225849
   0.25043940  0.75030262  0.75610243
   0.59353675  0.62691367  0.71883648
   0.40646323  0.62691376  0.71883647
   0.25000000  0.00000000  0.24421051
   0.25000000  0.00000000  0.32781065
   0.59766854  0.87500000  0.28601058
   0.40233146  0.87500000  0.28601058
   0.50000000  0.00000000  0.35120522
   0.50000000  0.00000000  0.43480536
   0.34766854  0.87500000  0.39300529
   0.65233146  0.87500000  0.39300529
   0.25000000  0.00000000  0.45819993
   0.25000000  0.00000000  0.54180007
   0.59766854  0.87500000  0.50000000
   0.40233146  0.87500000  0.50000000
   0.49999998  0.00025674  0.56517143
   0.50000002  0.00025847  0.64869583
   0.34949449  0.87527126  0.60720639
   0.65050547  0.87527125  0.60720637
   0.24978275  0.00035019  0.67230790
   0.24998180  0.00048635  0.75612002
   0.59341080  0.87570675  0.71915068
   0.40658916  0.87570681  0.71915070
   0.25000000  0.25000000  0.24421051
   0.25000000  0.25000000  0.32781065
   0.59766854  0.12500000  0.28601058
   0.40233146  0.12500000  0.28601058
   0.50000000  0.25000000  0.35120522
   0.50000000  0.25000000  0.43480536
   0.34766854  0.12500000  0.39300529
   0.65233146  0.12500000  0.39300529
   0.25000000  0.25000000  0.45819993
   0.25000000  0.25000000  0.54180007
   0.59766854  0.12500000  0.50000000
   0.40233146  0.12500000  0.50000000
   0.49999995  0.25089781  0.56538103
   0.50000002  0.24952468  0.64869051
   0.34946105  0.12524193  0.60723222
   0.65053895  0.12524195  0.60723222
   0.24916898  0.25013518  0.67225577
   0.25035938  0.25068244  0.75604842
   0.59345112  0.12513505  0.71914683
   0.40654877  0.12513500  0.71914683
   0.25000000  0.50000000  0.24421051
   0.25000000  0.50000000  0.32781065
   0.59766854  0.37500000  0.28601058
   0.40233146  0.37500000  0.28601058
   0.50000000  0.50000000  0.35120522
   0.50000000  0.50000000  0.43480536
   0.34766854  0.37500000  0.39300529
   0.65233146  0.37500000  0.39300529
   0.25000000  0.50000000  0.45819993
   0.25000000  0.50000000  0.54180007
   0.59766854  0.37500000  0.50000000
   0.40233146  0.37500000  0.50000000
   0.49999997  0.50007595  0.56555715
   0.49999998  0.50060491  0.64972550
   0.34942621  0.37528208  0.60751397
   0.65057380  0.37528213  0.60751393
   0.24910035  0.50054949  0.67225857
   0.25156756  0.50063504  0.75601485
   0.59386756  0.37405789  0.71799309
   0.40613240  0.37405788  0.71799307
 
 position of ions in cartesian coordinates  (Angst):
   6.57187360  6.93195703 24.99572532
   6.57187390  7.85906403 25.70416717
   6.57187335  5.99066420 24.27805268
   9.85781071  7.56555897  8.78373060
   0.00000000  9.07867077  8.78373060
   0.00000000  7.56555897 12.06966750
   9.85781071  9.07867077 12.06966750
   9.85781071  7.56555897 15.35560440
   0.00000000  9.07867077 15.35560440
  13.14374730  7.56903009 18.58355977
   9.85799114  9.08218841 18.72747056
   9.85859079  7.57374148 22.10680081
   0.00000033  9.08464087 21.79747417
   9.85781071 10.59178256  8.78373060
   0.00000000  0.00000000  8.78373060
   0.00000000 10.59178256 12.06966750
   9.85781071  0.00000000 12.06966750
   9.85781071 10.59178256 15.35560440
   0.00000000  0.00000000 15.35560440
   0.00000024 10.59521218 18.58450198
   9.85786650  0.00329165 18.72952917
   9.85688335 10.59867143 22.11509337
  13.14374729  0.00556101 21.79782584
   9.85781071  1.51311179  8.78373060
   0.00000000  3.02622359  8.78373060
   0.00000000  1.51311179 12.06966750
   9.85781071  3.02622359 12.06966750
   9.85781071  1.51311179 15.35560440
   0.00000000  3.02622359 15.35560440
   0.00000008  1.51620598 18.58389743
   9.85843362  3.02913273 18.72881506
   9.85727020  1.51910709 22.11437758
   0.00000002  3.03162140 21.79746352
   9.85781071  4.53933538  8.78373060
   0.00000000  6.05244718  8.78373060
   0.00000000  4.53933538 12.06966750
   9.85781071  6.05244718 12.06966750
   9.85781071  4.53933538 15.35560440
   0.00000000  6.05244718 15.35560440
   0.00000082  4.54256695 18.58393615
   9.85860547  6.05571589 18.72850688
   9.85817655  4.54481550 22.10932825
   0.00000038  6.05816704 21.79692045
   3.28593690  7.56555897  8.78373060
   6.57187380  9.07867077  8.78373060
   6.57187380  7.56555897 12.06966750
   3.28593690  9.07867077 12.06966750
   3.28593690  7.56555897 15.35560440
   6.57187380  9.07867077 15.35560440
   6.57187428  7.55904522 18.59628025
   3.28575643  9.08218721 18.72747113
   3.28515680  7.57374809 22.10680150
   6.57187404  9.09078221 21.77621604
   3.28593690 10.59178256  8.78373060
   6.57187380  0.00000000  8.78373060
   6.57187380 10.59178256 12.06966750
   3.28593690  0.00000000 12.06966750
   3.28593690 10.59178256 15.35560440
   6.57187380  0.00000000 15.35560440
   6.57187367 10.59275269 18.57145783
   3.28588125  0.00329188 18.72952518
   3.28686937 10.59867865 22.11509360
   6.57187502  0.00620044 21.78518452
   3.28593690  1.51311179  8.78373060
   6.57187380  3.02622359  8.78373060
   6.57187380  1.51311179 12.06966750
   3.28593690  3.02622359 12.06966750
   3.28593690  1.51311179 15.35560440
   6.57187380  3.02622359 15.35560440
   6.57187453  1.51968173 18.57339544
   3.28531530  3.02913322 18.72881524
   3.28647652  1.51911049 22.11437580
   6.57187240  3.02695273 21.78356461
   3.28593690  4.53933538  8.78373060
   6.57187380  6.05244718  8.78373060
   6.57187380  4.53933538 12.06966750
   3.28593690  6.05244718 12.06966750
   3.28593690  4.53933538 15.35560440
   6.57187380  6.05244718 15.35560440
   6.57187371  4.55042771 18.60158710
   3.28514244  6.05571633 18.72850956
   3.28557043  4.54481958 22.10932880
   6.57187320  6.05061829 21.85017504
   9.85781071  9.07867077  7.50000000
   9.85781071  9.07867077 10.06746119
   1.28373060  7.56555897  8.78373060
  11.86001701  7.56555897  8.78373060
   0.00000000  9.07867077 10.78593690
   0.00000000  9.07867077 13.35339810
  11.14154130  7.56555897 12.06966750
   2.00220631  7.56555897 12.06966750
   9.85781071  9.07867077 14.07187380
   9.85781071  9.07867077 16.63933500
   1.28373060  7.56555897 15.35560440
  11.86001701  7.56555897 15.35560440
  13.14374682  9.08203946 17.36355885
  13.14374752  9.08193206 19.93355872
  11.16771213  7.56963114 18.64890213
   1.97603507  7.56963138 18.64890198
   9.86426638  9.08611105 20.64587012
   9.85203636  9.08233060 23.22081835
   1.22653462  7.57085661 22.09839962
  11.91721201  7.57085555 22.09839912
   9.85781071  0.00000000  7.50000000
   9.85781071  0.00000000 10.06746119
   1.28373060 10.59178256  8.78373060
  11.86001701 10.59178256  8.78373060
   0.00000000  0.00000000 10.78593690
   0.00000000  0.00000000 13.35339810
  11.14154130 10.59178256 12.06966750
   2.00220631 10.59178256 12.06966750
   9.85781071  0.00000000 14.07187380
   9.85781071  0.00000000 16.63933500
   1.28373060 10.59178256 15.35560440
  11.86001701 10.59178256 15.35560440
  13.14374751  0.00261392 17.36356934
  13.14374758  0.00375965 19.93370427
  11.16754381 10.59542092 18.64997332
   1.97620388 10.59542057 18.64997251
   9.86066675  0.00423919 20.64738746
   9.85805173  0.00588602 23.22135595
   1.22641947 10.59687481 22.09626759
  11.91732810 10.59687455 22.09626648
   9.85781071  3.02622359  7.50000000
   9.85781071  3.02622359 10.06746119
   1.28373060  1.51311179  8.78373060
  11.86001701  1.51311179  8.78373060
   0.00000000  3.02622359 10.78593690
   0.00000000  3.02622359 13.35339810
  11.14154130  1.51311179 12.06966750
   2.00220631  1.51311179 12.06966750
   9.85781071  3.02622359 14.07187380
   9.85781071  3.02622359 16.63933500
   1.28373060  1.51311179 15.35560440
  11.86001701  1.51311179 15.35560440
  13.14374690  3.02886314 17.36363056
   0.00000032  3.03064205 19.93351490
  11.16779498  1.51532984 18.64982488
   1.97595248  1.51532978 18.64982391
   9.86873338  3.02785973 20.64578706
   9.85308725  3.03448636 23.21916155
[...]
      9.85727      1.51911     22.11438        -0.005608     -0.003346      0.732234
      0.00000      3.03162     21.79746        -0.000015     -0.009271     -0.486502
      9.85781      4.53934      8.78373        -0.000483     -0.000275     -3.423273
      0.00000      6.05245      8.78373         0.000001     -0.000016      2.673542
      0.00000      4.53934     12.06967         0.000005     -0.000154      0.533197
      9.85781      6.05245     12.06967        -0.001375     -0.000088     -0.750648
      9.85781      4.53934     15.35560        -0.009494     -0.004494      0.448950
      0.00000      6.05245     15.35560         0.000009     -0.000990     -0.581639
      0.00000      4.54257     18.58394        -0.000006     -0.000801     -0.360534
      9.85861      6.05572     18.72851         0.001824      0.002429      0.421243
      9.85818      4.54482     22.10933         0.006318     -0.000562      0.737688
      0.00000      6.05817     21.79692        -0.000011     -0.000919     -0.484185
      3.28594      7.56556      8.78373         0.000488      0.000229     -3.423378
      6.57187      9.07867      8.78373         0.000004      0.000352      2.674972
      6.57187      7.56556     12.06967        -0.000005      0.006096      0.537267
      3.28594      9.07867     12.06967         0.001747      0.000652     -0.750848
      3.28594      7.56556     15.35560         0.008403     -0.001570      0.445026
      6.57187      9.07867     15.35560         0.000003     -0.009532     -0.538682
      6.57187      7.55905     18.59628         0.000008     -0.061524     -0.315558
      3.28576      9.08219     18.72747         0.000472      0.000397      0.419887
      3.28516      7.57375     22.10680        -0.006955      0.011255      0.724624
      6.57187      9.09078     21.77622         0.000008      0.002724     -0.509704
      3.28594     10.59178      8.78373         0.000613      0.000291     -3.423382
      6.57187      0.00000      8.78373        -0.000005     -0.000057      2.675136
      6.57187     10.59178     12.06967         0.000004      0.001122      0.540613
      3.28594      0.00000     12.06967         0.002092      0.000000     -0.749919
      3.28594     10.59178     15.35560         0.006455      0.008922      0.449970
      6.57187      0.00000     15.35560         0.000004      0.000349     -0.617674
      6.57187     10.59275     18.57146         0.000001     -0.017346     -0.368589
      3.28588      0.00329     18.72953         0.002143      0.000407      0.422702
      3.28687     10.59868     22.11509         0.006671      0.005004      0.737354
      6.57188      0.00620     21.78518        -0.000006     -0.003143     -0.492424
      3.28594      1.51311      8.78373         0.000606     -0.000259     -3.423298
      6.57187      3.02622      8.78373        -0.000012     -0.000364      2.674943
      6.57187      1.51311     12.06967        -0.000001     -0.002046      0.540088
      3.28594      3.02622     12.06967         0.001664     -0.000704     -0.750019
      3.28594      1.51311     15.35560         0.006133     -0.003933      0.453718
      6.57187      3.02622     15.35560         0.000001      0.013840     -0.531252
      6.57187      1.51968     18.57340        -0.000007      0.023746     -0.361397
      3.28532      3.02913     18.72882        -0.000810     -0.000246      0.421817
      3.28648      1.51911     22.11438         0.005604     -0.003400      0.732254
      6.57187      3.02695     21.78356         0.000001      0.010433     -0.491856
      3.28594      4.53934      8.78373         0.000471     -0.000269     -3.423283
      6.57187      6.05245      8.78373         0.000002      0.000023      2.674741
      6.57187      4.53934     12.06967         0.000001     -0.005227      0.537107
      3.28594      6.05245     12.06967         0.001369     -0.000087     -0.750635
      3.28594      4.53934     15.35560         0.009492     -0.004474      0.448948
      6.57187      6.05245     15.35560        -0.000004     -0.004255     -0.550798
      6.57187      4.55043     18.60159         0.000012      0.050991     -0.317426
      3.28514      6.05572     18.72851        -0.001829      0.002426      0.421219
      3.28557      4.54482     22.10933        -0.006314     -0.000611      0.737667
      6.57187      6.05062     21.85018         0.000016     -0.050743     -0.553293
      9.85781      9.07867      7.50000         0.000114     -0.000212      1.877034
      9.85781      9.07867     10.06746         0.000246     -0.000185      1.644827
      1.28373      7.56556      8.78373        -1.783611     -0.000081     -0.777441
     11.86002      7.56556      8.78373         1.783600     -0.000080     -0.777440
      0.00000      9.07867     10.78594         0.000001     -0.000058     -1.291438
      0.00000      9.07867     13.35340        -0.000000      0.000461     -0.195585
     11.14154      7.56556     12.06967         0.401401     -0.000067      0.049641
      2.00221      7.56556     12.06967        -0.401405     -0.000077      0.049648
      9.85781      9.07867     14.07187         0.001000     -0.001251     -0.009582
      9.85781      9.07867     16.63933         0.002295      0.004134     -0.023981
      1.28373      7.56556     15.35560        -0.364347      0.003029      0.061053
     11.86002      7.56556     15.35560         0.364346      0.003030      0.061054
     13.14375      9.08204     17.36356        -0.000001     -0.001703      0.242306
     13.14375      9.08193     19.93356        -0.000001      0.001643      0.610641
     11.16771      7.56963     18.64890         0.044144     -0.000845     -0.013656
      1.97604      7.56963     18.64890        -0.044149     -0.000849     -0.013660
      9.86427      9.08611     20.64587        -0.001806     -0.006997     -0.421423
      9.85204      9.08233     23.22082         0.000630     -0.002404     -0.383442
      1.22653      7.57086     22.09840        -0.008500     -0.002270      0.050115
     11.91721      7.57086     22.09840         0.008517     -0.002263      0.050108
      9.85781      0.00000      7.50000         0.000129     -0.000019      1.877126
      9.85781      0.00000     10.06746         0.000307     -0.000026      1.644511
      1.28373     10.59178      8.78373        -1.783644     -0.000053     -0.777411
     11.86002     10.59178      8.78373         1.783658     -0.000059     -0.777418
      0.00000      0.00000     10.78594         0.000003      0.000017     -1.291420
      0.00000      0.00000     13.35340        -0.000002      0.000515     -0.195722
     11.14154     10.59178     12.06967         0.401456     -0.000268      0.049644
      2.00221     10.59178     12.06967        -0.401453     -0.000262      0.049634
      9.85781      0.00000     14.07187         0.001066     -0.000300     -0.011317
      9.85781      0.00000     16.63933         0.003548      0.005807     -0.032403
      1.28373     10.59178     15.35560        -0.364995      0.002082      0.059927
     11.86002     10.59178     15.35560         0.364995      0.002083      0.059927
     13.14375      0.00261     17.36357        -0.000003      0.000061      0.243955
     13.14375      0.00376     19.93370        -0.000003      0.000614      0.611016
     11.16754     10.59542     18.64997         0.043432     -0.001157     -0.011442
      1.97620     10.59542     18.64997        -0.043435     -0.001139     -0.011441
      9.86067      0.00424     20.64739        -0.000591     -0.002471     -0.423271
      9.85805      0.00589     23.22136         0.002055     -0.003394     -0.390261
      1.22642     10.59687     22.09627        -0.011727     -0.002139      0.048703
     11.91733     10.59687     22.09627         0.011718     -0.002154      0.048701
      9.85781      3.02622      7.50000         0.000110      0.000175      1.876939
      9.85781      3.02622     10.06746         0.000246      0.000176      1.644621
      1.28373      1.51311      8.78373        -1.783655      0.000028     -0.777424
     11.86002      1.51311      8.78373         1.783641      0.000033     -0.777423
      0.00000      3.02622     10.78594         0.000003      0.000122     -1.291380
      0.00000      3.02622     13.35340         0.000002      0.000709     -0.195364
     11.14154      1.51311     12.06967         0.401504      0.000181      0.049603
      2.00221      1.51311     12.06967        -0.401508      0.000181      0.049602
      9.85781      3.02622     14.07187         0.001098      0.002017     -0.011202
      9.85781      3.02622     16.63933         0.002017      0.010647     -0.024201
      1.28373      1.51311     15.35560        -0.366185      0.003324      0.060467
     11.86002      1.51311     15.35560         0.366179      0.003321      0.060466
     13.14375      3.02886     17.36363         0.000002     -0.001806      0.242766
      0.00000      3.03064     19.93351        -0.000003     -0.000695      0.613981
     11.16779      1.51533     18.64982         0.043226     -0.001781     -0.012892
      1.97595      1.51533     18.64982        -0.043218     -0.001784     -0.012888
      9.86873      3.02786     20.64579        -0.002944     -0.005206     -0.426842
      9.85309      3.03449     23.21916        -0.000774     -0.000817     -0.384330
      1.22613      1.51915     22.09624        -0.012153      0.000456      0.050174
     11.91762      1.51915     22.09624         0.012146      0.000444      0.050175
      9.85781      6.05245      7.50000         0.000104     -0.000019      1.876847
      9.85781      6.05245     10.06746         0.000237      0.000014      1.644816
      1.28373      4.53934      8.78373        -1.783601      0.000057     -0.777451
     11.86002      4.53934      8.78373         1.783614      0.000066     -0.777445
      0.00000      6.05245     10.78594         0.000001      0.000041     -1.291407
      0.00000      6.05245     13.35340         0.000003      0.000685     -0.195405
     11.14154      4.53934     12.06967         0.401442      0.000209      0.049618
      2.00221      4.53934     12.06967        -0.401440      0.000215      0.049615
      9.85781      6.05245     14.07187         0.001785      0.001698     -0.009965
      9.85781      6.05245     16.63933        -0.001352      0.007237     -0.018262
      1.28373      4.53934     15.35560        -0.365585      0.003297      0.060753
     11.86002      4.53934     15.35560         0.365589      0.003299      0.060756
     13.14375      6.05536     17.36350        -0.000000     -0.001298      0.241500
      0.00000      6.05655     19.93314        -0.000005     -0.001350      0.610755
     11.16774      4.54231     18.64865         0.043454     -0.000565     -0.011975
      1.97601      4.54231     18.64865        -0.043457     -0.000572     -0.011980
      9.86964      6.05910     20.64588        -0.002161     -0.001617     -0.426789
      9.83721      6.06013     23.21813        -0.003858     -0.008794     -0.378496
      1.22654      4.54630     22.09854        -0.008379     -0.001126      0.047732
     11.91721      4.54631     22.09854         0.008396     -0.001138      0.047722
      3.28594      9.07867      7.50000        -0.000120     -0.000205      1.877022
      3.28594      9.07867     10.06746        -0.000246     -0.000177      1.644824
      7.85560      7.56556      8.78373        -1.783042     -0.000232     -0.777682
      5.28814      7.56556      8.78373         1.783053     -0.000228     -0.777689
      6.57187      9.07867     10.78594        -0.000001     -0.001084     -1.294721
      6.57187      9.07867     13.35340         0.000002     -0.001957     -0.210969
      4.56967      7.56556     12.06967         0.399126     -0.000399      0.049381
      8.57408      7.56556     12.06967        -0.399123     -0.000392      0.049375
      3.28594      9.07867     14.07187        -0.000998     -0.001249     -0.009578
      3.28594      9.07867     16.63933        -0.002294      0.004137     -0.023999
      7.85560      7.56556     15.35560        -0.356429     -0.013391      0.056355
      5.28814      7.56556     15.35560         0.356431     -0.013391      0.056350
      6.57187      9.07440     17.36189         0.000007      0.027168      0.222970
      6.57187      9.08820     19.91899         0.000004      0.005166      0.618247
      4.59265      7.56862     18.65492         0.039866     -0.002246     -0.016601
      8.55110      7.56862     18.65492        -0.039865     -0.002239     -0.016597
      3.27948      9.08611     20.64587         0.001808     -0.007006     -0.421414
      3.29171      9.08233     23.22082        -0.000628     -0.002439     -0.383460
      7.80130      7.58872     22.07634        -0.009580      0.012391      0.061136
      5.34245      7.58872     22.07634         0.009579      0.012387      0.061144
      3.28594      0.00000      7.50000        -0.000130     -0.000015      1.877121
      3.28594      0.00000     10.06746        -0.000306     -0.000022      1.644516
      7.85560     10.59178      8.78373        -1.783048     -0.000164     -0.777640
      5.28814     10.59178      8.78373         1.783051     -0.000162     -0.777633
      6.57187      0.00000     10.78594        -0.000008      0.000162     -1.295349
      6.57187      0.00000     13.35340        -0.000001      0.000786     -0.213254
      4.56967     10.59178     12.06967         0.398130     -0.000264      0.049185
      8.57408     10.59178     12.06967        -0.398129     -0.000281      0.049192
      3.28594      0.00000     14.07187        -0.001066     -0.000307     -0.011316
      3.28594      0.00000     16.63933        -0.003546      0.005806     -0.032384
      7.85560     10.59178     15.35560        -0.354616     -0.000008      0.058509
      5.28814     10.59178     15.35560         0.354619     -0.000007      0.058507
      6.57187      0.00311     17.35710         0.000001     -0.004266      0.234958
      6.57187      0.00313     19.92223         0.000002      0.001738      0.625108
      4.59367     10.59507     18.64804         0.037648     -0.000800     -0.011743
      8.55008     10.59507     18.64804        -0.037639     -0.000814     -0.011744
      3.28308      0.00424     20.64739         0.000593     -0.002471     -0.423277
      3.28570      0.00589     23.22136        -0.002055     -0.003385     -0.390309
      7.79964     10.60034     22.08599        -0.007270     -0.000449      0.052277
      5.34411     10.60034     22.08599         0.007288     -0.000446      0.052276
      3.28594      3.02622      7.50000        -0.000109      0.000180      1.876935
      3.28594      3.02622     10.06746        -0.000242      0.000178      1.644618
      7.85560      1.51311      8.78373        -1.783088      0.000188     -0.777652
      5.28814      1.51311      8.78373         1.783091      0.000190     -0.777648
      6.57187      3.02622     10.78594        -0.000005      0.001099     -1.294455
      6.57187      3.02622     13.35340         0.000001      0.003140     -0.207645
      4.56967      1.51311     12.06967         0.398309      0.000223      0.049183
      8.57408      1.51311     12.06967        -0.398311      0.000237      0.049188
      3.28594      3.02622     14.07187        -0.001095      0.002029     -0.011199
      3.28594      3.02622     16.63933        -0.002014      0.010657     -0.024200
      7.85560      1.51311     15.35560        -0.356678      0.007663      0.059695
      5.28814      1.51311     15.35560         0.356675      0.007667      0.059693
      6.57187      3.03709     17.36353         0.000004     -0.028334      0.224728
      6.57187      3.02047     19.92207        -0.000002     -0.004899      0.607538
      4.59323      1.51604     18.64884         0.037386     -0.001102     -0.012949
      8.55052      1.51604     18.64884        -0.037392     -0.001098     -0.012953
      3.27501      3.02786     20.64579         0.002946     -0.005216     -0.426848
      3.29066      3.03448     23.21916         0.000772     -0.000758     -0.384338
      7.80017      1.51475     22.08587        -0.006751     -0.006072      0.051423
      5.34357      1.51475     22.08587         0.006783     -0.006065      0.051416
      3.28594      6.05245      7.50000        -0.000104     -0.000030      1.876838
      3.28594      6.05245     10.06746        -0.000246      0.000005      1.644816
      7.85560      4.53934      8.78373        -1.783063      0.000183     -0.777690
      5.28814      4.53934      8.78373         1.783062      0.000177     -0.777694
      6.57187      6.05245     10.78594        -0.000001     -0.000069     -1.293277
      6.57187      6.05245     13.35340        -0.000002      0.000241     -0.188654
      4.56967      4.53934     12.06967         0.399290      0.000489      0.049385
      8.57408      4.53934     12.06967        -0.399299      0.000490      0.049385
      3.28594      6.05245     14.07187        -0.001783      0.001693     -0.009967
      3.28594      6.05245     16.63933         0.001353      0.007228     -0.018281
      7.85560      4.53934     15.35560        -0.356730      0.016619      0.053763
      5.28814      4.53934     15.35560         0.356726      0.016622      0.053758
      6.57187      6.05337     17.36894         0.000002      0.001363      0.240226
      6.57187      6.05977     19.95386         0.000008      0.000218      0.502814
      4.59277      4.54275     18.65749         0.042237     -0.000381     -0.013668
      8.55098      4.54275     18.65749        -0.042238     -0.000380     -0.013660
      3.27411      6.05910     20.64587         0.002155     -0.001631     -0.426758
      3.30654      6.06013     23.21813         0.003849     -0.008792     -0.378435
      7.80565      4.52793     22.05044        -0.010748     -0.002366      0.045993
      5.33810      4.52793     22.05044         0.010726     -0.002363      0.046007
 -----------------------------------------------------------------------------------
    total drift:                               -0.000005      0.002530     -0.045822


--------------------------------------------------------------------------------------------------------



  FREE ENERGIE OF THE ION-ELECTRON SYSTEM (eV)
  ---------------------------------------------------
  free  energy   TOTEN  =     -1582.36648111 eV

  energy  without entropy=    -1582.36648111  energy(sigma->0) =    -1582.36648111
 


--------------------------------------------------------------------------------------------------------


    POTLOK:  cpu time      0.8956: real time      0.8992


--------------------------------------------------------------------------------------------------------


     LOOP+:  cpu time   2109.9372: real time   2121.4627
    4ORBIT:  cpu time      0.0000: real time      0.0000

 total amount of memory used by VASP MPI-rank0   767464. kBytes
=======================================================================

   base      :      30000. kBytes
   nonl-proj :     505415. kBytes
   fftplans  :      42363. kBytes
   grid      :      60082. kBytes
   one-center:       1897. kBytes
   wavefun   :     127707. kBytes
 
  
  
 General timing and accounting informations for this job:
 ========================================================
  
                  Total CPU time used (sec):     2161.059
                            User time (sec):     2155.185
                          System time (sec):        5.874
                         Elapsed time (sec):     2173.533
  
                   Maximum memory used (kb):     1420028.
                   Average memory used (kb):          N/A
  
                          Minor page faults:       114825
                          Major page faults:          148
                 Voluntary context switches:         3286
