 **********************************************************************
                          MRCC program system
 **********************************************************************
 
                              Written by
     Mihaly Kallay, Peter R. Nagy, David Mester, Laszlo Gyevi-Nagy,
        Jozsef Csoka, P. Bernat Szabo, Zoltan Rolik, Gyula Samu,
     Jozsef Csontos, Bence Hegely, Adam Ganyecz, Istvan Ladjanszki,
       Lorant Szegedy, Bence Ladoczki, Klara Petrov, Mate Farkas,
                    Pal D. Mezei, and Reka A. Horvath
 
        Department of Physical Chemistry and Materials Science
            Budapest University of Technology and Economics
                  Budapest P.O.Box 91, H-1521 Hungary
 
                              www.mrcc.hu
 
                     Release date: August 28, 2023

 ************************ 2024-11-04 21:47:53 *************************
 Executing minp...

 Reading input from MINP...
 
 Input file:
 
calc=LNO-CCSD(T)
scftype=rhf
verbosity=3
mem=100000MB
symm=off
unit=angs
scfiguess=restart
scfmaxit=1000
scfalg=locfit1
bpedo=0.99999
ccmaxit=400
usedisk=0
ccsdalg=dfdirect
ccsdthreads=4
ccsdmkl=thr
ptthreads=4
lcorthr=tight
basis_sm=special
def2-SVP
def2-SVP
def2-SVP
def2-SVP
def2-SVP
def2-SVP
def2-SVP
def2-SVP
def2-SVP
def2-SVP
def2-SVP
def2-SVP
def2-SVP
def2-SVP
def2-SVP
def2-SVP
def2-SVP
no-basis-set
no-basis-set
no-basis-set
no-basis-set
no-basis-set
no-basis-set
no-basis-set
no-basis-set
no-basis-set
no-basis-set
no-basis-set
no-basis-set
no-basis-set
no-basis-set
no-basis-set
no-basis-set
no-basis-set
no-basis-set
no-basis-set
no-basis-set
no-basis-set
no-basis-set
no-basis-set
no-basis-set
no-basis-set
no-basis-set
no-basis-set
no-basis-set
no-basis-set
no-basis-set
no-basis-set
no-basis-set
no-basis-set
no-basis-set
no-basis-set
no-basis-set
no-basis-set
no-basis-set
no-basis-set
no-basis-set
no-basis-set
no-basis-set
no-basis-set
no-basis-set
no-basis-set
no-basis-set
no-basis-set
no-basis-set
no-basis-set
no-basis-set
no-basis-set
no-basis-set
no-basis-set
no-basis-set
no-basis-set
no-basis-set
no-basis-set
no-basis-set
no-basis-set


basis=special
aug-cc-pVTZ
aug-cc-pVTZ
aug-cc-pVTZ
cc-pVTZ
aug-cc-pVTZ
aug-cc-pVTZ
aug-cc-pVTZ
aug-cc-pVTZ
aug-cc-pVTZ
cc-pVTZ
cc-pVTZ
aug-cc-pVTZ
aug-cc-pVTZ
aug-cc-pVTZ
aug-cc-pVTZ
aug-cc-pVTZ
aug-cc-pVTZ
no-basis-set
no-basis-set
no-basis-set
no-basis-set
no-basis-set
no-basis-set
no-basis-set
no-basis-set
no-basis-set
no-basis-set
no-basis-set
no-basis-set
no-basis-set
no-basis-set
no-basis-set
no-basis-set
no-basis-set
no-basis-set
no-basis-set
no-basis-set
no-basis-set
no-basis-set
no-basis-set
no-basis-set
no-basis-set
no-basis-set
no-basis-set
no-basis-set
no-basis-set
no-basis-set
no-basis-set
no-basis-set
no-basis-set
no-basis-set
no-basis-set
no-basis-set
no-basis-set
no-basis-set
no-basis-set
no-basis-set
no-basis-set
no-basis-set
no-basis-set
no-basis-set
no-basis-set
no-basis-set
no-basis-set
no-basis-set
no-basis-set
no-basis-set
no-basis-set
no-basis-set
no-basis-set
no-basis-set
no-basis-set
no-basis-set
no-basis-set
no-basis-set
no-basis-set


dfbasis_scf=special
def2-QZVPP-RI-JK
def2-QZVPP-RI-JK
def2-QZVPP-RI-JK
def2-QZVPP-RI-JK
def2-QZVPP-RI-JK
def2-QZVPP-RI-JK
def2-QZVPP-RI-JK
def2-QZVPP-RI-JK
def2-QZVPP-RI-JK
def2-QZVPP-RI-JK
def2-QZVPP-RI-JK
def2-QZVPP-RI-JK
def2-QZVPP-RI-JK
def2-QZVPP-RI-JK
def2-QZVPP-RI-JK
def2-QZVPP-RI-JK
def2-QZVPP-RI-JK
no-basis-set
no-basis-set
no-basis-set
no-basis-set
no-basis-set
no-basis-set
no-basis-set
no-basis-set
no-basis-set
no-basis-set
no-basis-set
no-basis-set
no-basis-set
no-basis-set
no-basis-set
no-basis-set
no-basis-set
no-basis-set
no-basis-set
no-basis-set
no-basis-set
no-basis-set
no-basis-set
no-basis-set
no-basis-set
no-basis-set
no-basis-set
no-basis-set
no-basis-set
no-basis-set
no-basis-set
no-basis-set
no-basis-set
no-basis-set
no-basis-set
no-basis-set
no-basis-set
no-basis-set
no-basis-set
no-basis-set
no-basis-set
no-basis-set
no-basis-set
no-basis-set
no-basis-set
no-basis-set
no-basis-set
no-basis-set
no-basis-set
no-basis-set
no-basis-set
no-basis-set
no-basis-set
no-basis-set
no-basis-set
no-basis-set
no-basis-set
no-basis-set
no-basis-set


dfbasis_cor=special
aug-cc-pVTZ-RI
aug-cc-pVTZ-RI
aug-cc-pVTZ-RI
cc-pVTZ-RI
aug-cc-pVTZ-RI
aug-cc-pVTZ-RI
aug-cc-pVTZ-RI
aug-cc-pVTZ-RI
aug-cc-pVTZ-RI
cc-pVTZ-RI
cc-pVTZ-RI
aug-cc-pVTZ-RI
aug-cc-pVTZ-RI
aug-cc-pVTZ-RI
aug-cc-pVTZ-RI
aug-cc-pVTZ-RI
aug-cc-pVTZ-RI
no-basis-set
no-basis-set
no-basis-set
no-basis-set
no-basis-set
no-basis-set
no-basis-set
no-basis-set
no-basis-set
no-basis-set
no-basis-set
no-basis-set
no-basis-set
no-basis-set
no-basis-set
no-basis-set
no-basis-set
no-basis-set
no-basis-set
no-basis-set
no-basis-set
no-basis-set
no-basis-set
no-basis-set
no-basis-set
no-basis-set
no-basis-set
no-basis-set
no-basis-set
no-basis-set
no-basis-set
no-basis-set
no-basis-set
no-basis-set
no-basis-set
no-basis-set
no-basis-set
no-basis-set
no-basis-set
no-basis-set
no-basis-set
no-basis-set
no-basis-set
no-basis-set
no-basis-set
no-basis-set
no-basis-set
no-basis-set
no-basis-set
no-basis-set
no-basis-set
no-basis-set
no-basis-set
no-basis-set
no-basis-set
no-basis-set
no-basis-set
no-basis-set
no-basis-set


ecp=special
none
none
none
none
none
none
none
none
none
none
none
none
none
none
none
none
none
capECP
capECP
capECP
capECP
capECP
capECP
capECP
capECP
capECP
capECP
capECP
capECP
capECP
capECP
capECP
capECP
capECP
capECP
capECP
capECP
capECP
capECP
capECP
capECP
capECP
capECP
capECP
capECP
capECP
capECP
capECP
capECP
capECP
capECP
capECP
capECP
capECP
capECP
capECP
capECP
capECP
capECP
capECP
capECP
capECP
capECP
capECP
capECP
capECP
capECP
capECP
capECP
capECP
capECP
capECP
capECP
capECP
capECP
capECP

charge=-10
mult=1
core=38
geom=xyz
76

H                       0.11988923287    0.59804121696    2.76507476999
H                       1.45806733769   -0.03680829535    2.18824635069
O                       0.46431133996   -0.09552044587    2.17778498856
Ti                      0.00000000000    0.00000000000    0.00000000000
O                      -0.02525221251    0.01411498456   -1.89238742259
O                      -1.22652473447   -1.48249549252    0.19381637293
O                      -1.21226924573    1.49598323734    0.25179860546
O                       1.24662826588   -1.51072959850    0.07689760941
O                       1.24903264116    1.53518623358    0.07731004183
Ti                     -0.00336926445   -2.95247835621   -0.13092017944
Ti                     -0.00167434627    2.96768500197   -0.13840748577
O                       1.21878819473   -4.43149239071    0.19824440369
O                      -1.23348195145   -4.43731260142    0.21010901463
O                       1.21836076048    4.44321804302    0.19855621948
O                      -1.23236539518    4.45426900604    0.21464743950
O                      -0.03273954923   -2.96816633933   -1.93304318669
O                      -0.04168406761    2.98161400135   -1.93751435303
Ti                      3.23673579402   -7.38679379966    0.26523611414
Ti                     -3.25004586066   -7.38485553427    0.26715002564
Ti                      3.23538096183    7.39364957012    0.26489612127
Ti                     -3.25163280837    7.40130411090    0.26562833771
Ti                      0.07064876405   -7.39523866557   -3.31124594695
Ti                      0.07277685750   -1.44665459890   -3.24280042160
Ti                      0.07098400780    7.41439815398   -3.30980880930
Ti                      0.07366786025    1.46358951182   -3.24872465987
Ti                     -3.25748296122   -1.47206061503    0.26485039903
Ti                      3.25086119127    1.49499688088    0.23597012299
Ti                      3.25785623818   -1.48848213614    0.23702110302
Ti                     -3.25528964365    1.48921076743    0.26674556926
Ti                     -3.19483054720    0.00938676187   -3.08195905134
Ti                      3.31482200071    0.00904656579   -3.08914162629
Ti                      3.22947364740   -4.42685338598   -6.46280928724
Ti                      3.22947364740    4.44593272463   -6.46280928724
Ti                     -3.27251840437   -4.42685338598   -6.46280928724
Ti                     -3.27251840437    4.44593272463   -6.46280928724
Ti                     -3.19184106123   -2.94797023012   -3.08493171723
Ti                     -3.19041490465    2.96552610008   -3.08563797866
Ti                     -0.02152237848   -5.90565107109   -6.46280928724
Ti                     -0.02152237848    5.92473040974   -6.46280928724
Ti                      3.31120314892   -2.95032172198   -3.09475001360
Ti                      3.31145078476    2.96803156685   -3.09398621376
Ti                      6.49311430945   -5.90729947101   -0.10362710580
Ti                     -6.51086979410   -5.90729947101   -0.10362710580
Ti                     -0.00167434627   -8.86269647885   -0.13840748577
Ti                     -0.00336926445    8.87790312461   -0.13092017944
Ti                      3.23538096183   -4.43673191070    0.26489612127
Ti                     -3.25163280837   -4.42907736993    0.26562833771
Ti                      3.23673579402    4.44358768116    0.26523611414
Ti                     -3.25004586066    4.44552594655    0.26715002564
Ti                      0.07098400780   -4.41598332684   -3.30980880930
Ti                      0.07064876405    4.43514281525   -3.31124594695
Ti                     -6.51086979410    5.92308200981   -0.10362710580
Ti                     -0.01778584805   -5.90728950601   -0.13231373627
Ti                     -0.01778584805    5.92309197481   -0.13231373627
Ti                     -0.02152237848    0.00953966933   -6.46280928724
Ti                      6.50166103512    0.00951372374   -0.10437853089
Ti                     -6.50232306842    0.00951372374   -0.10437853089
Ti                     -0.02152237848   -2.94805570088   -6.46280928724
Ti                     -0.02152237848    2.96713503953   -6.46280928724
Ti                      6.49311430945    5.92308200981   -0.10362710580
Ti                      6.49206683837   -2.95341306083   -0.10283175458
Ti                      6.49080604379    2.96917638970   -0.10230729348
Ti                     -6.51191726517   -2.95341306083   -0.10283175458
Ti                     -6.51317805976    2.96917638970   -0.10230729348
Ti                      3.22947364740   -1.46925801578   -6.46280928724
Ti                      3.22947364740    1.48833735443   -6.46280928724
Ti                     -3.19282882467   -5.90629062095   -3.08443041101
Ti                     -3.27251840437   -1.46925801578   -6.46280928724
Ti                     -3.27251840437    1.48833735443   -6.46280928724
Ti                     -3.19282882467    5.92409085987   -3.08443041101
Ti                     -3.19041490465   -8.86485538074   -3.08563797866
Ti                      3.31145078476   -8.86234991397   -3.09398621376
Ti                     -3.19184106123    8.88241125070   -3.08493171723
Ti                      3.31120314892    8.88005975884   -3.09475001360
Ti                      3.30520845705   -5.90639971173   -3.08548601005
Ti                      3.30520845705    5.92398176910   -3.08548601005

ghost=serialno
1,2,3

qmmm=Amber
pointcharges
11980
     3.10860555439    0.00633221019    1.34969195422   -2.00000000000
    -3.25714379204    0.01403560926   -1.21944329694   -2.00000000000
    -3.24195002443    0.00760238737    1.35164788067   -2.00000000000
     3.30833449826    0.01068006345   -1.22848672833   -2.00000000000
--------------------Output has been truncated-------------------------


--------------------Output has been truncated-------------------------


--------------------Output has been truncated-------------------------


--------------------Output has been truncated-------------------------


--------------------Output has been truncated-------------------------


--------------------Output has been truncated-------------------------


--------------------Output has been truncated-------------------------


--------------------Output has been truncated-------------------------


--------------------Output has been truncated-------------------------


--------------------Output has been truncated-------------------------


 
 Final local CC results:
 
 Minimum number of correlated electrons:        36       ( 40.9%)
 Maximum number of correlated electrons:        70       ( 79.5%)
 Average number of correlated electrons:        51.6     ( 58.6%)
 Minimum number of correlated orbitals:        117       ( 15.3%)
 Maximum number of correlated orbitals:        197       ( 25.8%)
 Average number of correlated orbitals:        153.2     ( 20.0%)
 
 CPU time for integral calculations [min]:                 11.191
 Wall time for integral calculations [min]:                 9.478
 
 CPU time for SCF calculation [min]:                       31.965
 Wall time for SCF calculation [min]:                       4.096
 
 CPU time for orbital localization [min]:                   0.098
 Wall time for orbital localization [min]:                  0.071
 
 CPU time for integral transformations [min]:             214.885
 Wall time for integral transformations [min]:             31.897
 
 Reference energy [au]:                               -119370.728121710607
 
 LMP2 correlation energy [au]:                             -3.186675525774
 Total LMP2 energy [au]:                              -119373.914797236386
 
 Total MP2 correction for dropped NAFs [au]:               -0.000056062014
 Total MP2 correction [au]:                                -0.008092314598
 
 CPU time for CCSD calculations [min]:                    310.401
 Total CPU time for CCSD [min]:                           568.540
 Wall time for CCSD calculations [min]:                    44.197
 Total wall time for CCSD [min]:                           89.739
 
 CCSD correlation energy [au]:                             -3.125194581456
 Total CCSD energy [au]:                              -119373.853316292065
 CCSD correlation energy + 0.5 MP2 corrections [au]:       -3.129240738755
 Total LNO-CCSD energy with MP2 corrections [au]:     -119373.857362449358
 
 CPU time for (T) corrections [min]:                      324.424
 Total CPU time for CCSD(T) [min]:                        892.964
 Wall time for (T) corrections [min]:                      42.112
 Total wall time for CCSD(T) [min]:                       131.851
 
 Total (T) correlation energy contribution [au]:           -0.160365366240
 Total (T) correlation energy+0.5 MP2 correction [au]:     -0.164411523539
 CCSD(T) correlation energy [au]:                          -3.285559947696
 Total CCSD(T) energy [au]:                           -119374.013681658296
 CCSD(T) correlation energy + MP2 corrections [au]:        -3.293652262294
 Total LNO-CCSD(T) energy with MP2 corrections [au]:  -119374.021773972898
 
 ======================================================================
 ======================================================================
 
 ************************ 2024-11-04 23:59:59 *************************
                      Normal termination of mrcc.
 **********************************************************************
