 **********************************************************************
                          MRCC program system
 **********************************************************************
 
                              Written by
     Mihaly Kallay, Peter R. Nagy, David Mester, Laszlo Gyevi-Nagy,
        Jozsef Csoka, P. Bernat Szabo, Zoltan Rolik, Gyula Samu,
     Jozsef Csontos, Bence Hegely, Adam Ganyecz, Istvan Ladjanszki,
       Lorant Szegedy, Bence Ladoczki, Klara Petrov, Mate Farkas,
                    Pal D. Mezei, and Reka A. Horvath
 
        Department of Physical Chemistry and Materials Science
            Budapest University of Technology and Economics
                  Budapest P.O.Box 91, H-1521 Hungary
 
                              www.mrcc.hu
 
                      Release date: March 18, 2022

 ************************ 2023-02-04 11:39:29 *************************
 Executing minp...

 Reading input from MINP...
 
 Input file:
 
calc=FNO-CCSD(T)
verbosity=3
mem=220GB
unit=angs
scfiguess=small
scfalg=locfit1
ccmaxit=400
ccsdalg=dfdirect
ccsdthreads=4
ccsdmkl=thr
ptthreads=4
lnoepsv=1e-5
naf_cor=1e-2
basis=aug-cc-pVTZ
basis_sm=def2-SVP
dfbasis_scf=def2-QZVPP-RI-JK
dfbasis_cor=aug-cc-pVTZ-RI
unit=angs
geom=xyz
10

C    29.54344629    29.54344629    16.97505516
H    29.54344670    30.44187631    17.60392580
H    29.54344662    28.64496649    17.60393442
H    30.44658454    29.54342777    16.34911135
H    28.64030918    29.54342779    16.34911130
C    29.54344629    46.42541560    16.97505516
H    29.54344670    47.32384562    17.60392580
H    29.54344662    45.52693580    17.60393442
H    30.44658454    46.42539708    16.34911135
H    28.64030918    46.42539710    16.34911130

--------------------Output has been truncated-------------------------


--------------------Output has been truncated-------------------------


--------------------Output has been truncated-------------------------


--------------------Output has been truncated-------------------------


--------------------Output has been truncated-------------------------


--------------------Output has been truncated-------------------------


--------------------Output has been truncated-------------------------


--------------------Output has been truncated-------------------------


--------------------Output has been truncated-------------------------


--------------------Output has been truncated-------------------------


 
 Reference energy [au]:                       -80.426028010043
 DF-MP2 singlet pair energy [au]:              -0.328837614562
 DF-MP2 triplet pair energy [au]:              -0.073189080274
 DF-SCS-MP2 correlation energy [au]:           -0.419001497566
 DF-SCS-MP2 energy [au]:                      -80.845029507609
 DF-SOS-MP2 correlation energy [au]:           -0.427488898931
 DF-SOS-MP2 energy [au]:                      -80.853516908974
 DF-MP2 correlation energy [au]:               -0.402026694837
 DF-MP2 energy [au]:                          -80.828054704879

 Results in FNO basis:
 
 
 Reference energy [au]:                       -80.426028010043
 DF-MP2 singlet pair energy [au]:              -0.327537128467
 DF-MP2 triplet pair energy [au]:              -0.073101565100
 DF-SCS-MP2 correlation energy [au]:           -0.417411742527
 DF-SCS-MP2 energy [au]:                      -80.843439752570
 DF-SOS-MP2 correlation energy [au]:           -0.425798267007
 DF-SOS-MP2 energy [au]:                      -80.851826277050
 DF-MP2 correlation energy [au]:               -0.400638693567
 DF-MP2 energy [au]:                          -80.826666703610

 Results in NAF basis:
 
 
 Reference energy [au]:                       -80.426028010043
 DF-MP2 singlet pair energy [au]:              -0.327472248850
 DF-MP2 triplet pair energy [au]:              -0.073140622897
 DF-SCS-MP2 correlation energy [au]:           -0.417346906252
 DF-SCS-MP2 energy [au]:                      -80.843374916295
 DF-SOS-MP2 correlation energy [au]:           -0.425713923505
 DF-SOS-MP2 energy [au]:                      -80.851741933548
 DF-MP2 correlation energy [au]:               -0.400612871747
 DF-MP2 energy [au]:                          -80.826640881789

 ************************ 2023-02-04 11:39:50 *************************
 Executing ccsd...

 Allocation of 220.0 Gbytes of memory...

 Direct DF-CCSD(T) calculation
 
 Convergence criterion:  1.0E-06
 
 Number of occupied/virtual/auxiliary orbitals:     8   166   443
    715.53 MB is the minimal memory requirement for (T)
    155.43 MB is the minimal memory requirement for CCSD
 
 Reference energy [au]:             -80.426028010043
 T1 contribution [au]:                0.000000000000
 Same spin MP2 energy [au]:          -0.073121040441
 Opposite spin MP2 energy [au]:      -0.327504526888
 MP2 correlation energy [au]:        -0.400625567330
 Total MP2 energy [au]:             -80.826653577372
 MP2 correction [au]:                -0.001401127507
 
 
 CPU time [min]:     0.352                   Wall time [min]:     0.016
 
 Starting CCSD iterations...
 
                     Residual norm          Energy
 Iteration  1        0.186478222660      -80.855589771192
 Iteration  2        0.047722492011      -80.866635310815
 Iteration  3        0.011568984456      -80.867568287973
 Iteration  4        0.002706024115      -80.867573487217
 Iteration  5        0.000513170592      -80.867587577920
 Iteration  6        0.000104100361      -80.867587842339
 Iteration  7        0.000025069419      -80.867589052614
 Iteration  8        0.000004383664      -80.867589088092
 Iteration  9        0.000000887140      -80.867589071055
 
 CCSD iteration has converged in  9 steps.
     3072.80 MB memory was utilized by CCSD
 
 T1 diagnostic:      7.475E-03            D1 diagnostic:      1.210E-02
 
 T1 contribution [au]:                                  0.000000000000
 PPL energy contribution [au]:                          0.114976081178
 Scaled PPL energy contribution [au]:                   0.115380942154

 OS-PPL energy contribution [au]:                       0.101745957108
 Scaled OS-PPL energy contribution [au]:                0.102169089540
 SS-PPL energy contribution [au]:                       0.013230124070
 Scaled SS-PPL energy contribution [au]:                0.013239151938

 Opposite spin CCSD energy [au]:                       -0.370937176629
 Same spin CCSD energy [au]:                           -0.070644628416
 CCSD correlation energy [au]:                         -0.441581805045
 CCSD correlation energy + MP2 correction [au]:        -0.442982932552
 CCSD correlation energy + MP2 + PPL corr. [au]:       -0.442578071576
 Total CCSD energy [au]:                              -80.867609815087
 Total CCSD energy + MP2 correction [au]:             -80.869010942594
 Total CCSD energy + MP2 + PPL corr. [au]:            -80.868606081619
 
 CPU time [min]:     5.374                   Wall time [min]:     0.157
 
 Calculation of (T) correction...
 
 
      698.30 MB memory is utilized for (T)

 0%       25%       50%       75%       100%
 |---------|---------|---------|---------| 
 
 (T) correction [au]:                                    -0.013137652978
 (T*) correction [au]:                                   -0.013183599938
 (T+) correction [au]:                                   -0.013183568255
 CCSD(T) correlation energy [au]:                        -0.454719458022
 CCSD(T) correlation energy + MP2 correction [au]:       -0.456120585529
 CCSD(T+) correlation en. + MP2 + PPL corr. [au]:        -0.455761639831
 Total CCSD(T) energy [au]:                             -80.880747468065
 Total CCSD(T) energy + MP2 correction [au]:            -80.882148595572
 Total CCSD(T+) energy + MP2 + PPL corr. [au]:          -80.881789649873
 
 CPU time [min]:     7.293                   Wall time [min]:     0.224
 
 ************************ 2023-02-04 11:40:04 *************************
                      Normal termination of mrcc.
 **********************************************************************
