 **********************************************************************
                          MRCC program system
 **********************************************************************
 
                              Written by
     Mihaly Kallay, Peter R. Nagy, David Mester, Laszlo Gyevi-Nagy,
        Jozsef Csoka, P. Bernat Szabo, Zoltan Rolik, Gyula Samu,
     Jozsef Csontos, Bence Hegely, Adam Ganyecz, Istvan Ladjanszki,
       Lorant Szegedy, Bence Ladoczki, Klara Petrov, Mate Farkas,
                    Pal D. Mezei, and Reka A. Horvath
 
        Department of Physical Chemistry and Materials Science
            Budapest University of Technology and Economics
                  Budapest P.O.Box 91, H-1521 Hungary
 
                              www.mrcc.hu
 
                      Release date: March 18, 2022

 ************************ 2023-02-04 11:42:39 *************************
 Executing minp...

 Reading input from MINP...
 
 Input file:
 
calc=FNO-CCSD(T)
verbosity=3
mem=220GB
unit=angs
scfiguess=small
scfalg=locfit1
ccmaxit=400
ccsdalg=dfdirect
ccsdthreads=4
ccsdmkl=thr
ptthreads=4
lnoepsv=1e-5
naf_cor=1e-2
basis=aug-cc-pVQZ
basis_sm=def2-SVP
dfbasis_scf=def2-QZVPP-RI-JK
dfbasis_cor=aug-cc-pVQZ-RI
unit=angs
geom=xyz
10

C    29.54344629    29.54344629    16.97505516
H    29.54344670    30.44187631    17.60392580
H    29.54344662    28.64496649    17.60393442
H    30.44658454    29.54342777    16.34911135
H    28.64030918    29.54342779    16.34911130
C    37.98443094    29.54344629    16.97505516
H    37.98443135    30.44187631    17.60392580
H    37.98443127    28.64496649    17.60393442
H    38.88756920    29.54342777    16.34911135
H    37.08129384    29.54342779    16.34911130

--------------------Output has been truncated-------------------------


--------------------Output has been truncated-------------------------


--------------------Output has been truncated-------------------------


--------------------Output has been truncated-------------------------


--------------------Output has been truncated-------------------------


--------------------Output has been truncated-------------------------


--------------------Output has been truncated-------------------------


--------------------Output has been truncated-------------------------


--------------------Output has been truncated-------------------------


--------------------Output has been truncated-------------------------


 
 Reference energy [au]:                       -40.215614303539
 DF-MP2 singlet pair energy [au]:              -0.173753308351
 DF-MP2 triplet pair energy [au]:              -0.037498401696
 DF-SCS-MP2 correlation energy [au]:           -0.221003437253
 DF-SCS-MP2 energy [au]:                      -40.436617740792
 DF-SOS-MP2 correlation energy [au]:           -0.225879300857
 DF-SOS-MP2 energy [au]:                      -40.441493604395
 DF-MP2 correlation energy [au]:               -0.211251710047
 DF-MP2 energy [au]:                          -40.426866013586

 Results in FNO basis:
 
 
 Reference energy [au]:                       -40.215614303539
 DF-MP2 singlet pair energy [au]:              -0.170618401435
 DF-MP2 triplet pair energy [au]:              -0.037357082493
 DF-SCS-MP2 correlation energy [au]:           -0.217194442553
 DF-SCS-MP2 energy [au]:                      -40.432808746092
 DF-SOS-MP2 correlation energy [au]:           -0.221803921866
 DF-SOS-MP2 energy [au]:                      -40.437418225404
 DF-MP2 correlation energy [au]:               -0.207975483928
 DF-MP2 energy [au]:                          -40.423589787467

 Results in NAF basis:
 
 
 Reference energy [au]:                       -40.215614303539
 DF-MP2 singlet pair energy [au]:              -0.170600828241
 DF-MP2 triplet pair energy [au]:              -0.037363768858
 DF-SCS-MP2 correlation energy [au]:           -0.217175583508
 DF-SCS-MP2 energy [au]:                      -40.432789887047
 DF-SOS-MP2 correlation energy [au]:           -0.221781076713
 DF-SOS-MP2 energy [au]:                      -40.437395380252
 DF-MP2 correlation energy [au]:               -0.207964597098
 DF-MP2 energy [au]:                          -40.423578900637

 ************************ 2023-02-04 11:43:16 *************************
 Executing ccsd...

 Allocation of 220.0 Gbytes of memory...

 Direct DF-CCSD(T) calculation
 
 Convergence criterion:  1.0E-06
 
 Number of occupied/virtual/auxiliary orbitals:     4   101   320
    163.36 MB is the minimal memory requirement for (T)
     39.40 MB is the minimal memory requirement for CCSD
 
 Reference energy [au]:             -40.215614303539
 T1 contribution [au]:                0.000000000000
 Same spin MP2 energy [au]:          -0.037360421237
 Opposite spin MP2 energy [au]:      -0.170609605036
 MP2 correlation energy [au]:        -0.207970026274
 Total MP2 energy [au]:             -40.423584329813
 MP2 correction [au]:                -0.003281683773
 
 
 CPU time [min]:     0.175                   Wall time [min]:     0.008
 
 Starting CCSD iterations...
 
                     Residual norm          Energy
 Iteration  1        0.138680831671      -40.436529269301
 Iteration  2        0.035376099857      -40.442052815566
 Iteration  3        0.009771769509      -40.442635539271
 Iteration  4        0.002020927990      -40.442640038704
 Iteration  5        0.000374898506      -40.442646549590
 Iteration  6        0.000084798063      -40.442646426356
 Iteration  7        0.000020223550      -40.442647116390
 Iteration  8        0.000003738685      -40.442647173338
 
 CCSD iteration has converged in  8 steps.
      444.29 MB memory was utilized by CCSD
 
 T1 diagnostic:      7.996E-03            D1 diagnostic:      1.292E-02
 
 T1 contribution [au]:                                  0.000000000000
 PPL energy contribution [au]:                          0.060602311027
 Scaled PPL energy contribution [au]:                   0.061559178749

 OS-PPL energy contribution [au]:                       0.053773808276
 Scaled OS-PPL energy contribution [au]:                0.054766938016
 SS-PPL energy contribution [au]:                       0.006828502750
 Scaled SS-PPL energy contribution [au]:                0.006852805424

 Opposite spin CCSD energy [au]:                       -0.191003578401
 Same spin CCSD energy [au]:                           -0.036036052805
 CCSD correlation energy [au]:                         -0.227039631206
 CCSD correlation energy + MP2 correction [au]:        -0.230321314979
 CCSD correlation energy + MP2 + PPL corr. [au]:       -0.229364447256
 Total CCSD energy [au]:                              -40.442653934744
 Total CCSD energy + MP2 correction [au]:             -40.445935618518
 Total CCSD energy + MP2 + PPL corr. [au]:            -40.444978750795
 
 CPU time [min]:     0.905                   Wall time [min]:     0.029
 
 Calculation of (T) correction...
 
 
      124.68 MB memory is utilized for (T)

 0%       25%       50%       75%       100%
 |---------|---------|---------|---------| 
 
 (T) correction [au]:                                    -0.006941749684
 (T*) correction [au]:                                   -0.007051287716
 (T+) correction [au]:                                   -0.007050880707
 CCSD(T) correlation energy [au]:                        -0.233981380890
 CCSD(T) correlation energy + MP2 correction [au]:       -0.237263064663
 CCSD(T+) correlation en. + MP2 + PPL corr. [au]:        -0.236415327964
 Total CCSD(T) energy [au]:                             -40.449595684428
 Total CCSD(T) energy + MP2 correction [au]:            -40.452877368202
 Total CCSD(T+) energy + MP2 + PPL corr. [au]:          -40.452029631502
 
 CPU time [min]:     0.989                   Wall time [min]:     0.031
 
 ************************ 2023-02-04 11:43:18 *************************
                      Normal termination of mrcc.
 **********************************************************************
