 vasp.6.3.0 20Jan22 (build Mar 11 2022 13:48:16) complex                        
  
 executed on             LinuxIFC date 2024.01.23  10:19:27
 running on  304 total cores
 distrk:  each k-point on  304 cores,    1 groups
 distr:  one band on NCORE=   2 cores,  152 groups


--------------------------------------------------------------------------------------------------------


 INCAR:
   SYSTEM = TiO2
   ISMEAR = 0
   SIGMA = 0.05
   EDIFF = 1E-5
   ALGO = ALL
   ISTART = 0
   IBRION = -1
   NSW = 0
   ISYM = 0
   ISIF = 2
   EDIFFG = -0.01
   DIPOL = 0.5 0.5 0.5
   IDIPOL = 3
   LDIPOL = .TRUE.
   GGA = MK
   LUSE_VDW = .TRUE.
   PARAM1 = 0.1234
   PARAM2 = 0.711357
   ZAB_VDW = -1.8867
   AGGAC = 0.0
   ENCUT = 600
   PREC = Accurate
   LASPH = .TRUE.
   LREAL = .FALSE.
   ISPIN = 1
   NELM = 200
   NELMIN = 8
   NCORE = 2
   KPAR = 1
   LWAVE = .FALSE.
   LCHARG = .FALSE.

 POTCAR:    PAW_PBE H 15Jun2001                   
 POTCAR:    PAW_PBE O 08Apr2002                   
 POTCAR:    PAW_PBE Ti_pv 07Sep2000               
 POTCAR:    PAW_PBE O 08Apr2002                   
 -----------------------------------------------------------------------------
|                                                                             |
|           W    W    AA    RRRRR   N    N  II  N    N   GGGG   !!!           |
|           W    W   A  A   R    R  NN   N  II  NN   N  G    G  !!!           |
|           W    W  A    A  R    R  N N  N  II  N N  N  G       !!!           |
|           W WW W  AAAAAA  RRRRR   N  N N  II  N  N N  G  GGG   !            |
|           WW  WW  A    A  R   R   N   NN  II  N   NN  G    G                |
|           W    W  A    A  R    R  N    N  II  N    N   GGGG   !!!           |
|                                                                             |
|     For optimal performance we recommend to set                             |
|       NCORE = 2 up to number-of-cores-per-socket                            |
|     NCORE specifies how many cores store one orbital (NPAR=cpu/NCORE).      |
|     This setting can greatly improve the performance of VASP for DFT.       |
|     The default, NCORE=1 might be grossly inefficient on modern             |
|     multi-core architectures or massively parallel machines. Do your        |
|     own testing! More info at https://www.vasp.at/wiki/index.php/NCORE      |
|     Unfortunately you need to use the default for GW and RPA                |
|     calculations (for HF NCORE is supported but not extensively tested      |
|     yet).                                                                   |
|                                                                             |
 -----------------------------------------------------------------------------

 -----------------------------------------------------------------------------
|                                                                             |
|               ----> ADVICE to this user running VASP <----                  |
|                                                                             |
|     You have switched on vdW-DFT.                                           |
|     This routine was written and supplied by Jiri Klimes. We recommend      |
|     that you carefully read and cite the following publications:            |
|       J. Klimes, D.R. Bowler, A. Michelides                                 |
|          J. Phys.: Cond Matt. 22 022201 (2010)                              |
|       J. Klimes, D.R. Bowler, A. Michelides                                 |
|          Phys. Rev. B. 83, 195131 (2011)                                    |
|     and references therein.                                                 |
|                                                                             |
 -----------------------------------------------------------------------------

 POTCAR:    PAW_PBE H 15Jun2001                   
   SHA256 =  030f79b5d3ab3cf0e668861823c8fb652ff669f3e15e46930bd03bfd63a607b6 H/POTCAR              
   COPYR  = (c) Copyright 15Jun2001 Georg Kresse                                                    
   COPYR  = This file is part of the software VASP. Any use, copying, and all other rights are regul
   COPYR  = If you do not have a valid VASP license, you may not use, copy or distribute this file. 
   VRHFIN =H: ultrasoft test                                                                        
   LEXCH  = PE                                                                                      
   EATOM  =    12.4884 eV,    0.9179 Ry                                                             
                                                                                                    
   TITEL  = PAW_PBE H 15Jun2001                                                                     
   LULTRA =        F    use ultrasoft PP ?                                                          
   IUNSCR =        0    unscreen: 0-lin 1-nonlin 2-no                                               
   RPACOR =    0.000    partial core radius                                                         
   POMASS =    1.000; ZVAL   =    1.000    mass and valenz                                          
   RCORE  =    1.100    outmost cutoff radius                                                       
   RWIGS  =    0.700; RWIGS  =    0.370    wigner-seitz radius (au A)                               
   ENMAX  =  250.000; ENMIN  =  200.000 eV                                                          
   RCLOC  =    0.701    cutoff for local pot                                                        
   LCOR   =        T    correct aug charges                                                         
   LPAW   =        T    paw PP                                                                      
   EAUG   =  400.000                                                                                
   RMAX   =    1.123    core radius for proj-oper                                                   
   RAUG   =    1.200    factor for augmentation sphere                                              
   RDEP   =    1.112    radius for radial grids                                                     
   RDEPT  =    0.926    core radius for aug-charge                                                  
                                                                                                    
   Atomic configuration                                                                             
    2 entries                                                                                       
     n  l   j            E        occ.                                                              
     1  0  0.50        -6.4927   1.0000                                                             
     2  1  0.50        -3.4015   0.0000                                                             
   Description                                                                                      
     l       E           TYP  RCUT    TYP  RCUT                                                     
     0     -6.4927494     23  1.100                                                                 
     0      6.8029130     23  1.100                                                                 
     1     -4.0817478     23  1.100                                                                 
  local pseudopotential read in
  atomic valenz-charges read in
  non local Contribution for L=           0  read in
    real space projection operators read in
  non local Contribution for L=           0  read in
    real space projection operators read in
  non local Contribution for L=           1  read in
    real space projection operators read in
    PAW grid and wavefunctions read in
 
   number of l-projection  operators is LMAX  =           3
   number of lm-projection operators is LMMAX =           5
 
 POTCAR:    PAW_PBE O 08Apr2002                   
   SHA256 =  818f92134a0a090dccd8ba1447fa70422a3b330e708bb4f08108d8ae51209ddf O/POTCAR              
   COPYR  = (c) Copyright 08Apr2002 Georg Kresse                                                    
   COPYR  = This file is part of the software VASP. Any use, copying, and all other rights are regul
   COPYR  = If you do not have a valid VASP license, you may not use, copy or distribute this file. 
   VRHFIN =O: s2p4                                                                                  
   LEXCH  = PE                                                                                      
   EATOM  =   432.3788 eV,   31.7789 Ry                                                             
                                                                                                    
   TITEL  = PAW_PBE O 08Apr2002                                                                     
   LULTRA =        F    use ultrasoft PP ?                                                          
   IUNSCR =        1    unscreen: 0-lin 1-nonlin 2-no                                               
   RPACOR =    1.200    partial core radius                                                         
   POMASS =   16.000; ZVAL   =    6.000    mass and valenz                                          
   RCORE  =    1.520    outmost cutoff radius                                                       
   RWIGS  =    1.550; RWIGS  =    0.820    wigner-seitz radius (au A)                               
   ENMAX  =  400.000; ENMIN  =  300.000 eV                                                          
   ICORE  =        2    local potential                                                             
   LCOR   =        T    correct aug charges                                                         
   LPAW   =        T    paw PP                                                                      
   EAUG   =  605.392                                                                                
   DEXC   =    0.000                                                                                
   RMAX   =    1.553    core radius for proj-oper                                                   
   RAUG   =    1.300    factor for augmentation sphere                                              
   RDEP   =    1.550    radius for radial grids                                                     
   RDEPT  =    1.329    core radius for aug-charge                                                  
                                                                                                    
   Atomic configuration                                                                             
    4 entries                                                                                       
     n  l   j            E        occ.                                                              
     1  0  0.50      -514.6923   2.0000                                                             
     2  0  0.50       -23.9615   2.0000                                                             
     2  1  0.50        -9.0305   4.0000                                                             
     3  2  1.50        -9.5241   0.0000                                                             
   Description                                                                                      
     l       E           TYP  RCUT    TYP  RCUT                                                     
     0    -23.9615318     23  1.200                                                                 
     0     -9.5240782     23  1.200                                                                 
     1     -9.0304911     23  1.520                                                                 
     1      8.1634956     23  1.520                                                                 
     2     -9.5240782      7  1.500                                                                 
  local pseudopotential read in
  partial core-charges read in
  partial kinetic energy density read in
  kinetic energy density of atom read in
  atomic valenz-charges read in
  non local Contribution for L=           0  read in
    real space projection operators read in
  non local Contribution for L=           0  read in
    real space projection operators read in
  non local Contribution for L=           1  read in
    real space projection operators read in
  non local Contribution for L=           1  read in
    real space projection operators read in
    PAW grid and wavefunctions read in
 
   number of l-projection  operators is LMAX  =           4
   number of lm-projection operators is LMMAX =           8
 
 POTCAR:    PAW_PBE Ti_pv 07Sep2000               
   SHA256 =  f757a1b2c6d082f4c628fa3d987464a8763bf92e53844ac0500b0e2ddc9ce5c0 Ti_pv/POTCAR          
   COPYR  = (c) Copyright 07Sep2000 Georg Kresse                                                    
   COPYR  = This file is part of the software VASP. Any use, copying, and all other rights are regul
   COPYR  = If you do not have a valid VASP license, you may not use, copy or distribute this file. 
   VRHFIN =Ti: d3 s1                                                                                
   LEXCH  = PE                                                                                      
   EATOM  =  1042.5995 eV,   76.6289 Ry                                                             
                                                                                                    
   TITEL  = PAW_PBE Ti_pv 07Sep2000                                                                 
   LULTRA =        F    use ultrasoft PP ?                                                          
   IUNSCR =        1    unscreen: 0-lin 1-nonlin 2-no                                               
   RPACOR =    2.200    partial core radius                                                         
   POMASS =   47.880; ZVAL   =   10.000    mass and valenz                                          
   RCORE  =    2.500    outmost cutoff radius                                                       
   RWIGS  =    2.500; RWIGS  =    1.323    wigner-seitz radius (au A)                               
   ENMAX  =  222.335; ENMIN  =  166.751 eV                                                          
   RCLOC  =    1.701    cutoff for local pot                                                        
   LCOR   =        T    correct aug charges                                                         
   LPAW   =        T    paw PP                                                                      
   EAUG   =  482.848                                                                                
   DEXC   =    0.000                                                                                
   RMAX   =    2.564    core radius for proj-oper                                                   
   RAUG   =    1.300    factor for augmentation sphere                                              
   RDEP   =    2.538    radius for radial grids                                                     
   RDEPT  =    1.952    core radius for aug-charge                                                  
                                                                                                    
   Atomic configuration                                                                             
    8 entries                                                                                       
     n  l   j            E        occ.                                                              
     1  0  0.50     -4865.3608   2.0000                                                             
     2  0  0.50      -533.1368   2.0000                                                             
     2  1  1.50      -440.5031   6.0000                                                             
     3  0  0.50       -59.3186   2.0000                                                             
     3  1  1.50       -35.7012   6.0000                                                             
     3  2  2.50        -1.9157   3.0000                                                             
     4  0  0.50        -3.7291   1.0000                                                             
     4  3  2.50        -1.3606   0.0000                                                             
   Description                                                                                      
     l       E           TYP  RCUT    TYP  RCUT                                                     
     1    -35.7012140     23  2.300                                                                 
     1     -1.3605826     23  2.300                                                                 
     2     -1.9156996     23  2.500                                                                 
     2     -0.4063033     23  2.500                                                                 
     0     -3.7290856     23  2.500                                                                 
     0     20.4087390     23  2.500                                                                 
  local pseudopotential read in
  partial core-charges read in
  partial kinetic energy density read in
  atomic valenz-charges read in
  non local Contribution for L=           1  read in
    real space projection operators read in
  non local Contribution for L=           1  read in
    real space projection operators read in
  non local Contribution for L=           2  read in
    real space projection operators read in
  non local Contribution for L=           2  read in
    real space projection operators read in
  non local Contribution for L=           0  read in
    real space projection operators read in
  non local Contribution for L=           0  read in
    real space projection operators read in
    PAW grid and wavefunctions read in
 
   number of l-projection  operators is LMAX  =           6
   number of lm-projection operators is LMMAX =          18
 
 POTCAR:    PAW_PBE O 08Apr2002                   
   SHA256 =  818f92134a0a090dccd8ba1447fa70422a3b330e708bb4f08108d8ae51209ddf O/POTCAR              
   COPYR  = (c) Copyright 08Apr2002 Georg Kresse                                                    
   COPYR  = This file is part of the software VASP. Any use, copying, and all other rights are regul
   COPYR  = If you do not have a valid VASP license, you may not use, copy or distribute this file. 
   VRHFIN =O: s2p4                                                                                  
   LEXCH  = PE                                                                                      
   EATOM  =   432.3788 eV,   31.7789 Ry                                                             
                                                                                                    
   TITEL  = PAW_PBE O 08Apr2002                                                                     
   LULTRA =        F    use ultrasoft PP ?                                                          
   IUNSCR =        1    unscreen: 0-lin 1-nonlin 2-no                                               
   RPACOR =    1.200    partial core radius                                                         
   POMASS =   16.000; ZVAL   =    6.000    mass and valenz                                          
   RCORE  =    1.520    outmost cutoff radius                                                       
   RWIGS  =    1.550; RWIGS  =    0.820    wigner-seitz radius (au A)                               
   ENMAX  =  400.000; ENMIN  =  300.000 eV                                                          
   ICORE  =        2    local potential                                                             
   LCOR   =        T    correct aug charges                                                         
   LPAW   =        T    paw PP                                                                      
   EAUG   =  605.392                                                                                
   DEXC   =    0.000                                                                                
   RMAX   =    1.553    core radius for proj-oper                                                   
   RAUG   =    1.300    factor for augmentation sphere                                              
   RDEP   =    1.550    radius for radial grids                                                     
   RDEPT  =    1.329    core radius for aug-charge                                                  
                                                                                                    
   Atomic configuration                                                                             
    4 entries                                                                                       
     n  l   j            E        occ.                                                              
     1  0  0.50      -514.6923   2.0000                                                             
     2  0  0.50       -23.9615   2.0000                                                             
     2  1  0.50        -9.0305   4.0000                                                             
     3  2  1.50        -9.5241   0.0000                                                             
   Description                                                                                      
     l       E           TYP  RCUT    TYP  RCUT                                                     
     0    -23.9615318     23  1.200                                                                 
     0     -9.5240782     23  1.200                                                                 
     1     -9.0304911     23  1.520                                                                 
     1      8.1634956     23  1.520                                                                 
     2     -9.5240782      7  1.500                                                                 
  local pseudopotential read in
  partial core-charges read in
  partial kinetic energy density read in
  kinetic energy density of atom read in
  atomic valenz-charges read in
  non local Contribution for L=           0  read in
    real space projection operators read in
  non local Contribution for L=           0  read in
    real space projection operators read in
  non local Contribution for L=           1  read in
    real space projection operators read in
  non local Contribution for L=           1  read in
    real space projection operators read in
    PAW grid and wavefunctions read in
 
   number of l-projection  operators is LMAX  =           4
   number of lm-projection operators is LMMAX =           8
 
 -----------------------------------------------------------------------------
|                                                                             |
|               ----> ADVICE to this user running VASP <----                  |
|                                                                             |
|     You have a (more or less) 'large supercell' and for larger cells it     |
|     might be more efficient to use real-space projection operators.         |
|     Therefore, try LREAL= Auto in the INCAR file.                           |
|     Mind: For very accurate calculation, you might also keep the            |
|     reciprocal projection scheme (i.e. LREAL=.FALSE.).                      |
|                                                                             |
 -----------------------------------------------------------------------------

 -----------------------------------------------------------------------------
|                                                                             |
|               ----> ADVICE to this user running VASP <----                  |
|                                                                             |
|     You enforced a specific xc type in the INCAR file but a different       |
|     type was found in the POTCAR file.                                      |
|     I HOPE YOU KNOW WHAT YOU ARE DOING!                                     |
|                                                                             |
 -----------------------------------------------------------------------------

  PAW_PBE H 15Jun2001                   :
 energy of atom  1       EATOM=  -12.4884
 kinetic energy error for atom=    0.0004 (will be added to EATOM!!)
  PAW_PBE O 08Apr2002                   :
 energy of atom  2       EATOM= -432.3788
 kinetic energy error for atom=    0.0168 (will be added to EATOM!!)
  PAW_PBE Ti_pv 07Sep2000               :
 energy of atom  3       EATOM=-1042.5995
 kinetic energy error for atom=    0.0007 (will be added to EATOM!!)
  PAW_PBE O 08Apr2002                   :
 energy of atom  4       EATOM= -432.3788
 kinetic energy error for atom=    0.0168 (will be added to EATOM!!)
 
 
 POSCAR:  H  O Ti  O
  positions in direct lattice
  No initial velocities read in
 exchange correlation table for  LEXCH =       43
   RHO(1)=    0.500       N(1)  =     2000
   RHO(2)=  100.500       N(2)  =     4000
 


--------------------------------------------------------------------------------------------------------


 ion  position               nearest neighbor table
   1  0.482  0.540  0.806-   3 0.97
   2  0.592  0.501  0.794-   3 0.98
   3  0.520  0.491  0.787-   1 0.97   2 0.98  83 2.30
   4  0.750  0.625  0.285-  85 1.98 145 1.98 144 1.98  84 1.98  87 2.02 166 2.02  14 3.00  34 3.00

   5  0.000  0.750  0.285-  86 1.98  87 1.98 106 1.98 107 1.98  88 2.02  35 3.00  15 3.00
   6  0.000  0.625  0.393-  88 1.98 148 1.98  89 1.98 149 1.98  90 2.02  91 2.02  16 3.00  36 3.00

   7  0.750  0.750  0.393-  90 1.98 110 1.98 171 1.98 191 1.98  92 2.02  85 2.02  17 3.00  37 3.00

   8  0.750  0.625  0.500-  92 1.98  93 1.98 152 1.98 153 1.98  95 2.02 174 2.02  18 3.00  38 3.00

   9  0.000  0.750  0.500-  94 1.98 114 1.98  95 1.98 115 1.98  89 2.02  96 2.05  19 3.00  39 3.00

  10  0.009  0.625  0.605-  99 1.87  96 1.92 156 1.92  97 2.05 157 2.05  98 2.12  20 3.00  40 3.00

  11  0.758  0.750  0.612- 100 1.89 118 1.93  98 1.93 199 2.06 179 2.06  93 2.16  21 2.99  41 3.00

  12  0.751  0.625  0.722- 101 1.85 161 1.87 182 2.06 103 2.07 100 2.12 160 2.12  22 2.99  42 3.01

  13  0.000  0.750  0.710-  97 1.83 122 1.97 123 1.97 102 1.98 103 1.98  23 2.99  43 3.00
  14  0.750  0.875  0.285-  85 1.98 105 1.98 104 1.98  84 1.98 107 2.02 186 2.02   4 3.00  24 3.00

  15  0.000  0.000  0.285- 106 1.98 107 1.98 126 1.98 127 1.98 108 2.02  25 3.00   5 3.00
  16  0.000  0.875  0.393-  88 1.98 108 1.98  89 1.98 109 1.98 110 2.02 111 2.02   6 3.00  26 3.00

  17  0.750  0.000  0.393- 110 1.98 130 1.98 191 1.98 211 1.98 112 2.02 105 2.02   7 3.00  27 3.00

  18  0.750  0.875  0.500-  92 1.98  93 1.98 112 1.98 113 1.98 115 2.02 194 2.02   8 3.00  28 3.00

  19  0.000  0.000  0.500- 114 1.98 134 1.98 115 1.98 135 1.98 109 2.02 116 2.05   9 3.00  29 3.00

  20  0.010  0.875  0.605- 119 1.87 116 1.92  96 1.92 117 2.05  97 2.06 118 2.12  30 2.99  10 3.00

  21  0.757  0.000  0.612- 120 1.89 138 1.93 118 1.93 219 2.06 199 2.06 113 2.16  31 2.99  11 2.99

  22  0.750  0.875  0.722- 121 1.85 101 1.85 202 2.06 123 2.08 100 2.13 120 2.13  12 2.99  32 2.99

  23  0.000  1.000  0.710- 117 1.83 123 1.97 143 1.97 142 1.98 122 1.98  13 2.99  33 2.99
  24  0.750  0.125  0.285- 105 1.98 125 1.98 124 1.98 104 1.98 127 2.02 206 2.02  14 3.00  34 3.00

  25  0.000  0.250  0.285- 126 1.98 127 1.98 146 1.98 147 1.98 128 2.02  35 3.00  15 3.00
  26  0.000  0.125  0.393- 108 1.98 128 1.98 109 1.98 129 1.98 130 2.02 131 2.02  16 3.00  36 3.00

  27  0.750  0.250  0.393- 130 1.98 150 1.98 211 1.98 231 1.98 132 2.02 125 2.02  17 3.00  37 3.00

  28  0.750  0.125  0.500- 112 1.98 113 1.98 132 1.98 133 1.98 135 2.02 214 2.02  18 3.00  38 3.00

  29  0.000  0.250  0.500- 134 1.98 154 1.98 135 1.98 155 1.98 129 2.02 136 2.05  19 3.00  39 3.00

  30  0.010  0.125  0.605- 139 1.87 116 1.92 136 1.92 117 2.05 137 2.05 138 2.13  20 2.99  40 3.00

  31  0.758  0.250  0.612- 140 1.89 138 1.93 158 1.93 219 2.06 239 2.06 133 2.16  21 2.99  41 3.00

  32  0.749  0.124  0.722- 121 1.85 141 1.86 222 2.06 143 2.08 120 2.12 140 2.13  22 2.99  42 2.99

  33  0.000  0.250  0.710- 137 1.83 142 1.97 143 1.97 162 1.98 163 1.98  23 2.99  43 3.00
  34  0.750  0.375  0.285- 125 1.98 145 1.98 144 1.98 124 1.98 147 2.02 226 2.02   4 3.00  24 3.00

  35  0.000  0.500  0.285-  86 1.98  87 1.98 146 1.98 147 1.98 148 2.02  25 3.00   5 3.00
  36  0.000  0.375  0.393- 128 1.98 148 1.98 129 1.98 149 1.98 150 2.02 151 2.02   6 3.00  26 3.00

  37  0.750  0.500  0.393-  90 1.98 150 1.98 171 1.98 231 1.98 145 2.02 152 2.02   7 3.00  27 3.00

  38  0.750  0.375  0.500- 132 1.98 133 1.98 152 1.98 153 1.98 155 2.02 234 2.02   8 3.00  28 3.00

  39  0.000  0.500  0.500-  94 1.98 154 1.98  95 1.98 155 1.98 149 2.02 156 2.05   9 3.00  29 3.00

  40  0.009  0.375  0.605- 159 1.87 136 1.92 156 1.92 137 2.05 157 2.06 158 2.12  30 3.00  10 3.00

  41  0.758  0.500  0.612- 160 1.89  98 1.93 158 1.94 239 2.06 179 2.06 153 2.16  11 3.00  31 3.00

  42  0.751  0.374  0.722- 141 1.85 161 1.87 163 2.06 242 2.06 140 2.11 160 2.13  32 2.99  12 3.01

  43  0.000  0.500  0.710- 157 1.83 103 1.97 162 1.97 102 1.97 163 1.97  13 3.00  33 3.00
  44  0.250  0.625  0.285- 165 1.98 225 1.98 224 1.98 164 1.98  86 2.02 167 2.02  54 3.00  74 3.00

  45  0.500  0.750  0.285- 166 1.98 167 1.98 186 1.98 187 1.98 168 2.02  75 3.00  55 3.00
  46  0.500  0.625  0.393- 168 1.98 228 1.98 169 1.98 229 1.98 171 2.02 170 2.02  56 3.00  76 3.00

  47  0.250  0.750  0.393- 170 1.98 190 1.98  91 1.98 111 1.98 172 2.02 165 2.02  57 3.00  77 3.00

  48  0.250  0.625  0.500- 172 1.98 173 1.98 232 1.98 233 1.98 175 2.02  94 2.02  58 3.00  78 3.00

  49  0.500  0.750  0.500- 174 1.98 194 1.98 175 1.98 195 1.98 169 2.02 176 2.04  59 3.00  79 3.00

  50  0.510  0.623  0.606- 179 1.87 236 1.92 176 1.95 237 2.03 177 2.04 178 2.13  80 2.95  60 3.01

  51  0.257  0.750  0.612- 180 1.89 178 1.93 198 1.93  99 2.07 119 2.07 173 2.16  81 2.99  61 3.00

  52  0.250  0.625  0.722- 181 1.85 241 1.86 102 2.06 183 2.09 180 2.12 240 2.13  62 2.99  82 3.00

  53  0.501  0.750  0.709- 177 1.83 182 1.94 183 1.97 202 1.97 203 1.99  63 2.99  83 3.01
  54  0.250  0.875  0.285- 165 1.98 185 1.98 184 1.98 164 1.98 106 2.02 187 2.02  44 3.00  64 3.00

  55  0.500  0.000  0.285- 186 1.98 187 1.98 206 1.98 207 1.98 188 2.02  65 3.00  45 3.00
  56  0.500  0.875  0.393- 168 1.98 188 1.98 169 1.98 189 1.98 191 2.02 190 2.02  46 3.00  66 3.00

  57  0.250  0.000  0.393- 190 1.98 210 1.98 111 1.98 131 1.98 192 2.02 185 2.02  47 3.00  67 3.00

  58  0.250  0.875  0.500- 172 1.98 173 1.98 192 1.98 193 1.98 195 2.02 114 2.02  48 3.00  68 3.00

  59  0.500  0.000  0.500- 194 1.98 214 1.98 195 1.98 215 1.98 189 2.02 196 2.03  49 3.00  69 3.00

  60  0.510  0.874  0.604- 199 1.87 176 1.91 196 1.92 177 2.04 197 2.06 198 2.13  50 3.01  70 3.01

  61  0.257  1.000  0.612- 200 1.89 198 1.93 218 1.93 139 2.07 119 2.07 193 2.16  51 3.00  71 3.00

  62  0.251  0.875  0.722- 201 1.85 181 1.85 203 2.06 122 2.08 200 2.13 180 2.13  52 2.99  72 2.99

  63  0.499  1.000  0.709- 197 1.83 203 1.96 223 1.97 222 1.98 202 1.98  73 2.99  53 2.99
  64  0.250  0.125  0.285- 185 1.98 205 1.98 204 1.98 184 1.98 126 2.02 207 2.02  54 3.00  74 3.00

  65  0.500  0.250  0.285- 206 1.98 207 1.98 226 1.98 227 1.98 208 2.02  75 3.00  55 3.00
  66  0.500  0.125  0.393- 188 1.98 208 1.98 189 1.98 209 1.98 211 2.02 210 2.02  56 3.00  76 3.00

  67  0.250  0.250  0.393- 210 1.98 230 1.98 131 1.98 151 1.98 212 2.02 205 2.02  57 3.00  77 3.00

  68  0.250  0.125  0.500- 192 1.98 193 1.98 212 1.98 213 1.98 215 2.02 134 2.02  58 3.00  78 3.00

  69  0.500  0.250  0.500- 214 1.98 234 1.98 215 1.98 235 1.98 209 2.02 216 2.05  59 3.00  79 3.00

  70  0.510  0.126  0.604- 219 1.87 216 1.91 196 1.92 217 2.04 197 2.06 218 2.13  80 3.01  60 3.01

  71  0.257  0.250  0.612- 220 1.89 238 1.93 218 1.93 159 2.07 139 2.07 213 2.16  81 2.99  61 3.00

  72  0.251  0.125  0.722- 201 1.85 221 1.85 223 2.06 142 2.08 220 2.13 200 2.13  82 2.99  62 2.99

  73  0.501  0.250  0.709- 217 1.83 242 1.95 243 1.97 222 1.98 223 1.98  83 2.99  63 2.99
  74  0.250  0.375  0.285- 205 1.98 225 1.98 224 1.98 204 1.98 146 2.02 227 2.02  44 3.00  64 3.00

  75  0.500  0.500  0.285- 166 1.98 167 1.98 226 1.98 227 1.98 228 2.02  65 3.00  45 3.00
  76  0.500  0.375  0.393- 208 1.98 228 1.98 209 1.98 229 1.98 231 2.02 230 2.02  46 3.00  66 3.00

  77  0.250  0.500  0.393- 170 1.98 230 1.98  91 1.98 151 1.98 225 2.02 232 2.02  47 3.00  67 3.00

  78  0.250  0.375  0.500- 212 1.98 213 1.98 232 1.98 233 1.98 235 2.02 154 2.02  48 3.00  68 3.00

  79  0.500  0.500  0.500- 174 1.98 234 1.98 175 1.98 235 1.98 229 2.02 236 2.05  49 3.00  69 3.00

  80  0.510  0.377  0.606- 239 1.87 236 1.92 216 1.95 237 2.03 217 2.04 238 2.13  50 2.95  70 3.01

  81  0.257  0.500  0.612- 240 1.89 238 1.93 178 1.93 159 2.07  99 2.07 233 2.17  71 2.99  51 2.99

  82  0.250  0.375  0.722- 221 1.85 241 1.85 162 2.06 243 2.08 240 2.13 220 2.13  72 2.99  52 3.00

  83  0.500  0.499  0.713- 237 1.91 243 1.96 183 1.97 242 1.99 182 2.01   3 2.30  73 2.99  53 3.01

  84  0.750  0.750  0.243-   4 1.98  14 1.98
  85  0.750  0.750  0.327-   4 1.98  14 1.98   7 2.02
  86  0.098  0.625  0.285-   5 1.98  35 1.98  44 2.02
  87  0.902  0.625  0.285-   5 1.98  35 1.98   4 2.02
  88  0.000  0.750  0.351-   6 1.98  16 1.98   5 2.02
  89  0.000  0.750  0.434-   6 1.98  16 1.98   9 2.02
  90  0.848  0.625  0.393-   7 1.98  37 1.98   6 2.02
  91  0.152  0.625  0.393-  47 1.98  77 1.98   6 2.02
  92  0.750  0.750  0.458-   8 1.98  18 1.98   7 2.02
  93  0.750  0.750  0.542-   8 1.98  18 1.98  11 2.16
  94  0.098  0.625  0.500-   9 1.98  39 1.98  48 2.02
  95  0.902  0.625  0.500-   9 1.98  39 1.98   8 2.02
  96  0.000  0.750  0.566-  10 1.92  20 1.92   9 2.05
  97  0.000  0.750  0.651-  13 1.83  10 2.05  20 2.06
  98  0.850  0.625  0.608-  11 1.93  41 1.93  10 2.12
  99  0.150  0.625  0.608-  10 1.87  51 2.07  81 2.07
 100  0.752  0.751  0.673-  11 1.89  12 2.12  22 2.13
 101  0.749  0.749  0.757-  12 1.85  22 1.85
 102  0.094  0.625  0.721-  43 1.97  13 1.98  52 2.06
 103  0.907  0.625  0.721-  43 1.97  13 1.98  12 2.07
 104  0.750  0.000  0.243-  14 1.98  24 1.98
 105  0.750  0.000  0.327-  14 1.98  24 1.98  17 2.02
 106  0.098  0.875  0.285-   5 1.98  15 1.98  54 2.02
 107  0.902  0.875  0.285-   5 1.98  15 1.98  14 2.02
 108  0.000  0.000  0.351-  16 1.98  26 1.98  15 2.02
 109  0.000  0.000  0.434-  16 1.98  26 1.98  19 2.02
 110  0.848  0.875  0.393-   7 1.98  17 1.98  16 2.02
 111  0.152  0.875  0.393-  47 1.98  57 1.98  16 2.02
 112  0.750  0.000  0.458-  18 1.98  28 1.98  17 2.02
 113  0.750  0.000  0.542-  18 1.98  28 1.98  21 2.16
 114  0.098  0.875  0.500-   9 1.98  19 1.98  58 2.02
 115  0.902  0.875  0.500-   9 1.98  19 1.98  18 2.02
 116  0.001  1.000  0.566-  20 1.92  30 1.92  19 2.05
 117  0.000  0.000  0.651-  23 1.83  30 2.05  20 2.05
 118  0.849  0.875  0.608-  11 1.93  21 1.93  20 2.12
 119  0.150  0.875  0.608-  20 1.87  61 2.07  51 2.07
 120  0.751  0.000  0.673-  21 1.89  32 2.12  22 2.13
 121  0.750  1.000  0.758-  32 1.85  22 1.85
 122  0.094  0.875  0.721-  13 1.97  23 1.98  62 2.08
 123  0.907  0.875  0.721-  13 1.97  23 1.97  22 2.08
 124  0.750  0.250  0.243-  24 1.98  34 1.98
 125  0.750  0.250  0.327-  24 1.98  34 1.98  27 2.02
 126  0.098  0.125  0.285-  15 1.98  25 1.98  64 2.02
 127  0.902  0.125  0.285-  15 1.98  25 1.98  24 2.02
 128  0.000  0.250  0.351-  26 1.98  36 1.98  25 2.02
 129  0.000  0.250  0.434-  26 1.98  36 1.98  29 2.02
 130  0.848  0.125  0.393-  17 1.98  27 1.98  26 2.02
 131  0.152  0.125  0.393-  57 1.98  67 1.98  26 2.02
 132  0.750  0.250  0.458-  28 1.98  38 1.98  27 2.02
 133  0.750  0.250  0.542-  28 1.98  38 1.98  31 2.16
 134  0.098  0.125  0.500-  19 1.98  29 1.98  68 2.02
 135  0.902  0.125  0.500-  19 1.98  29 1.98  28 2.02
 136  0.001  0.250  0.566-  40 1.92  30 1.92  29 2.05
 137  0.000  0.250  0.651-  33 1.83  40 2.05  30 2.05
 138  0.849  0.125  0.608-  31 1.93  21 1.93  30 2.13
 139  0.150  0.125  0.608-  30 1.87  61 2.07  71 2.07
 140  0.752  0.250  0.673-  31 1.89  42 2.11  32 2.13
 141  0.750  0.250  0.757-  42 1.85  32 1.86
 142  0.094  0.125  0.721-  33 1.97  23 1.98  72 2.08
 143  0.907  0.125  0.721-  33 1.97  23 1.97  32 2.08
 144  0.750  0.500  0.243-   4 1.98  34 1.98
 145  0.750  0.500  0.327-   4 1.98  34 1.98  37 2.02
 146  0.098  0.375  0.285-  25 1.98  35 1.98  74 2.02
 147  0.902  0.375  0.285-  25 1.98  35 1.98  34 2.02
 148  0.000  0.500  0.351-   6 1.98  36 1.98  35 2.02
 149  0.000  0.500  0.434-   6 1.98  36 1.98  39 2.02
 150  0.848  0.375  0.393-  27 1.98  37 1.98  36 2.02
 151  0.152  0.375  0.393-  67 1.98  77 1.98  36 2.02
 152  0.750  0.500  0.458-   8 1.98  38 1.98  37 2.02
 153  0.750  0.500  0.542-   8 1.98  38 1.98  41 2.16
 154  0.098  0.375  0.500-  29 1.98  39 1.98  78 2.02
 155  0.902  0.375  0.500-  29 1.98  39 1.98  38 2.02
 156  0.001  0.500  0.566-  40 1.92  10 1.92  39 2.05
 157  0.000  0.500  0.651-  43 1.83  10 2.05  40 2.06
 158  0.850  0.375  0.608-  31 1.93  41 1.94  40 2.12
 159  0.150  0.375  0.608-  40 1.87  81 2.07  71 2.07
 160  0.754  0.500  0.673-  41 1.89  12 2.12  42 2.13
 161  0.744  0.500  0.757-  12 1.87  42 1.87
 162  0.094  0.375  0.721-  43 1.97  33 1.98  82 2.06
 163  0.907  0.375  0.721-  43 1.97  33 1.98  42 2.06
 164  0.250  0.750  0.243-  44 1.98  54 1.98
 165  0.250  0.750  0.327-  44 1.98  54 1.98  47 2.02
 166  0.598  0.625  0.285-  45 1.98  75 1.98   4 2.02
 167  0.402  0.625  0.285-  45 1.98  75 1.98  44 2.02
 168  0.500  0.750  0.351-  46 1.98  56 1.98  45 2.02
 169  0.500  0.750  0.434-  46 1.98  56 1.98  49 2.02
 170  0.348  0.625  0.393-  47 1.98  77 1.98  46 2.02
 171  0.652  0.625  0.393-   7 1.98  37 1.98  46 2.02
 172  0.250  0.750  0.458-  48 1.98  58 1.98  47 2.02
 173  0.250  0.750  0.542-  48 1.98  58 1.98  51 2.16
 174  0.598  0.625  0.500-  49 1.98  79 1.98   8 2.02
 175  0.402  0.625  0.500-  49 1.98  79 1.98  48 2.02
 176  0.501  0.749  0.566-  60 1.91  50 1.95  49 2.04
 177  0.499  0.751  0.650-  53 1.83  60 2.04  50 2.04
 178  0.349  0.625  0.608-  51 1.93  81 1.93  50 2.13
 179  0.651  0.625  0.608-  50 1.87  11 2.06  41 2.06
 180  0.251  0.750  0.673-  51 1.89  52 2.12  62 2.13
 181  0.251  0.750  0.758-  52 1.85  62 1.85
 182  0.596  0.628  0.718-  53 1.94  83 2.01  12 2.06
 183  0.407  0.626  0.721-  83 1.97  53 1.97  52 2.09
 184  0.250  0.000  0.243-  54 1.98  64 1.98
 185  0.250  0.000  0.327-  54 1.98  64 1.98  57 2.02
 186  0.598  0.875  0.285-  45 1.98  55 1.98  14 2.02
 187  0.402  0.875  0.285-  45 1.98  55 1.98  54 2.02
 188  0.500  0.000  0.351-  56 1.98  66 1.98  55 2.02
 189  0.500  0.000  0.434-  56 1.98  66 1.98  59 2.02
 190  0.348  0.875  0.393-  47 1.98  57 1.98  56 2.02
 191  0.652  0.875  0.393-   7 1.98  17 1.98  56 2.02
 192  0.250  0.000  0.458-  58 1.98  68 1.98  57 2.02
 193  0.250  0.000  0.542-  58 1.98  68 1.98  61 2.16
 194  0.598  0.875  0.500-  49 1.98  59 1.98  18 2.02
 195  0.402  0.875  0.500-  49 1.98  59 1.98  58 2.02
 196  0.500  1.000  0.566-  60 1.92  70 1.92  59 2.03
 197  0.500  1.000  0.650-  63 1.83  60 2.06  70 2.06
 198  0.349  0.875  0.608-  61 1.93  51 1.93  60 2.13
 199  0.651  0.875  0.608-  60 1.87  11 2.06  21 2.06
 200  0.251  1.000  0.673-  61 1.89  62 2.13  72 2.13
 201  0.250  0.000  0.757-  62 1.85  72 1.85
 202  0.594  0.875  0.720-  53 1.97  63 1.98  22 2.06
 203  0.407  0.876  0.721-  63 1.96  53 1.99  62 2.06
 204  0.250  0.250  0.243-  64 1.98  74 1.98
 205  0.250  0.250  0.327-  64 1.98  74 1.98  67 2.02
 206  0.598  0.125  0.285-  55 1.98  65 1.98  24 2.02
 207  0.402  0.125  0.285-  55 1.98  65 1.98  64 2.02
 208  0.500  0.250  0.351-  66 1.98  76 1.98  65 2.02
 209  0.500  0.250  0.434-  66 1.98  76 1.98  69 2.02
 210  0.348  0.125  0.393-  57 1.98  67 1.98  66 2.02
 211  0.652  0.125  0.393-  17 1.98  27 1.98  66 2.02
 212  0.250  0.250  0.458-  68 1.98  78 1.98  67 2.02
 213  0.250  0.250  0.542-  68 1.98  78 1.98  71 2.16
 214  0.598  0.125  0.500-  59 1.98  69 1.98  28 2.02
 215  0.402  0.125  0.500-  59 1.98  69 1.98  68 2.02
 216  0.501  0.251  0.566-  70 1.91  80 1.95  69 2.05
 217  0.500  0.249  0.650-  73 1.83  70 2.04  80 2.04
 218  0.349  0.125  0.608-  61 1.93  71 1.93  70 2.13
 219  0.651  0.125  0.608-  70 1.87  21 2.06  31 2.06
 220  0.250  0.250  0.673-  71 1.89  72 2.13  82 2.13
 221  0.251  0.250  0.757-  82 1.85  72 1.85
 222  0.594  0.125  0.720-  73 1.98  63 1.98  32 2.06
 223  0.406  0.124  0.720-  63 1.97  73 1.98  72 2.06
 224  0.250  0.500  0.243-  44 1.98  74 1.98
 225  0.250  0.500  0.327-  44 1.98  74 1.98  77 2.02
 226  0.598  0.375  0.285-  65 1.98  75 1.98  34 2.02
 227  0.402  0.375  0.285-  65 1.98  75 1.98  74 2.02
 228  0.500  0.500  0.351-  46 1.98  76 1.98  75 2.02
 229  0.500  0.500  0.434-  46 1.98  76 1.98  79 2.02
 230  0.348  0.375  0.393-  67 1.98  77 1.98  76 2.02
 231  0.652  0.375  0.393-  27 1.98  37 1.98  76 2.02
 232  0.250  0.500  0.458-  48 1.98  78 1.98  77 2.02
 233  0.250  0.500  0.542-  48 1.98  78 1.98  81 2.17
 234  0.598  0.375  0.500-  69 1.98  79 1.98  38 2.02
 235  0.402  0.375  0.500-  69 1.98  79 1.98  78 2.02
 236  0.501  0.500  0.567-  50 1.92  80 1.92  79 2.05
 237  0.500  0.500  0.651-  83 1.91  50 2.03  80 2.03
 238  0.349  0.375  0.609-  71 1.93  81 1.93  80 2.13
 239  0.651  0.375  0.608-  80 1.87  41 2.06  31 2.06
 240  0.250  0.500  0.673-  81 1.89  52 2.13  82 2.13
 241  0.252  0.500  0.757-  82 1.85  52 1.86
 242  0.596  0.372  0.718-  73 1.95  83 1.99  42 2.06
 243  0.406  0.374  0.719-  83 1.96  73 1.97  82 2.08
 

IMPORTANT INFORMATION: All symmetrisations will be switched off!
NOSYMM: (Re-)initialisation of all symmetry stuff for point group C_1.


----------------------------------------------------------------------------------------

                                     Primitive cell                                     

  volume of cell :    4895.9617

  direct lattice vectors                    reciprocal lattice vectors
    13.251680751  0.000000000  0.000000000     0.075462126  0.000000000  0.000000000
     0.000000000 11.981436613  0.000000000     0.000000000  0.083462445  0.000000000
     0.000000000  0.000000000 30.836008487     0.000000000  0.000000000  0.032429619

  length of vectors
    13.251680751 11.981436613 30.836008487     0.075462126  0.083462445  0.032429619

  position of ions in fractional coordinates (direct lattice)
     0.481764245  0.540390638  0.805656768
     0.592153435  0.500872016  0.793788013
     0.520438073  0.490537000  0.787069101
     0.750000000  0.625000000  0.285126523
     0.000000000  0.750000000  0.285126523
     0.000000000  0.625000000  0.392563261
     0.750000000  0.750000000  0.392563261
     0.750000000  0.625000000  0.500000000
     0.000000000  0.750000000  0.500000000
     0.009390686  0.625085650  0.605221482
     0.757534768  0.750151113  0.611785260
     0.750664453  0.625325054  0.721600750
     0.000164746  0.750433103  0.710089723
     0.750000000  0.875000000  0.285126523
     0.000000000  0.000000000  0.285126523
     0.000000000  0.875000000  0.392563261
     0.750000000  0.000000000  0.392563261
     0.750000000  0.875000000  0.500000000
     0.000000000  0.000000000  0.500000000
     0.009507384  0.875063628  0.605236994
     0.757181219  0.000027815  0.611976310
     0.749572170  0.874872815  0.722205654
     0.000103617  0.999974971  0.710053756
     0.750000000  0.125000000  0.285126523
     0.000000000  0.250000000  0.285126523
     0.000000000  0.125000000  0.392563261
     0.750000000  0.250000000  0.392563261
     0.750000000  0.125000000  0.500000000
     0.000000000  0.250000000  0.500000000
     0.009649065  0.124949852  0.605248387
     0.757576875  0.249844127  0.611799880
     0.749426914  0.124455624  0.722205195
     0.000170914  0.249535007  0.710075573
     0.750000000  0.375000000  0.285126523
     0.000000000  0.500000000  0.285126523
     0.000000000  0.375000000  0.392563261
     0.750000000  0.500000000  0.392563261
     0.750000000  0.375000000  0.500000000
     0.000000000  0.500000000  0.500000000
     0.009342040  0.374983966  0.605189128
     0.757775484  0.500065434  0.611907013
     0.751037748  0.374084906  0.721678213
     0.000328891  0.500081748  0.710047777
     0.250000000  0.625000000  0.285126523
     0.500000000  0.750000000  0.285126523
     0.500000000  0.625000000  0.392563261
     0.250000000  0.750000000  0.392563261
     0.250000000  0.625000000  0.500000000
     0.500000000  0.750000000  0.500000000
     0.509679334  0.623123671  0.606235807
     0.257483643  0.749876779  0.611924220
     0.249806197  0.625370408  0.722110896
     0.500989487  0.750040563  0.709081532
     0.250000000  0.875000000  0.285126523
     0.500000000  0.000000000  0.285126523
     0.500000000  0.875000000  0.392563261
     0.250000000  0.000000000  0.392563261
     0.250000000  0.875000000  0.500000000
     0.500000000  0.000000000  0.500000000
     0.509546747  0.874169846  0.604418789
     0.257477024  0.999965956  0.611978341
     0.250929584  0.875164598  0.722238091
     0.499385205  0.999958521  0.709243397
     0.250000000  0.125000000  0.285126523
     0.500000000  0.250000000  0.285126523
     0.500000000  0.125000000  0.392563261
     0.250000000  0.250000000  0.392563261
     0.250000000  0.125000000  0.500000000
     0.500000000  0.250000000  0.500000000
     0.509521793  0.125797694  0.604464392
     0.257448242  0.250100451  0.611970886
     0.250728674  0.125056784  0.722194507
     0.500712549  0.249806699  0.709246914
     0.250000000  0.375000000  0.285126523
     0.500000000  0.500000000  0.285126523
     0.500000000  0.375000000  0.392563261
     0.250000000  0.500000000  0.392563261
     0.250000000  0.375000000  0.500000000
     0.500000000  0.500000000  0.500000000
     0.509761789  0.376683948  0.606359964
     0.257141387  0.499975330  0.612086707
     0.249759957  0.374932075  0.722136723
     0.499855935  0.499250227  0.713176037
     0.750000000  0.750000000  0.243222141
     0.750000000  0.750000000  0.327030904
     0.097509432  0.625000000  0.285126523
     0.902490568  0.625000000  0.285126523
     0.000000000  0.750000000  0.350658880
     0.000000000  0.750000000  0.434467643
     0.847509432  0.625000000  0.392563261
     0.152490568  0.625000000  0.392563261
     0.750000000  0.750000000  0.458095618
     0.750000000  0.750000000  0.541904382
     0.097509432  0.625000000  0.500000000
     0.902490568  0.625000000  0.500000000
     0.000487697  0.750085770  0.566399025
     0.000133884  0.749929266  0.650662222
     0.849568604  0.625234465  0.608040986
     0.150254486  0.625140304  0.608089333
     0.752372280  0.750544544  0.673067845
     0.749461315  0.749416368  0.757381928
     0.094069682  0.624949561  0.720986775
     0.906650909  0.624599673  0.721386335
     0.750000000  0.000000000  0.243222141
     0.750000000  0.000000000  0.327030904
     0.097509432  0.875000000  0.285126523
     0.902490568  0.875000000  0.285126523
     0.000000000  0.000000000  0.350658880
     0.000000000  0.000000000  0.434467643
     0.847509432  0.875000000  0.392563261
     0.152490568  0.875000000  0.392563261
     0.750000000  0.000000000  0.458095618
     0.750000000  0.000000000  0.541904382
     0.097509432  0.875000000  0.500000000
     0.902490568  0.875000000  0.500000000
     0.000506606  0.999994322  0.566393821
     0.000235867  0.000037305  0.650619681
     0.849370566  0.875247205  0.608225390
     0.150279586  0.874941938  0.608170934
     0.750895642  0.000057232  0.673241386
     0.750133708  0.999839806  0.757517628
     0.093985844  0.874781208  0.720711211
     0.906666604  0.874944289  0.721025090
     0.750000000  0.250000000  0.243222141
     0.750000000  0.250000000  0.327030904
     0.097509432  0.125000000  0.285126523
     0.902490568  0.125000000  0.285126523
     0.000000000  0.250000000  0.350658880
     0.000000000  0.250000000  0.434467643
     0.847509432  0.125000000  0.392563261
     0.152490568  0.125000000  0.392563261
     0.750000000  0.250000000  0.458095618
     0.750000000  0.250000000  0.541904382
     0.097509432  0.125000000  0.500000000
     0.902490568  0.125000000  0.500000000
     0.000504020  0.249956545  0.566402382
     0.000193709  0.250042309  0.650656716
     0.849351350  0.124806884  0.608231852
     0.150293233  0.124902202  0.608071449
     0.752286304  0.249784454  0.673072501
     0.749544834  0.250331349  0.757332717
     0.093894958  0.125173750  0.720796924
     0.906617734  0.125010957  0.720965338
     0.750000000  0.500000000  0.243222141
     0.750000000  0.500000000  0.327030904
     0.097509432  0.375000000  0.285126523
     0.902490568  0.375000000  0.285126523
     0.000000000  0.500000000  0.350658880
     0.000000000  0.500000000  0.434467643
     0.847509432  0.375000000  0.392563261
     0.152490568  0.375000000  0.392563261
     0.750000000  0.500000000  0.458095618
     0.750000000  0.500000000  0.541904382
     0.097509432  0.375000000  0.500000000
     0.902490568  0.375000000  0.500000000
     0.000517504  0.500024840  0.566398656
     0.000210372  0.500055738  0.650630229
     0.849593728  0.374831887  0.608056393
     0.150249869  0.374975484  0.608099336
     0.753686076  0.500172142  0.673025336
     0.743678715  0.499958901  0.757456955
     0.093989578  0.375121327  0.720930629
     0.906595986  0.375399104  0.721375467
     0.250000000  0.750000000  0.243222141
     0.250000000  0.750000000  0.327030904
     0.597509432  0.625000000  0.285126523
     0.402490568  0.625000000  0.285126523
     0.500000000  0.750000000  0.350658880
     0.500000000  0.750000000  0.434467643
     0.347509432  0.625000000  0.392563261
     0.652490568  0.625000000  0.392563261
     0.250000000  0.750000000  0.458095618
     0.250000000  0.750000000  0.541904382
     0.597509432  0.625000000  0.500000000
     0.402490568  0.625000000  0.500000000
     0.500612929  0.749039801  0.566270803
     0.499279046  0.750945609  0.649841686
     0.348899875  0.624892151  0.608388582
     0.650926042  0.625012333  0.608470865
     0.250803347  0.749784348  0.673182739
     0.250616456  0.749931669  0.757530987
     0.595749775  0.628208785  0.717936070
     0.407131162  0.626081945  0.720888561
     0.250000000  0.000000000  0.243222141
     0.250000000  0.000000000  0.327030904
     0.597509432  0.875000000  0.285126523
     0.402490568  0.875000000  0.285126523
     0.500000000  0.000000000  0.350658880
     0.500000000  0.000000000  0.434467643
     0.347509432  0.875000000  0.392563261
     0.652490568  0.875000000  0.392563261
     0.250000000  0.000000000  0.458095618
     0.250000000  0.000000000  0.541904382
     0.597509432  0.875000000  0.500000000
     0.402490568  0.875000000  0.500000000
     0.500309974  0.999959949  0.565983584
     0.500126066  0.999865400  0.649999987
     0.348985982  0.874980653  0.608096332
     0.650701532  0.874907596  0.607973253
     0.250608606  0.999893776  0.673121285
     0.250029018  0.000035987  0.757446803
     0.594128980  0.875052255  0.720344228
     0.406515755  0.875530883  0.720567617
     0.250000000  0.250000000  0.243222141
     0.250000000  0.250000000  0.327030904
     0.597509432  0.125000000  0.285126523
     0.402490568  0.125000000  0.285126523
     0.500000000  0.250000000  0.350658880
     0.500000000  0.250000000  0.434467643
     0.347509432  0.125000000  0.392563261
     0.652490568  0.125000000  0.392563261
     0.250000000  0.250000000  0.458095618
     0.250000000  0.250000000  0.541904382
     0.597509432  0.125000000  0.500000000
     0.402490568  0.125000000  0.500000000
     0.500619038  0.250984397  0.566328615
     0.499825305  0.248693706  0.649925183
     0.349039874  0.124967833  0.608156558
     0.650747074  0.125022488  0.607979529
     0.249982147  0.249709439  0.673101302
     0.250668495  0.250195844  0.757420147
     0.594133353  0.124578702  0.720332528
     0.406402484  0.124442658  0.720421635
     0.250000000  0.500000000  0.243222141
     0.250000000  0.500000000  0.327030904
     0.597509432  0.375000000  0.285126523
     0.402490568  0.375000000  0.285126523
     0.500000000  0.500000000  0.350658880
     0.500000000  0.500000000  0.434467643
     0.347509432  0.375000000  0.392563261
     0.652490568  0.375000000  0.392563261
     0.250000000  0.500000000  0.458095618
     0.250000000  0.500000000  0.541904382
     0.597509432  0.375000000  0.500000000
     0.402490568  0.375000000  0.500000000
     0.500684287  0.499853410  0.566601931
     0.500309054  0.500293425  0.651218227
     0.348938778  0.375064314  0.608543519
     0.650929002  0.375114212  0.608497596
     0.249838819  0.500325542  0.673176387
     0.252291984  0.500042066  0.757446024
     0.595589949  0.372170905  0.717816289
     0.406208668  0.373610388  0.719236252

  ion indices of the primitive-cell ions
   primitive index   ion index
                 1           1
                 2           2
                 3           3
                 4           4
                 5           5
                 6           6
                 7           7
                 8           8
                 9           9
                10          10
                11          11
                12          12
                13          13
                14          14
                15          15
                16          16
                17          17
                18          18
                19          19
                20          20
                21          21
                22          22
                23          23
                24          24
                25          25
                26          26
                27          27
                28          28
                29          29
                30          30
                31          31
                32          32
                33          33
                34          34
                35          35
                36          36
                37          37
                38          38
                39          39
                40          40
                41          41
                42          42
                43          43
                44          44
                45          45
                46          46
                47          47
                48          48
                49          49
                50          50
                51          51
                52          52
                53          53
                54          54
                55          55
                56          56
                57          57
                58          58
                59          59
                60          60
                61          61
                62          62
                63          63
                64          64
                65          65
                66          66
                67          67
                68          68
                69          69
                70          70
                71          71
                72          72
                73          73
                74          74
                75          75
                76          76
                77          77
                78          78
                79          79
                80          80
                81          81
                82          82
                83          83
                84          84
                85          85
                86          86
                87          87
                88          88
                89          89
                90          90
                91          91
                92          92
                93          93
                94          94
                95          95
                96          96
                97          97
                98          98
                99          99
               100         100
               101         101
               102         102
               103         103
               104         104
               105         105
               106         106
               107         107
               108         108
               109         109
               110         110
               111         111
               112         112
               113         113
               114         114
               115         115
               116         116
               117         117
               118         118
               119         119
               120         120
               121         121
               122         122
               123         123
               124         124
               125         125
               126         126
               127         127
               128         128
               129         129
               130         130
               131         131
               132         132
               133         133
               134         134
               135         135
               136         136
               137         137
               138         138
               139         139
               140         140
               141         141
               142         142
               143         143
               144         144
               145         145
               146         146
               147         147
               148         148
               149         149
               150         150
               151         151
               152         152
               153         153
               154         154
               155         155
               156         156
               157         157
               158         158
               159         159
               160         160
               161         161
               162         162
               163         163
               164         164
               165         165
               166         166
               167         167
               168         168
               169         169
               170         170
               171         171
               172         172
               173         173
               174         174
               175         175
               176         176
               177         177
               178         178
               179         179
               180         180
               181         181
               182         182
               183         183
               184         184
               185         185
               186         186
               187         187
               188         188
               189         189
               190         190
               191         191
               192         192
               193         193
               194         194
               195         195
               196         196
               197         197
               198         198
               199         199
               200         200
               201         201
               202         202
               203         203
               204         204
               205         205
               206         206
               207         207
               208         208
               209         209
               210         210
               211         211
               212         212
               213         213
               214         214
               215         215
               216         216
               217         217
               218         218
               219         219
               220         220
               221         221
               222         222
               223         223
               224         224
               225         225
               226         226
               227         227
               228         228
               229         229
               230         230
               231         231
               232         232
               233         233
               234         234
               235         235
               236         236
               237         237
               238         238
               239         239
               240         240
               241         241
               242         242
               243         243

----------------------------------------------------------------------------------------

 
 
 KPOINTS: pymatgen v2020.8.13 with grid density = 

Automatic generation of k-mesh.
 Grid dimensions read from file:
 generate k-points for:    2    2    1

 Generating k-lattice:

  Cartesian coordinates                     Fractional coordinates (reciprocal lattice)
     0.037731063  0.000000000  0.000000000     0.500000000  0.000000000  0.000000000
     0.000000000  0.041731223  0.000000000     0.000000000  0.500000000  0.000000000
     0.000000000  0.000000000  0.032429619     0.000000000  0.000000000  1.000000000

  Length of vectors
     0.037731063  0.041731223  0.032429619

  Shift w.r.t. Gamma in fractional coordinates (k-lattice)
     0.000000000  0.000000000  0.000000000

 
 Subroutine IBZKPT returns following result:
 ===========================================
 
 Found      4 irreducible k-points:
 
 Following reciprocal coordinates:
            Coordinates               Weight
  0.000000  0.000000  0.000000      1.000000
  0.500000  0.000000  0.000000      1.000000
  0.000000  0.500000  0.000000      1.000000
  0.500000  0.500000  0.000000      1.000000
 
 Following cartesian coordinates:
            Coordinates               Weight
  0.000000  0.000000  0.000000      1.000000
  0.037731  0.000000  0.000000      1.000000
  0.000000  0.041731  0.000000      1.000000
  0.037731  0.041731  0.000000      1.000000
 


--------------------------------------------------------------------------------------------------------




 Dimension of arrays:
   k-points           NKPTS =      4   k-points in BZ     NKDIM =      4   number of bands    NBANDS=   1064
   number of dos      NEDOS =    301   number of ions     NIONS =    243
   non local maximal  LDIM  =      6   non local SUM 2l+1 LMDIM =     18
   total plane-waves  NPLWV = ******
   max r-space proj   IRMAX =      1   max aug-charges    IRDMAX=  20751
   dimension x,y,z NGX =   108 NGY =   96 NGZ =  250
   dimension x,y,z NGXF=   216 NGYF=  192 NGZF=  500
   support grid    NGXF=   216 NGYF=  192 NGZF=  500
   ions per type =               2   1  80 160
   NGX,Y,Z   is equivalent  to a cutoff of  13.55, 13.32, 13.48 a.u.
   NGXF,Y,Z  is equivalent  to a cutoff of  27.10, 26.64, 26.96 a.u.

 SYSTEM =  TiO2                                    
 POSCAR =   H  O Ti  O                             

--------------------------------------------------------------------------------------------------------


  energy-cutoff  :      600.00
  volume of cell :     4895.96
      direct lattice vectors                 reciprocal lattice vectors
    13.251680751  0.000000000  0.000000000     0.075462126  0.000000000  0.000000000
     0.000000000 11.981436613  0.000000000     0.000000000  0.083462445  0.000000000
     0.000000000  0.000000000 30.836008487     0.000000000  0.000000000  0.032429619

  length of vectors
    13.251680751 11.981436613 30.836008487     0.075462126  0.083462445  0.032429619


 
 k-points in units of 2pi/SCALE and weight: pymatgen v2020.8.13 with grid density = 
   0.00000000  0.00000000  0.00000000       0.250
   0.03773106  0.00000000  0.00000000       0.250
   0.00000000  0.04173122  0.00000000       0.250
   0.03773106  0.04173122  0.00000000       0.250
 
 k-points in reciprocal lattice and weights: pymatgen v2020.8.13 with grid density = 
   0.00000000  0.00000000  0.00000000       0.250
   0.50000000  0.00000000  0.00000000       0.250
   0.00000000  0.50000000  0.00000000       0.250
   0.50000000  0.50000000  0.00000000       0.250
 
 position of ions in fractional coordinates (direct lattice) 
   0.48176425  0.54039064  0.80565677
   0.59215344  0.50087202  0.79378801
   0.52043807  0.49053700  0.78706910
   0.75000000  0.62500000  0.28512652
   0.00000000  0.75000000  0.28512652
   0.00000000  0.62500000  0.39256326
   0.75000000  0.75000000  0.39256326
   0.75000000  0.62500000  0.50000000
   0.00000000  0.75000000  0.50000000
   0.00939069  0.62508565  0.60522148
   0.75753477  0.75015111  0.61178526
   0.75066445  0.62532505  0.72160075
   0.00016475  0.75043310  0.71008972
   0.75000000  0.87500000  0.28512652
   0.00000000  0.00000000  0.28512652
   0.00000000  0.87500000  0.39256326
   0.75000000  0.00000000  0.39256326
   0.75000000  0.87500000  0.50000000
   0.00000000  0.00000000  0.50000000
   0.00950738  0.87506363  0.60523699
   0.75718122  0.00002782  0.61197631
   0.74957217  0.87487282  0.72220565
   0.00010362  0.99997497  0.71005376
   0.75000000  0.12500000  0.28512652
   0.00000000  0.25000000  0.28512652
   0.00000000  0.12500000  0.39256326
   0.75000000  0.25000000  0.39256326
   0.75000000  0.12500000  0.50000000
   0.00000000  0.25000000  0.50000000
   0.00964906  0.12494985  0.60524839
   0.75757688  0.24984413  0.61179988
   0.74942691  0.12445562  0.72220519
   0.00017091  0.24953501  0.71007557
   0.75000000  0.37500000  0.28512652
   0.00000000  0.50000000  0.28512652
   0.00000000  0.37500000  0.39256326
   0.75000000  0.50000000  0.39256326
   0.75000000  0.37500000  0.50000000
   0.00000000  0.50000000  0.50000000
   0.00934204  0.37498397  0.60518913
   0.75777548  0.50006543  0.61190701
   0.75103775  0.37408491  0.72167821
   0.00032889  0.50008175  0.71004778
   0.25000000  0.62500000  0.28512652
   0.50000000  0.75000000  0.28512652
   0.50000000  0.62500000  0.39256326
   0.25000000  0.75000000  0.39256326
   0.25000000  0.62500000  0.50000000
   0.50000000  0.75000000  0.50000000
   0.50967933  0.62312367  0.60623581
   0.25748364  0.74987678  0.61192422
   0.24980620  0.62537041  0.72211090
   0.50098949  0.75004056  0.70908153
   0.25000000  0.87500000  0.28512652
   0.50000000  0.00000000  0.28512652
   0.50000000  0.87500000  0.39256326
   0.25000000  0.00000000  0.39256326
   0.25000000  0.87500000  0.50000000
   0.50000000  0.00000000  0.50000000
   0.50954675  0.87416985  0.60441879
   0.25747702  0.99996596  0.61197834
   0.25092958  0.87516460  0.72223809
   0.49938521  0.99995852  0.70924340
   0.25000000  0.12500000  0.28512652
   0.50000000  0.25000000  0.28512652
   0.50000000  0.12500000  0.39256326
   0.25000000  0.25000000  0.39256326
   0.25000000  0.12500000  0.50000000
   0.50000000  0.25000000  0.50000000
   0.50952179  0.12579769  0.60446439
   0.25744824  0.25010045  0.61197089
   0.25072867  0.12505678  0.72219451
   0.50071255  0.24980670  0.70924691
   0.25000000  0.37500000  0.28512652
   0.50000000  0.50000000  0.28512652
   0.50000000  0.37500000  0.39256326
   0.25000000  0.50000000  0.39256326
   0.25000000  0.37500000  0.50000000
   0.50000000  0.50000000  0.50000000
   0.50976179  0.37668395  0.60635996
   0.25714139  0.49997533  0.61208671
   0.24975996  0.37493207  0.72213672
   0.49985594  0.49925023  0.71317604
   0.75000000  0.75000000  0.24322214
   0.75000000  0.75000000  0.32703090
   0.09750943  0.62500000  0.28512652
   0.90249057  0.62500000  0.28512652
   0.00000000  0.75000000  0.35065888
   0.00000000  0.75000000  0.43446764
   0.84750943  0.62500000  0.39256326
   0.15249057  0.62500000  0.39256326
   0.75000000  0.75000000  0.45809562
   0.75000000  0.75000000  0.54190438
   0.09750943  0.62500000  0.50000000
   0.90249057  0.62500000  0.50000000
   0.00048770  0.75008577  0.56639902
   0.00013388  0.74992927  0.65066222
   0.84956860  0.62523446  0.60804099
   0.15025449  0.62514030  0.60808933
   0.75237228  0.75054454  0.67306784
   0.74946131  0.74941637  0.75738193
   0.09406968  0.62494956  0.72098677
   0.90665091  0.62459967  0.72138633
   0.75000000  0.00000000  0.24322214
   0.75000000  0.00000000  0.32703090
   0.09750943  0.87500000  0.28512652
   0.90249057  0.87500000  0.28512652
   0.00000000  0.00000000  0.35065888
   0.00000000  0.00000000  0.43446764
   0.84750943  0.87500000  0.39256326
   0.15249057  0.87500000  0.39256326
   0.75000000  0.00000000  0.45809562
   0.75000000  0.00000000  0.54190438
   0.09750943  0.87500000  0.50000000
   0.90249057  0.87500000  0.50000000
   0.00050661  0.99999432  0.56639382
   0.00023587  0.00003730  0.65061968
   0.84937057  0.87524720  0.60822539
   0.15027959  0.87494194  0.60817093
   0.75089564  0.00005723  0.67324139
   0.75013371  0.99983981  0.75751763
   0.09398584  0.87478121  0.72071121
   0.90666660  0.87494429  0.72102509
   0.75000000  0.25000000  0.24322214
   0.75000000  0.25000000  0.32703090
   0.09750943  0.12500000  0.28512652
   0.90249057  0.12500000  0.28512652
   0.00000000  0.25000000  0.35065888
   0.00000000  0.25000000  0.43446764
   0.84750943  0.12500000  0.39256326
   0.15249057  0.12500000  0.39256326
   0.75000000  0.25000000  0.45809562
   0.75000000  0.25000000  0.54190438
   0.09750943  0.12500000  0.50000000
   0.90249057  0.12500000  0.50000000
   0.00050402  0.24995655  0.56640238
   0.00019371  0.25004231  0.65065672
   0.84935135  0.12480688  0.60823185
   0.15029323  0.12490220  0.60807145
   0.75228630  0.24978445  0.67307250
   0.74954483  0.25033135  0.75733272
   0.09389496  0.12517375  0.72079692
   0.90661773  0.12501096  0.72096534
   0.75000000  0.50000000  0.24322214
   0.75000000  0.50000000  0.32703090
   0.09750943  0.37500000  0.28512652
   0.90249057  0.37500000  0.28512652
   0.00000000  0.50000000  0.35065888
   0.00000000  0.50000000  0.43446764
   0.84750943  0.37500000  0.39256326
   0.15249057  0.37500000  0.39256326
   0.75000000  0.50000000  0.45809562
   0.75000000  0.50000000  0.54190438
   0.09750943  0.37500000  0.50000000
   0.90249057  0.37500000  0.50000000
   0.00051750  0.50002484  0.56639866
   0.00021037  0.50005574  0.65063023
   0.84959373  0.37483189  0.60805639
   0.15024987  0.37497548  0.60809934
   0.75368608  0.50017214  0.67302534
   0.74367871  0.49995890  0.75745695
   0.09398958  0.37512133  0.72093063
   0.90659599  0.37539910  0.72137547
   0.25000000  0.75000000  0.24322214
   0.25000000  0.75000000  0.32703090
   0.59750943  0.62500000  0.28512652
   0.40249057  0.62500000  0.28512652
   0.50000000  0.75000000  0.35065888
   0.50000000  0.75000000  0.43446764
   0.34750943  0.62500000  0.39256326
   0.65249057  0.62500000  0.39256326
   0.25000000  0.75000000  0.45809562
   0.25000000  0.75000000  0.54190438
   0.59750943  0.62500000  0.50000000
   0.40249057  0.62500000  0.50000000
   0.50061293  0.74903980  0.56627080
   0.49927905  0.75094561  0.64984169
   0.34889987  0.62489215  0.60838858
   0.65092604  0.62501233  0.60847087
   0.25080335  0.74978435  0.67318274
   0.25061646  0.74993167  0.75753099
   0.59574977  0.62820878  0.71793607
   0.40713116  0.62608194  0.72088856
   0.25000000  0.00000000  0.24322214
   0.25000000  0.00000000  0.32703090
   0.59750943  0.87500000  0.28512652
   0.40249057  0.87500000  0.28512652
   0.50000000  0.00000000  0.35065888
   0.50000000  0.00000000  0.43446764
   0.34750943  0.87500000  0.39256326
   0.65249057  0.87500000  0.39256326
   0.25000000  0.00000000  0.45809562
   0.25000000  0.00000000  0.54190438
   0.59750943  0.87500000  0.50000000
   0.40249057  0.87500000  0.50000000
   0.50030997  0.99995995  0.56598358
   0.50012607  0.99986540  0.64999999
   0.34898598  0.87498065  0.60809633
   0.65070153  0.87490760  0.60797325
   0.25060861  0.99989378  0.67312129
   0.25002902  0.00003599  0.75744680
   0.59412898  0.87505226  0.72034423
   0.40651575  0.87553088  0.72056762
   0.25000000  0.25000000  0.24322214
   0.25000000  0.25000000  0.32703090
   0.59750943  0.12500000  0.28512652
   0.40249057  0.12500000  0.28512652
   0.50000000  0.25000000  0.35065888
   0.50000000  0.25000000  0.43446764
   0.34750943  0.12500000  0.39256326
   0.65249057  0.12500000  0.39256326
   0.25000000  0.25000000  0.45809562
   0.25000000  0.25000000  0.54190438
   0.59750943  0.12500000  0.50000000
   0.40249057  0.12500000  0.50000000
   0.50061904  0.25098440  0.56632861
   0.49982531  0.24869371  0.64992518
   0.34903987  0.12496783  0.60815656
   0.65074707  0.12502249  0.60797953
   0.24998215  0.24970944  0.67310130
   0.25066850  0.25019584  0.75742015
   0.59413335  0.12457870  0.72033253
   0.40640248  0.12444266  0.72042164
   0.25000000  0.50000000  0.24322214
   0.25000000  0.50000000  0.32703090
   0.59750943  0.37500000  0.28512652
   0.40249057  0.37500000  0.28512652
   0.50000000  0.50000000  0.35065888
   0.50000000  0.50000000  0.43446764
   0.34750943  0.37500000  0.39256326
   0.65249057  0.37500000  0.39256326
   0.25000000  0.50000000  0.45809562
   0.25000000  0.50000000  0.54190438
   0.59750943  0.37500000  0.50000000
   0.40249057  0.37500000  0.50000000
   0.50068429  0.49985341  0.56660193
   0.50030905  0.50029343  0.65121823
   0.34893878  0.37506431  0.60854352
   0.65092900  0.37511421  0.60849760
   0.24983882  0.50032554  0.67317639
   0.25229198  0.50004207  0.75744602
   0.59558995  0.37217090  0.71781629
   0.40620867  0.37361039  0.71923625
 
 position of ions in cartesian coordinates  (Angst):
   6.38418598  6.47465618 24.84323893
   7.84702828  6.00116631 24.47725391
   6.89667919  5.87733797 24.27006947
   9.93876056  7.48839788  8.79216387
   0.00000000  8.98607746  8.79216387
   0.00000000  7.48839788 12.10508406
   9.93876056  8.98607746 12.10508406
   9.93876056  7.48839788 15.41800424
   0.00000000  8.98607746 15.41800424
   0.12444237  7.48942409 18.66261475
  10.03860891  8.98788801 18.86501546
   9.94756569  7.49229249 22.25128684
   0.00218317  8.99126666 21.89633271
   9.93876056 10.48375704  8.79216387
   0.00000000  0.00000000  8.79216387
   0.00000000 10.48375704 12.10508406
   9.93876056  0.00000000 12.10508406
   9.93876056 10.48375704 15.41800424
   0.00000000  0.00000000 15.41800424
   0.12598881 10.48451939 18.66309309
  10.03392379  0.00033326 18.87090668
   9.93309110 10.48223318 22.26993966
   0.00137310 11.98113673 21.89522366
   9.93876056  1.49767958  8.79216387
   0.00000000  2.99535915  8.79216387
   0.00000000  1.49767958 12.10508406
   9.93876056  2.99535915 12.10508406
   9.93876056  1.49767958 15.41800424
   0.00000000  2.99535915 15.41800424
   0.12786632  1.49707873 18.66344438
  10.03916690  2.99349157 18.86546630
   9.93116621  1.49115717 22.26992551
   0.00226490  2.98978787 21.89589638
   9.93876056  4.49303873  8.79216387
   0.00000000  5.99071831  8.79216387
   0.00000000  4.49303873 12.10508406
   9.93876056  5.99071831 12.10508406
   9.93876056  4.49303873 15.41800424
   0.00000000  5.99071831 15.41800424
   0.12379773  4.49284662 18.66161708
  10.04179879  5.99150230 18.86876985
   9.95251247  4.48207459 22.25367551
   0.00435836  5.99169777 21.89503927
   3.31292019  7.48839788  8.79216387
   6.62584038  8.98607746  8.79216387
   6.62584038  7.48839788 12.10508406
   3.31292019  8.98607746 12.10508406
   3.31292019  7.48839788 15.41800424
   6.62584038  8.98607746 15.41800424
   6.75410782  7.46591676 18.69389250
   3.41209103  8.98460109 18.86930046
   3.31035198  7.49283591 22.26701773
   6.63895274  8.98656346 21.86524414
   3.31292019 10.48375704  8.79216387
   6.62584038  0.00000000  8.79216387
   6.62584038 10.48375704 12.10508406
   3.31292019  0.00000000 12.10508406
   3.31292019 10.48375704 15.41800424
   6.62584038  0.00000000 15.41800424
   6.75235082 10.47381060 18.63786292
   3.41200332 11.98102871 18.87096933
   3.32523874 10.48572916 22.27093991
   6.61769331 11.98093964 21.87023541
   3.31292019  1.49767958  8.79216387
   6.62584038  2.99535915  8.79216387
   6.62584038  1.49767958 12.10508406
   3.31292019  2.99535915 12.10508406
   3.31292019  1.49767958 15.41800424
   6.62584038  2.99535915 15.41800424
   6.75202014  1.50723709 18.63926913
   3.41162191  2.99656270 18.87073943
   3.32257634  1.49835993 22.26959596
   6.63528285  2.99304313 21.87034386
   3.31292019  4.49303873  8.79216387
   6.62584038  5.99071831  8.79216387
   6.62584038  4.49303873 12.10508406
   3.31292019  5.99071831 12.10508406
   3.31292019  4.49303873 15.41800424
   6.62584038  5.99071831 15.41800424
   6.75520048  4.51321484 18.69772100
   3.40755557  5.99042273 18.87431090
   3.30973922  4.49222489 22.26781410
   6.62393127  5.98173495 21.99150232
   9.93876056  8.98607746  7.50000000
   9.93876056  8.98607746 10.08432774
   1.29216387  7.48839788  8.79216387
  11.95951688  7.48839788  8.79216387
   0.00000000  8.98607746 10.81292019
   0.00000000  8.98607746 13.39724792
  11.23092443  7.48839788 12.10508406
   2.02075632  7.48839788 12.10508406
   9.93876056  8.98607746 14.12584038
   9.93876056  8.98607746 16.71016811
   1.29216387  7.48839788 15.41800424
  11.95951688  7.48839788 15.41800424
   0.00646281  8.98710511 17.46548513
   0.00177419  8.98522996 20.06382581
  11.25821191  7.49120711 18.74955700
   1.99112448  7.49007893 18.75104784
   9.97019725  8.99260188 20.75472578
   9.93162208  8.97908471 23.35463556
   1.24658140  7.48779355 22.23235431
  12.01464840  7.48360139 22.24467514
   9.93876056  0.00000000  7.50000000
   9.93876056  0.00000000 10.08432774
   1.29216387 10.48375704  8.79216387
  11.95951688 10.48375704  8.79216387
   0.00000000  0.00000000 10.81292019
   0.00000000  0.00000000 13.39724792
  11.23092443 10.48375704 12.10508406
   2.02075632 10.48375704 12.10508406
   9.93876056  0.00000000 14.12584038
   9.93876056  0.00000000 16.71016811
   1.29216387 10.48375704 15.41800424
  11.95951688 10.48375704 15.41800424
   0.00671338 11.98136858 17.46532466
   0.00312564  0.00044697 20.06251400
  11.25558758 10.48671890 18.75524327
   1.99145709 10.48306137 18.75356407
   9.95062932  0.00068572 20.76007711
   9.94053242 11.97951726 23.35882000
   1.24547041 10.48113559 22.22385701
  12.01485638 10.48308953 22.23353578
   9.93876056  2.99535915  7.50000000
   9.93876056  2.99535915 10.08432774
   1.29216387  1.49767958  8.79216387
  11.95951688  1.49767958  8.79216387
   0.00000000  2.99535915 10.81292019
   0.00000000  2.99535915 13.39724792
  11.23092443  1.49767958 12.10508406
   2.02075632  1.49767958 12.10508406
   9.93876056  2.99535915 14.12584038
   9.93876056  2.99535915 16.71016811
   1.29216387  1.49767958 15.41800424
  11.95951688  1.49767958 15.41800424
   0.00667912  2.99483850 17.46558867
   0.00256697  2.99586608 20.06365601
  11.25533294  1.49536577 18.75544254
   1.99163795  1.49650781 18.75049637
   9.96905794  2.99277661 20.75486936
   9.93272885  2.99932919 23.35311810
   1.24426601  1.49976136 22.22650007
  12.01420877  1.49781085 22.23169329
   9.93876056  5.99071831  7.50000000
   9.93876056  5.99071831 10.08432774
   1.29216387  4.49303873  8.79216387
  11.95951688  4.49303873  8.79216387
   0.00000000  5.99071831 10.81292019
   0.00000000  5.99071831 13.39724792
  11.23092443  4.49303873 12.10508406
   2.02075632  4.49303873 12.10508406
   9.93876056  5.99071831 14.12584038
   9.93876056  5.99071831 16.71016811
   1.29216387  4.49303873 15.41800424
  11.95951688  4.49303873 15.41800424
   0.00685780  5.99101592 17.46547378
   0.00278778  5.99138613 20.06283925
[...]
      9.93117      1.49116     22.26993        -0.002186     -0.002627     -0.008722
      0.00226      2.98979     21.89590         0.002950     -0.004380     -0.255596
      9.93876      4.49304      8.79216        -0.001735     -0.000212     -3.250580
      0.00000      5.99072      8.79216         0.000499     -0.000068      3.045426
      0.00000      4.49304     12.10508         0.001736     -0.000133      0.484917
      9.93876      5.99072     12.10508        -0.004686      0.000120     -0.675887
      9.93876      4.49304     15.41800        -0.015646      0.009852      0.643100
      0.00000      5.99072     15.41800        -0.013295      0.000231     -0.694864
      0.12380      4.49285     18.66162         0.042169      0.000099     -0.023406
     10.04180      5.99150     18.86877         0.024102     -0.003791      0.048723
      9.95251      4.48207     22.25368        -0.022656     -0.018134     -0.008296
      0.00436      5.99170     21.89504         0.000818     -0.002629     -0.256198
      3.31292      7.48840      8.79216         0.001827     -0.000027     -3.249714
      6.62584      8.98608      8.79216        -0.000398      0.000318      3.050276
      6.62584      7.48840     12.10508        -0.002089      0.007418      0.501164
      3.31292      8.98608     12.10508         0.005931      0.000368     -0.670432
      3.31292      7.48840     15.41800         0.039790     -0.015165      0.663694
      6.62584      8.98608     15.41800        -0.023628     -0.030719     -0.592653
      6.75411      7.46592     18.69389         0.037966     -0.014877     -0.016867
      3.41209      8.98460     18.86930         0.025490     -0.002901      0.048654
      3.31035      7.49284     22.26702         0.001708     -0.003153     -0.007544
      6.63895      8.98656     21.86524         0.014502     -0.023452     -0.248403
      3.31292     10.48376      8.79216         0.001901      0.000262     -3.249976
      6.62584      0.00000      8.79216        -0.000419      0.000042      3.050341
      6.62584     10.48376     12.10508        -0.002247      0.001144      0.503906
      3.31292      0.00000     12.10508         0.006309      0.000000     -0.670883
      3.31292     10.48376     15.41800         0.036553      0.005173      0.656331
      6.62584      0.00000     15.41800        -0.028306     -0.001683     -0.719272
      6.75235     10.47381     18.63786         0.033363     -0.010473     -0.020941
      3.41200     11.98103     18.87097         0.023385     -0.001460      0.049533
      3.32524     10.48573     22.27094         0.004348      0.004220     -0.005104
      6.61769     11.98094     21.87024        -0.004345      0.003695     -0.250409
      3.31292      1.49768      8.79216         0.001883     -0.000050     -3.249984
      6.62584      2.99536      8.79216        -0.000400     -0.000338      3.049920
      6.62584      1.49768     12.10508        -0.002303     -0.002442      0.503063
      3.31292      2.99536     12.10508         0.005786     -0.000349     -0.669783
      3.31292      1.49768     15.41800         0.035413      0.000051      0.660315
      6.62584      2.99536     15.41800        -0.023918      0.033789     -0.591168
      6.75202      1.50724     18.63927         0.038246      0.011858     -0.017368
      3.41162      2.99656     18.87074         0.022163      0.001777      0.053175
      3.32258      1.49836     22.26960         0.004745      0.002964     -0.005669
      6.63528      2.99304     21.87034         0.008546      0.017269     -0.251217
      3.31292      4.49304      8.79216         0.001806     -0.000206     -3.249779
      6.62584      5.99072      8.79216        -0.000391     -0.000055      3.049889
      6.62584      4.49304     12.10508        -0.002153     -0.006134      0.500528
      3.31292      5.99072     12.10508         0.005442      0.000013     -0.669069
      3.31292      4.49304     15.41800         0.039812      0.009905      0.667039
      6.62584      5.99072     15.41800        -0.020976     -0.001984     -0.625404
      6.75520      4.51321     18.69772         0.034909      0.015815     -0.021517
      3.40756      5.99042     18.87431         0.028542      0.001229      0.050667
      3.30974      4.49222     22.26781         0.006283     -0.002419     -0.009474
      6.62393      5.98173     21.99150         0.006833     -0.014816     -0.055494
      9.93876      8.98608      7.50000         0.000395     -0.000155      2.416085
      9.93876      8.98608     10.08433         0.000627     -0.000132      1.512764
      1.29216      7.48840      8.79216        -1.763910     -0.000016     -0.714091
     11.95952      7.48840      8.79216         1.763251     -0.000019     -0.714020
      0.00000      8.98608     10.81292        -0.000241     -0.000028     -1.125942
      0.00000      8.98608     13.39725         0.000720      0.000081     -0.193713
     11.23092      7.48840     12.10508         0.313706     -0.000056      0.050724
      2.02076      7.48840     12.10508        -0.316319      0.000095      0.049994
      9.93876      8.98608     14.12584        -0.001618     -0.000761     -0.010924
      9.93876      8.98608     16.71017         0.021636      0.000408     -0.179098
      1.29216      7.48840     15.41800        -0.562429      0.001356      0.098140
     11.95952      7.48840     15.41800         0.557163      0.000693      0.105931
      0.00646      8.98711     17.46549         0.026071      0.002055      0.129475
      0.00177      8.98523     20.06383         0.019654      0.001414     -0.003883
     11.25821      7.49121     18.74956        -0.137359      0.000604      0.019777
      1.99112      7.49008     18.75105         0.009318      0.001126      0.005607
      9.97020      8.99260     20.75473         0.004183     -0.006224     -0.012686
      9.93162      8.97908     23.35464         0.004645     -0.000604     -0.514945
      1.24658      7.48779     22.23235        -0.100732      0.000003     -0.120528
     12.01465      7.48360     22.24468         0.098736     -0.000847     -0.130486
      9.93876      0.00000      7.50000         0.000415     -0.000039      2.416350
      9.93876      0.00000     10.08433         0.000685     -0.000011      1.512627
      1.29216     10.48376      8.79216        -1.763947     -0.000066     -0.713989
     11.95952     10.48376      8.79216         1.763281     -0.000056     -0.713975
      0.00000      0.00000     10.81292        -0.000250     -0.000017     -1.125974
      0.00000      0.00000     13.39725         0.000766     -0.000026     -0.193979
     11.23092     10.48376     12.10508         0.313718     -0.000095      0.050718
      2.02076     10.48376     12.10508        -0.316254     -0.000062      0.050093
      9.93876      0.00000     14.12584        -0.001681      0.000277     -0.011416
      9.93876      0.00000     16.71017         0.017144     -0.000025     -0.196614
      1.29216     10.48376     15.41800        -0.559492     -0.000266      0.097248
     11.95952     10.48376     15.41800         0.556846     -0.000672      0.104470
      0.00671     11.98137     17.46532         0.027101     -0.001452      0.130967
      0.00313      0.00045     20.06251         0.020653     -0.001739     -0.006728
     11.25559     10.48672     18.75524        -0.138143      0.001463      0.018302
      1.99146     10.48306     18.75356         0.008521      0.000776      0.003848
      9.95063      0.00069     20.76008         0.010538      0.001115     -0.016382
      9.94053     11.97952     23.35882         0.000853     -0.000636     -0.511444
      1.24547     10.48114     22.22386        -0.107423     -0.002352     -0.119278
     12.01486     10.48309     22.23354         0.107156     -0.001758     -0.124277
      9.93876      2.99536      7.50000         0.000419      0.000166      2.416250
      9.93876      2.99536     10.08433         0.000604      0.000140      1.512844
      1.29216      1.49768      8.79216        -1.763961      0.000022     -0.713982
     11.95952      1.49768      8.79216         1.763319      0.000032     -0.713938
      0.00000      2.99536     10.81292        -0.000245      0.000047     -1.125881
      0.00000      2.99536     13.39725         0.000698      0.000017     -0.193560
     11.23092      1.49768     12.10508         0.313720      0.000139      0.050723
      2.02076      1.49768     12.10508        -0.316284     -0.000023      0.050063
      9.93876      2.99536     14.12584        -0.001609      0.000579     -0.010978
      9.93876      2.99536     16.71017         0.020344      0.002796     -0.177210
      1.29216      1.49768     15.41800        -0.560599      0.000091      0.097351
     11.95952      1.49768     15.41800         0.557060      0.000983      0.105099
      0.00668      2.99484     17.46559         0.025944     -0.002276      0.128589
      0.00257      2.99587     20.06366         0.020021     -0.001527     -0.003634
     11.25533      1.49537     18.75544        -0.139272     -0.001751      0.020333
      1.99164      1.49651     18.75050         0.008249     -0.001823      0.008461
      9.96906      2.99278     20.75487         0.003222      0.006881     -0.011334
      9.93273      2.99933     23.35312         0.005230      0.003611     -0.513826
      1.24427      1.49976     22.22650        -0.107593      0.000803     -0.121921
     12.01421      1.49781     22.23169         0.108479      0.000202     -0.123642
      9.93876      5.99072      7.50000         0.000391      0.000043      2.415983
      9.93876      5.99072     10.08433         0.000595      0.000022      1.512731
      1.29216      4.49304      8.79216        -1.763971      0.000060     -0.714056
     11.95952      4.49304      8.79216         1.763274      0.000065     -0.713998
      0.00000      5.99072     10.81292        -0.000251      0.000002     -1.125865
      0.00000      5.99072     13.39725         0.000671      0.000056     -0.193383
     11.23092      4.49304     12.10508         0.313689      0.000032      0.050742
      2.02076      4.49304     12.10508        -0.316366     -0.000007      0.049965
      9.93876      5.99072     14.12584        -0.000330      0.000198     -0.011886
      9.93876      5.99072     16.71017         0.018528      0.000795     -0.185806
      1.29216      4.49304     15.41800        -0.563425     -0.000561      0.097898
     11.95952      4.49304     15.41800         0.557288     -0.000371      0.106169
      0.00686      5.99102     17.46547         0.026127      0.000430      0.126976
      0.00279      5.99139     20.06284         0.019086     -0.000104     -0.002472
     11.25854      4.49102     18.75003        -0.139569      0.000340      0.019443
      1.99106      4.49274     18.75136         0.012696     -0.000536      0.003288
      9.98761      5.99278     20.75341         0.002295      0.002475     -0.015432
      9.85499      5.99023     23.35695        -0.010686      0.001674     -0.467967
      1.24552      4.49449     22.23062        -0.101299      0.000798     -0.119010
     12.01392      4.49782     22.24434         0.095558      0.000368     -0.127556
      3.31292      8.98608      7.50000        -0.000431     -0.000094      2.415800
      3.31292      8.98608     10.08433        -0.000998     -0.000086      1.511330
      7.91800      7.48840      8.79216        -1.761678     -0.000176     -0.714763
      5.33368      7.48840      8.79216         1.762206     -0.000177     -0.714764
      6.62584      8.98608     10.81292         0.000222     -0.001273     -1.135551
      6.62584      8.98608     13.39725         0.002093     -0.002407     -0.230433
      4.60508      7.48840     12.10508         0.307586     -0.000234      0.048987
      8.64660      7.48840     12.10508        -0.306012     -0.000399      0.049800
      3.31292      8.98608     14.12584        -0.009148      0.001468     -0.018900
      3.31292      8.98608     16.71017         0.004656     -0.001449     -0.180872
      7.91800      7.48840     15.41800        -0.526644     -0.019887      0.081073
      5.33368      7.48840     15.41800         0.541520     -0.019862      0.090968
      6.63396      8.97457     17.46153         0.026996      0.015423      0.122471
      6.61629      8.99741     20.03852         0.026382     -0.005315     -0.000821
      4.62351      7.48711     18.76028        -0.145008      0.003569      0.017748
      8.62586      7.48855     18.76281         0.019234     -0.000138      0.004689
      3.32357      8.98349     20.75827         0.011416     -0.001943     -0.011665
      3.32109      8.98526     23.35923        -0.002103      0.001963     -0.509671
      7.89469      7.52684     22.13828        -0.100606      0.010406     -0.061901
      5.39517      7.50136     22.22933         0.110596     -0.006427     -0.096593
      3.31292      0.00000      7.50000        -0.000446     -0.000072      2.416046
      3.31292      0.00000     10.08433        -0.001047     -0.000049      1.511291
      7.91800     10.48376      8.79216        -1.761625     -0.000161     -0.714591
      5.33368     10.48376      8.79216         1.762166     -0.000164     -0.714650
      6.62584      0.00000     10.81292         0.000271      0.000192     -1.136045
      6.62584      0.00000     13.39725         0.001718      0.000225     -0.233593
      4.60508     10.48376     12.10508         0.306332     -0.000061      0.048849
      8.64660     10.48376     12.10508        -0.304900     -0.000070      0.049701
      3.31292      0.00000     14.12584        -0.009024     -0.000749     -0.018359
      3.31292      0.00000     16.71017         0.001663     -0.002087     -0.195700
      7.91800     10.48376     15.41800        -0.523439     -0.000079      0.090150
      5.33368     10.48376     15.41800         0.534324     -0.003208      0.092859
      6.62995     11.98096     17.45267         0.028687      0.001441      0.119994
      6.62751     11.97982     20.04341         0.020850      0.001871      0.003973
      4.62465     10.48353     18.75126        -0.140377      0.002153      0.019726
      8.62289     10.48265     18.74747         0.019002      0.000876      0.004818
      3.32099     11.98016     20.75637         0.012471     -0.001444     -0.014341
      3.31330      0.00043     23.35664         0.003194     -0.004164     -0.508747
      7.87321     10.48438     22.21254        -0.094427     -0.005657     -0.117936
      5.38702     10.49012     22.21943         0.096337      0.008099     -0.122374
      3.31292      2.99536      7.50000        -0.000443      0.000121      2.415934
      3.31292      2.99536     10.08433        -0.000984      0.000079      1.511211
      7.91800      1.49768      8.79216        -1.761657      0.000166     -0.714560
      5.33368      1.49768      8.79216         1.762176      0.000162     -0.714597
      6.62584      2.99536     10.81292         0.000239      0.001241     -1.135094
      6.62584      2.99536     13.39725         0.002087      0.002320     -0.226349
      4.60508      1.49768     12.10508         0.306561      0.000041      0.048871
      8.64660      1.49768     12.10508        -0.305094      0.000163      0.049761
      3.31292      2.99536     14.12584        -0.009173     -0.001726     -0.020513
      3.31292      2.99536     16.71017         0.005497      0.001887     -0.184903
      7.91800      1.49768     15.41800        -0.525309      0.002059      0.092277
      5.33368      1.49768     15.41800         0.536809      0.005018      0.094833
      6.63404      3.00715     17.46331         0.026227     -0.014247      0.122801
      6.62353      2.97971     20.04110         0.021734      0.005080     -0.004326
      4.62536      1.49729     18.75312        -0.141200     -0.001312      0.018062
      8.62349      1.49795     18.74766         0.017769      0.000341      0.000739
      3.31268      2.99188     20.75576         0.015308      0.000170     -0.017580
      3.32178      2.99771     23.35581        -0.002862     -0.001755     -0.512630
      7.87327      1.49263     22.21218        -0.095104      0.001551     -0.119447
      5.38552      1.49100     22.21493         0.099886     -0.009895     -0.120463
      3.31292      5.99072      7.50000        -0.000418      0.000076      2.415681
      3.31292      5.99072     10.08433        -0.000962      0.000058      1.511040
      7.91800      4.49304      8.79216        -1.761696      0.000189     -0.714733
      5.33368      4.49304      8.79216         1.762254      0.000202     -0.714686
      6.62584      5.99072     10.81292         0.000237     -0.000172     -1.133942
      6.62584      5.99072     13.39725         0.001885     -0.000436     -0.202263
      4.60508      4.49304     12.10508         0.307820      0.000256      0.049001
      8.64660      4.49304     12.10508        -0.306191      0.000324      0.049841
      3.31292      5.99072     14.12584        -0.009972      0.000835     -0.021990
      3.31292      5.99072     16.71017         0.005203     -0.000703     -0.190868
      7.91800      4.49304     15.41800        -0.527164      0.016400      0.079829
      5.33368      4.49304     15.41800         0.542749      0.016436      0.090049
      6.63491      5.98896     17.47174         0.027311      0.000175      0.134374
      6.62994      5.99423     20.08097         0.019682     -0.000744     -0.065487
      4.62403      4.49381     18.76505        -0.144715     -0.004888      0.017813
      8.62590      4.49441     18.76364         0.015242     -0.000647      0.007834
      3.31078      5.99462     20.75807         0.010695      0.000532     -0.019950
      3.34329      5.99122     23.35661        -0.010825      0.002330     -0.507072
      7.89257      4.45914     22.13459        -0.111363      0.001730     -0.054639
      5.38295      4.47639     22.17838         0.114604      0.006909     -0.083049
 -----------------------------------------------------------------------------------
    total drift:                                0.002159     -0.000819      0.036226


--------------------------------------------------------------------------------------------------------



  FREE ENERGIE OF THE ION-ELECTRON SYSTEM (eV)
  ---------------------------------------------------
  free  energy   TOTEN  =     -1750.69021557 eV

  energy  without entropy=    -1750.69021557  energy(sigma->0) =    -1750.69021557
 


--------------------------------------------------------------------------------------------------------


    POTLOK:  cpu time      0.7301: real time      0.7328


--------------------------------------------------------------------------------------------------------


     LOOP+:  cpu time   1774.6266: real time   1783.0916
    4ORBIT:  cpu time      0.0000: real time      0.0000

 total amount of memory used by VASP MPI-rank0   750582. kBytes
=======================================================================

   base      :      30000. kBytes
   nonl-proj :     506356. kBytes
   fftplans  :      41525. kBytes
   grid      :      58856. kBytes
   one-center:       1897. kBytes
   wavefun   :     111948. kBytes
 
  
  
 General timing and accounting informations for this job:
 ========================================================
  
                  Total CPU time used (sec):     1820.227
                            User time (sec):     1814.862
                          System time (sec):        5.365
                         Elapsed time (sec):     1829.624
  
                   Maximum memory used (kb):     1351972.
                   Average memory used (kb):          N/A
  
                          Minor page faults:       171679
                          Major page faults:          117
                 Voluntary context switches:         3391
