 vasp.6.3.0 20Jan22 (build Dec 25 2023 18:06:01) complex                         
 executed on        HPECrayEX_GCC date 2024.01.24  07:08:07
 running  768 mpi-ranks, with    1 threads/rank
 distrk:  each k-point on  768 cores,    1 groups
 distr:  one band on NCORE=   8 cores,   96 groups


--------------------------------------------------------------------------------------------------------


 INCAR:
   SYSTEM = MgO-rocksalt
   ISMEAR = 0
   SIGMA = 0.05
   EDIFF = 1E-8
   ALGO = ALL
   ISTART = 0
   IBRION = 5
   POTIM = 0.01
   NFREE = 2
   ISYM = 0
   DIPOL = 0.5 0.5 0.5
   IDIPOL = 4
   LDIPOL = .TRUE.
   GGA = RE
   AGGAC = 0.0
   LUSE_VDW = .TRUE.
   LASPH = .TRUE.
   ENCUT = 600
   PREC = Accurate
   LASPH = .TRUE.
   LREAL = .FALSE.
   ISPIN = 1
   NELM = 200
   NELMIN = 8
   NCORE = 8
   KPAR = 1
   LWAVE = .FALSE.
   LCHARG = .FALSE.

 POTCAR:    PAW_PBE C 08Apr2002                   
 POTCAR:    PAW_PBE H 15Jun2001                   
 -----------------------------------------------------------------------------
|                                                                             |
|               ----> ADVICE to this user running VASP <----                  |
|                                                                             |
|     You have switched on vdW-DFT.                                           |
|     This routine was written and supplied by Jiri Klimes. We recommend      |
|     that you carefully read and cite the following publications:            |
|       J. Klimes, D.R. Bowler, A. Michelides                                 |
|          J. Phys.: Cond Matt. 22 022201 (2010)                              |
|       J. Klimes, D.R. Bowler, A. Michelides                                 |
|          Phys. Rev. B. 83, 195131 (2011)                                    |
|     and references therein.                                                 |
|                                                                             |
 -----------------------------------------------------------------------------

 POTCAR:    PAW_PBE C 08Apr2002                   
   SHA256 =  253f7b50bb8d59471dbedb8285d89021f4a42ed1a2c5d38a03a736e69125dd95 C/POTCAR              
   COPYR  = (c) Copyright 08Apr2002 Georg Kresse                                                    
   COPYR  = This file is part of the software VASP. Any use, copying, and all other rights are regul
   COPYR  = If you do not have a valid VASP license, you may not use, copy or distribute this file. 
   VRHFIN =C: s2p2                                                                                  
   LEXCH  = PE                                                                                      
   EATOM  =   147.1560 eV,   10.8157 Ry                                                             
                                                                                                    
   TITEL  = PAW_PBE C 08Apr2002                                                                     
   LULTRA =        F    use ultrasoft PP ?                                                          
   IUNSCR =        1    unscreen: 0-lin 1-nonlin 2-no                                               
   RPACOR =    1.200    partial core radius                                                         
   POMASS =   12.011; ZVAL   =    4.000    mass and valenz                                          
   RCORE  =    1.500    outmost cutoff radius                                                       
   RWIGS  =    1.630; RWIGS  =    0.863    wigner-seitz radius (au A)                               
   ENMAX  =  400.000; ENMIN  =  300.000 eV                                                          
   ICORE  =        2    local potential                                                             
   LCOR   =        T    correct aug charges                                                         
   LPAW   =        T    paw PP                                                                      
   EAUG   =  644.873                                                                                
   DEXC   =    0.000                                                                                
   RMAX   =    1.529    core radius for proj-oper                                                   
   RAUG   =    1.300    factor for augmentation sphere                                              
   RDEP   =    1.501    radius for radial grids                                                     
   RDEPT  =    1.300    core radius for aug-charge                                                  
                                                                                                    
   Atomic configuration                                                                             
    4 entries                                                                                       
     n  l   j            E        occ.                                                              
     1  0  0.50      -273.3789   2.0000                                                             
     2  0  0.50       -13.7508   2.0000                                                             
     2  1  0.50        -5.2854   2.0000                                                             
     3  2  1.50        -5.4423   0.0000                                                             
   Description                                                                                      
     l       E           TYP  RCUT    TYP  RCUT                                                     
     0    -13.7508458     23  1.200                                                                 
     0     -8.2022199     23  1.200                                                                 
     1     -5.2854383     23  1.500                                                                 
     1     34.0145650     23  1.500                                                                 
     2     -5.4423304      7  1.500                                                                 
  local pseudopotential read in
  partial core-charges read in
  partial kinetic energy density read in
  atomic valenz-charges read in
  non local Contribution for L=           0  read in
    real space projection operators read in
  non local Contribution for L=           0  read in
    real space projection operators read in
  non local Contribution for L=           1  read in
    real space projection operators read in
  non local Contribution for L=           1  read in
    real space projection operators read in
    PAW grid and wavefunctions read in

   number of l-projection  operators is LMAX  =           4
   number of lm-projection operators is LMMAX =           8

 POTCAR:    PAW_PBE H 15Jun2001                   
   SHA256 =  030f79b5d3ab3cf0e668861823c8fb652ff669f3e15e46930bd03bfd63a607b6 H/POTCAR              
   COPYR  = (c) Copyright 15Jun2001 Georg Kresse                                                    
   COPYR  = This file is part of the software VASP. Any use, copying, and all other rights are regul
   COPYR  = If you do not have a valid VASP license, you may not use, copy or distribute this file. 
   VRHFIN =H: ultrasoft test                                                                        
   LEXCH  = PE                                                                                      
   EATOM  =    12.4884 eV,    0.9179 Ry                                                             
                                                                                                    
   TITEL  = PAW_PBE H 15Jun2001                                                                     
   LULTRA =        F    use ultrasoft PP ?                                                          
   IUNSCR =        0    unscreen: 0-lin 1-nonlin 2-no                                               
   RPACOR =    0.000    partial core radius                                                         
   POMASS =    1.000; ZVAL   =    1.000    mass and valenz                                          
   RCORE  =    1.100    outmost cutoff radius                                                       
   RWIGS  =    0.700; RWIGS  =    0.370    wigner-seitz radius (au A)                               
   ENMAX  =  250.000; ENMIN  =  200.000 eV                                                          
   RCLOC  =    0.701    cutoff for local pot                                                        
   LCOR   =        T    correct aug charges                                                         
   LPAW   =        T    paw PP                                                                      
   EAUG   =  400.000                                                                                
   RMAX   =    1.123    core radius for proj-oper                                                   
   RAUG   =    1.200    factor for augmentation sphere                                              
   RDEP   =    1.112    radius for radial grids                                                     
   RDEPT  =    0.926    core radius for aug-charge                                                  
                                                                                                    
   Atomic configuration                                                                             
    2 entries                                                                                       
     n  l   j            E        occ.                                                              
     1  0  0.50        -6.4927   1.0000                                                             
     2  1  0.50        -3.4015   0.0000                                                             
   Description                                                                                      
     l       E           TYP  RCUT    TYP  RCUT                                                     
     0     -6.4927494     23  1.100                                                                 
     0      6.8029130     23  1.100                                                                 
     1     -4.0817478     23  1.100                                                                 
  local pseudopotential read in
  atomic valenz-charges read in
  non local Contribution for L=           0  read in
    real space projection operators read in
  non local Contribution for L=           0  read in
    real space projection operators read in
  non local Contribution for L=           1  read in
    real space projection operators read in
    PAW grid and wavefunctions read in

   number of l-projection  operators is LMAX  =           3
   number of lm-projection operators is LMMAX =           5

 -----------------------------------------------------------------------------
|                                                                             |
|               ----> ADVICE to this user running VASP <----                  |
|                                                                             |
|     You enforced a specific xc type in the INCAR file but a different       |
|     type was found in the POTCAR file.                                      |
|     I HOPE YOU KNOW WHAT YOU ARE DOING!                                     |
|                                                                             |
 -----------------------------------------------------------------------------

  PAW_PBE C 08Apr2002                   :
 energy of atom  1       EATOM= -147.1560
 kinetic energy error for atom=    0.0057 (will be added to EATOM!!)
  PAW_PBE H 15Jun2001                   :
 energy of atom  2       EATOM=  -12.4884
 kinetic energy error for atom=    0.0004 (will be added to EATOM!!)


 POSCAR:  C  H
  positions in direct lattice
  No initial velocities read in
 exchange correlation table for  LEXCH =       40
   RHO(1)=    0.500       N(1)  =     2000
   RHO(2)=  100.500       N(2)  =     4000



--------------------------------------------------------------------------------------------------------


 ion  position               nearest neighbor table
   1  0.500  0.500  0.500-   3 1.09   2 1.09   4 1.09   5 1.09
   2  0.497  0.553  0.539-   1 1.09
   3  0.503  0.447  0.539-   1 1.09
   4  0.553  0.503  0.461-   1 1.09
   5  0.447  0.497  0.461-   1 1.09


IMPORTANT INFORMATION: All symmetrisations will be switched off!
NOSYMM: (Re-)initialisation of all symmetry stuff for point group C_1.


----------------------------------------------------------------------------------------

                                     Primitive cell                                     

  volume of cell :    4588.4116

  direct lattice vectors                    reciprocal lattice vectors
    16.834044005  0.000000000  0.000000000     0.059403433  0.000000000  0.000000000
     0.000000000 16.792642541  0.000000000     0.000000000  0.059549889  0.000000000
     0.000000000  0.000000000 16.231358402     0.000000000  0.000000000  0.061609138

  length of vectors
    16.834044005 16.792642541 16.231358402     0.059403433  0.059549889  0.061609138

  position of ions in fractional coordinates (direct lattice)
     0.500004882  0.499998457  0.499833466
     0.497025134  0.553105017  0.538741043
     0.502993143  0.446897010  0.538747141
     0.552971779  0.502987687  0.460912312
     0.447029384  0.497004793  0.460925236

  ion indices of the primitive-cell ions
   primitive index   ion index
                 1           1
                 2           2
                 3           3
                 4           4
                 5           5

----------------------------------------------------------------------------------------



 KPOINTS: pymatgen v2020.8.13 with grid density = 

Automatic generation of k-mesh.
 Grid dimensions read from file:
 generate k-points for:    2    2    1

 Generating k-lattice:

  Cartesian coordinates                     Fractional coordinates (reciprocal lattice)
     0.029701716  0.000000000  0.000000000     0.500000000  0.000000000  0.000000000
     0.000000000  0.029774945  0.000000000     0.000000000  0.500000000  0.000000000
     0.000000000  0.000000000  0.061609138     0.000000000  0.000000000  1.000000000

  Length of vectors
     0.029701716  0.029774945  0.061609138

  Shift w.r.t. Gamma in fractional coordinates (k-lattice)
     0.000000000  0.000000000  0.000000000

 
 Subroutine IBZKPT returns following result:
 ===========================================
 
 Found      4 irreducible k-points:
 
 Following reciprocal coordinates:
            Coordinates               Weight
  0.000000  0.000000  0.000000      1.000000
  0.500000  0.000000  0.000000      1.000000
  0.000000  0.500000  0.000000      1.000000
  0.500000  0.500000  0.000000      1.000000
 
 Following cartesian coordinates:
            Coordinates               Weight
  0.000000  0.000000  0.000000      1.000000
  0.029702  0.000000  0.000000      1.000000
  0.000000  0.029775  0.000000      1.000000
  0.029702  0.029775  0.000000      1.000000
 
 
 Subroutine IBZKPT_HF returns following result:
 ==============================================
 
 Found      4 k-points in 1st BZ
 the following      4 k-points will be used (e.g. in the exchange kernel)
 Following reciprocal coordinates:   # in IRBZ
  0.000000  0.000000  0.000000    0.25000000   1 t-inv F
  0.500000  0.000000  0.000000    0.25000000   2 t-inv F
  0.000000  0.500000  0.000000    0.25000000   3 t-inv F
  0.500000  0.500000  0.000000    0.25000000   4 t-inv F


--------------------------------------------------------------------------------------------------------




 Dimension of arrays:
   k-points           NKPTS =      4   k-points in BZ     NKDIM =      4   number of bands    NBANDS=     96
   number of dos      NEDOS =    301   number of ions     NIONS =      5
   non local maximal  LDIM  =      4   non local SUM 2l+1 LMDIM =      8
   total plane-waves  NPLWV = ******
   max r-space proj   IRMAX =      1   max aug-charges    IRDMAX=   7256
   dimension x,y,z NGX =   140 NGY =  140 NGZ =  140
   dimension x,y,z NGXF=   280 NGYF=  280 NGZF=  280
   support grid    NGXF=   280 NGYF=  280 NGZF=  280
   ions per type =               1   4
   NGX,Y,Z   is equivalent  to a cutoff of  13.83, 13.86, 14.34 a.u.
   NGXF,Y,Z  is equivalent  to a cutoff of  27.65, 27.72, 28.68 a.u.

 SYSTEM =  MgO-rocksalt                            
 POSCAR =   C  H                                   

--------------------------------------------------------------------------------------------------------


  energy-cutoff  :      600.00
  volume of cell :     4588.41
      direct lattice vectors                 reciprocal lattice vectors
    16.834044005  0.000000000  0.000000000     0.059403433  0.000000000  0.000000000
     0.000000000 16.792642541  0.000000000     0.000000000  0.059549889  0.000000000
     0.000000000  0.000000000 16.231358402     0.000000000  0.000000000  0.061609138

  length of vectors
    16.834044005 16.792642541 16.231358402     0.059403433  0.059549889  0.061609138



 k-points in units of 2pi/SCALE and weight: pymatgen v2020.8.13 with grid density = 
   0.00000000  0.00000000  0.00000000       0.250
   0.02970172  0.00000000  0.00000000       0.250
   0.00000000  0.02977494  0.00000000       0.250
   0.02970172  0.02977494  0.00000000       0.250

 k-points in reciprocal lattice and weights: pymatgen v2020.8.13 with grid density = 
   0.00000000  0.00000000  0.00000000       0.250
   0.50000000  0.00000000  0.00000000       0.250
   0.00000000  0.50000000  0.00000000       0.250
   0.50000000  0.50000000  0.00000000       0.250

 position of ions in fractional coordinates (direct lattice) 
   0.50000488  0.49999846  0.49983347
   0.49702513  0.55310502  0.53874104
   0.50299314  0.44689701  0.53874714
   0.55297178  0.50298769  0.46091231
   0.44702938  0.49700479  0.46092524

 position of ions in cartesian coordinates  (Angst):
   8.41710418  8.39629536  8.11297612
   8.36694298  9.28809484  8.74449895
   8.46740870  7.50458173  8.74459793
   9.30875127  8.44649243  7.48123293
   7.52531232  8.34602384  7.48144271



--------------------------------------------------------------------------------------------------------

--------------------------------------- Iteration      FINAL  ---------------------------------------


--------------------OUTCAR has been truncated-------------------------


--------------------OUTCAR has been truncated-------------------------


--------------------OUTCAR has been truncated-------------------------


--------------------OUTCAR has been truncated-------------------------


--------------------OUTCAR has been truncated-------------------------


--------------------OUTCAR has been truncated-------------------------


--------------------OUTCAR has been truncated-------------------------


--------------------OUTCAR has been truncated-------------------------


--------------------OUTCAR has been truncated-------------------------


--------------------OUTCAR has been truncated-------------------------


  FORCE on cell =-STRESS in cart. coord.  units (eV):
  Direction    XX          YY          ZZ          XY          YZ          ZX
  --------------------------------------------------------------------------------------
  Alpha Z     0.05280     0.05280     0.05280
  Ewald      58.56418    59.31802    62.36572    -0.03120     0.00064     0.01692
  Hartree   110.63707   110.87626   113.69561    -0.00248     0.00423     0.07506
  E(xc)     -28.31256   -28.30802   -28.30174    -0.00025     0.00011     0.00194
  Local    -227.61915  -228.44451  -234.29044     0.02426    -0.00756    -0.13778
  n-local   -15.94645   -15.95663   -15.95073     0.00057     0.00070     0.01232
  augment     0.17993     0.17801     0.17794     0.00011     0.00006     0.00083
  Kinetic   102.28898   102.22966   102.08740     0.00327    -0.00434    -0.07713
  Fock        0.00000     0.00000     0.00000     0.00000     0.00000     0.00000
  -------------------------------------------------------------------------------------
  Total      -0.15520    -0.05441    -0.16345    -0.00573    -0.00616    -0.10784
  in kB      -0.05419    -0.01900    -0.05707    -0.00200    -0.00215    -0.03766
  external pressure =       -0.04 kB  Pullay stress =        0.00 kB


 VOLUME and BASIS-vectors are now :
 -----------------------------------------------------------------------------
  energy-cutoff  :      600.00
  volume of cell :     4588.41
      direct lattice vectors                 reciprocal lattice vectors
    16.834044005  0.000000000  0.000000000     0.059403433  0.000000000  0.000000000
     0.000000000 16.792642541  0.000000000     0.000000000  0.059549889  0.000000000
     0.000000000  0.000000000 16.231358402     0.000000000  0.000000000  0.061609138

  length of vectors
    16.834044005 16.792642541 16.231358402     0.059403433  0.059549889  0.061609138


 FORCES acting on ions:
    Electron-Ion                     Ewald-Force                    Non-Local-Force
 -----------------------------------------------------------------------------------------------
   0.533E+00 0.299E-01 -.403E-01   -.618E+00 -.347E-01 -.527E-03   -.300E-01 -.158E-02 -.848E-01
   0.246E+01 -.435E+02 -.308E+02   -.273E+01 0.481E+02 0.341E+02   0.259E+00 -.465E+01 -.330E+01
   -.244E+01 0.435E+02 -.308E+02   0.269E+01 -.481E+02 0.341E+02   -.265E+00 0.465E+01 -.330E+01
   -.435E+02 -.245E+01 0.308E+02   0.482E+02 0.271E+01 -.341E+02   -.465E+01 -.262E+00 0.330E+01
   0.431E+02 0.243E+01 0.309E+02   -.475E+02 -.268E+01 -.341E+02   0.455E+01 0.257E+00 0.328E+01
 -----------------------------------------------------------------------------------------------
   0.132E+00 0.730E-02 0.955E-01   0.000E+00 0.888E-15 0.000E+00   -.132E+00 -.731E-02 -.955E-01


 POSITION                                       TOTAL-FORCE (eV/Angst)
 -----------------------------------------------------------------------------------
      8.41710      8.39630      8.11298        -0.113791     -0.006238     -0.124844
      8.36694      9.28809      8.74450        -0.013841     -0.000583     -0.011340
      8.46741      7.50458      8.74460        -0.013809     -0.001134     -0.011241
      9.30875      8.44649      7.48123         0.014151      0.000747      0.013144
      7.52531      8.34602      7.47144         0.127290      0.007208      0.134281
 -----------------------------------------------------------------------------------
    total drift:                                0.000041     -0.000002     -0.000052


--------------------------------------------------------------------------------------------------------



  FREE ENERGIE OF THE ION-ELECTRON SYSTEM (eV)
  ---------------------------------------------------
  free  energy   TOTEN  =       -22.60087377 eV

  energy  without entropy=      -22.60087377  energy(sigma->0) =      -22.60087377

 d Force =-0.1395645E-04[-0.269E-02, 0.266E-02]  d Energy =-0.2458362E-04 0.106E-04
 d Force = 0.6818216E+00[ 0.682E+00, 0.682E+00]  d Ewald  = 0.6818855E+00-0.639E-04


--------------------------------------------------------------------------------------------------------


    POTLOK:  cpu time      1.0116: real time      1.0121


--------------------------------------------------------------------------------------------------------


 Finite differences progress:
  Degree of freedom:  15/ 15
  Displacement:        2/  2
  Total:              30/ 30

 SECOND DERIVATIVES (NOT SYMMETRIZED)
 ------------------------------------
               1X          1Y          1Z          2X          2Y          2Z          3X          3Y          3Z          4X          4Y          4Z          5X          5Y          5Z 
  1X   -49.858720   -0.001506   -0.000042    4.285411   -0.922806   -0.653437    4.285588   -0.925428    0.655511   20.641242    0.924104  -11.630962   20.646479    0.925636   11.628930
  1Y     0.003305  -49.865096    0.000777   -0.923857   20.647805   11.629411   -0.926446   20.645541  -11.630847    0.922748    4.285781   -0.654044    0.924250    4.285969    0.654703
  1Z    -0.000033    0.001226  -49.852294   -0.653730   11.622962   12.460954    0.655796  -11.624998   12.464425  -11.624607   -0.654379   12.466213   11.622574    0.655190   12.460703
  2X     4.288132   -0.922649   -0.652744   -4.288374    1.021331    0.723854    0.150040   -0.100358   -0.085153    0.050715   -2.179998   -1.382494   -0.200513    2.181674    1.396538
  2Y    -0.921524   20.647426   11.626050    1.021186  -22.434332  -12.896305   -0.100436    1.937599    1.509213   -0.042589   -0.201141   -0.197848    0.043362    0.050447   -0.041110
  2Z    -0.653252   11.621203   12.462107    0.723960  -12.893673  -13.358511    0.085057   -1.507807   -1.193766    0.040928    1.397070    1.045208   -0.196693    1.383207    1.044962
  3X     4.289302   -0.924892    0.656527    0.150125   -0.101749    0.082584   -4.289694    1.024571   -0.726316   -0.200891    2.181933   -1.396380    0.051158   -2.179863    1.383585
  3Y    -0.926069   20.646307  -11.628660   -0.100711    1.938012   -1.509704    1.026247  -22.433363   12.899145    0.043083    0.050022    0.041551   -0.042551   -0.200978    0.197668
  3Z     0.655340  -11.622344   12.464822   -0.085466    1.508811   -1.193540   -0.725993   12.891894  -13.358784    0.198153   -1.382673    1.043905   -0.042034   -1.395689    1.043597
  4X    20.641366    0.923022  -11.626568    0.050179   -0.044236    0.040750   -0.201291    0.044305    0.195548  -22.429788   -1.022534   12.899688    1.939534    0.099443   -1.509418
  4Y     0.923214    4.289227   -0.653658   -2.181196   -0.200798    1.396221    2.180186    0.050991   -1.383921   -1.023428   -4.289339    0.726794    0.101224    0.149919   -0.085437
  4Z   -11.623677   -0.654652   12.469058   -1.383355   -0.197940    1.044383   -1.397297    0.041011    1.044914   12.895271    0.726651  -13.364615    1.509058    0.084930   -1.193740
  5X    20.647586    0.924706   11.624782   -0.200532    0.041750   -0.198634    0.050753   -0.043281   -0.042080    1.935713    0.100188    1.512609  -22.433521   -1.023363  -12.896677
  5Y     0.922256    4.287869    0.654053    2.179424    0.050667    1.382181   -2.181865   -0.200985   -1.395924    0.099350    0.149884    0.084575   -1.019166   -4.287435   -0.724884
  5Z    11.621568    0.654499   12.463426    1.397006   -0.041566    1.044034    1.384080    0.197465    1.044609   -1.509889   -0.085324   -1.193776  -12.892765   -0.725073  -13.358293


 Eigenvectors and eigenvalues of the dynamical matrix
 ----------------------------------------------------


   1 f  =   91.775338 THz   576.641458 2PiTHz 3061.295773 cm-1   379.552131 meV
             X         Y         Z           dx          dy          dz
      8.417104  8.396295  8.112976    -0.298223    0.037987    0.007054  
      8.366943  9.288095  8.744499    -0.015381   -0.108796   -0.078481  
      8.467409  7.504582  8.744598    -0.016399   -0.090755    0.066768  
      9.308751  8.446492  7.481233     0.542218    0.034490   -0.399028  
      7.525312  8.346024  7.481443     0.523100    0.033370    0.386281  

   2 f  =   91.773686 THz   576.631078 2PiTHz 3061.240669 cm-1   379.545299 meV
             X         Y         Z           dx          dy          dz
      8.417104  8.396295  8.112976     0.036717    0.295802   -0.040119  
      8.366943  9.288095  8.744499     0.030561   -0.475231   -0.354669  
      8.467409  7.504582  8.744598     0.036621   -0.581551    0.424174  
      9.308751  8.446492  7.481233    -0.150360    0.012842    0.105526  
      7.525312  8.346024  7.481443    -0.044127    0.018811   -0.036043  

   3 f  =   91.771904 THz   576.619880 2PiTHz 3061.181220 cm-1   379.537929 meV
             X         Y         Z           dx          dy          dz
      8.417104  8.396295  8.112976     0.012011    0.038910    0.297971  
      8.366943  9.288095  8.744499     0.027052   -0.463952   -0.308918  
      8.467409  7.504582  8.744598    -0.017359    0.326463   -0.207573  
      9.308751  8.446492  7.481233     0.369256    0.023528   -0.239373  
      7.525312  8.346024  7.481443    -0.420590   -0.020819   -0.276843  

   4 f  =   89.027387 THz   559.375570 2PiTHz 2969.633982 cm-1   368.187523 meV
             X         Y         Z           dx          dy          dz
      8.417104  8.396295  8.112976    -0.000230    0.000029   -0.000100  
      8.366943  9.288095  8.744499     0.022847   -0.407554   -0.288669  
      8.467409  7.504582  8.744598    -0.022999    0.407400   -0.288550  
      9.308751  8.446492  7.481233    -0.407285   -0.022908    0.288520  
      7.525312  8.346024  7.481443     0.408101    0.022910    0.289071  

   5 f  =   46.247754 THz   290.583210 2PiTHz 1542.659030 cm-1   191.265257 meV
             X         Y         Z           dx          dy          dz
      8.417104  8.396295  8.112976    -0.000178    0.000122   -0.000308  
      8.366943  9.288095  8.744499    -0.495212    0.017924   -0.064593  
      8.467409  7.504582  8.744598     0.495634   -0.018033   -0.064940  
      9.308751  8.446492  7.481233     0.073901   -0.490466    0.065369  
      7.525312  8.346024  7.481443    -0.073678    0.490016    0.065122  

   6 f  =   46.235063 THz   290.503470 2PiTHz 1542.235706 cm-1   191.212772 meV
             X         Y         Z           dx          dy          dz
      8.417104  8.396295  8.112976     0.000017    0.000117    0.000058  
      8.366943  9.288095  8.744499    -0.063473   -0.288985    0.403058  
      8.467409  7.504582  8.744598     0.063591    0.288899    0.402825  
      9.308751  8.446492  7.481233    -0.280240   -0.095643   -0.403043  
      7.525312  8.346024  7.481443     0.280173    0.095256   -0.403153  

   7 f  =   39.839461 THz   250.318717 2PiTHz 1328.901380 cm-1   164.762698 meV
             X         Y         Z           dx          dy          dz
      8.417104  8.396295  8.112976    -0.351512    0.188903    0.008335  
      8.366943  9.288095  8.744499     0.479624   -0.036329    0.149658  
      8.467409  7.504582  8.744598     0.479692   -0.048806   -0.164189  
      9.308751  8.446492  7.481233     0.123547   -0.284850    0.249262  
      7.525312  8.346024  7.481443     0.135896   -0.284696   -0.263497  

   8 f  =   39.835876 THz   250.296188 2PiTHz 1328.781778 cm-1   164.747869 meV
             X         Y         Z           dx          dy          dz
      8.417104  8.396295  8.112976     0.189077    0.350768    0.022798  
      8.366943  9.288095  8.744499    -0.285827   -0.112208    0.236078  
      8.467409  7.504582  8.744598    -0.284085   -0.146695   -0.275671  
      9.308751  8.446492  7.481233    -0.059721   -0.479534   -0.176585  
      7.525312  8.346024  7.481443    -0.025597   -0.477740    0.137335  

   9 f  =   39.821165 THz   250.203760 2PiTHz 1328.291093 cm-1   164.687032 meV
             X         Y         Z           dx          dy          dz
      8.417104  8.396295  8.112976     0.003495    0.023999   -0.398421  
      8.366943  9.288095  8.744499     0.010920   -0.308155    0.363345  
      8.467409  7.504582  8.744598    -0.023560    0.291612    0.327513  
      9.308751  8.446492  7.481233     0.300037   -0.016104    0.341453  
      7.525312  8.346024  7.481443    -0.299413   -0.050378    0.348796  

  10 f  =    0.169117 THz     1.062593 2PiTHz    5.641135 cm-1     0.699411 meV
             X         Y         Z           dx          dy          dz
      8.417104  8.396295  8.112976     0.205175    0.412985   -0.546280  
      8.366943  9.288095  8.744499    -0.176146    0.079994   -0.120983  
      8.467409  7.504582  8.744598     0.372608    0.110871   -0.194266  
      9.308751  8.446492  7.481233     0.004691    0.417195   -0.210885  
      7.525312  8.346024  7.481443     0.035498   -0.131611   -0.104234  

  11 f  =    0.145464 THz     0.913974 2PiTHz    4.852142 cm-1     0.601589 meV
             X         Y         Z           dx          dy          dz
      8.417104  8.396295  8.112976    -0.422008   -0.588052   -0.393806  
      8.366943  9.288095  8.744499    -0.298653   -0.196613   -0.089603  
      8.467409  7.504582  8.744598    -0.009918   -0.180347   -0.137585  
      9.308751  8.446492  7.481233    -0.097191   -0.006451   -0.066004  
      7.525312  8.346024  7.481443    -0.081057   -0.295293   -0.161172  

  12 f  =    0.107921 THz     0.678091 2PiTHz    3.599873 cm-1     0.446327 meV
             X         Y         Z           dx          dy          dz
      8.417104  8.396295  8.112976     0.718871   -0.467582   -0.030462  
      8.366943  9.288095  8.744499     0.155924   -0.101207   -0.060511  
      8.467409  7.504582  8.744598     0.242977   -0.096293    0.042903  
      9.308751  8.446492  7.481233     0.212913   -0.127398   -0.000432  
      7.525312  8.346024  7.481443     0.217779   -0.214509   -0.017100  

  13 f/i=    0.197921 THz     1.243575 2PiTHz    6.601939 cm-1     0.818536 meV
             X         Y         Z           dx          dy          dz
      8.417104  8.396295  8.112976     0.061771    0.035398   -0.543598  
      8.366943  9.288095  8.744499     0.388496    0.056367   -0.192610  
      8.467409  7.504582  8.744598    -0.380342    0.013139   -0.121068  
      9.308751  8.446492  7.481233     0.053152   -0.398740   -0.139431  
      7.525312  8.346024  7.481443     0.009982    0.370123   -0.174317  

  14 f/i=    0.923327 THz     5.801432 2PiTHz   30.798858 cm-1     3.818570 meV
             X         Y         Z           dx          dy          dz
      8.417104  8.396295  8.112976    -0.057622    0.088602   -0.016127  
      8.366943  9.288095  8.744499    -0.234394    0.331994   -0.454567  
      8.467409  7.504582  8.744598    -0.118325    0.338540    0.445308  
      9.308751  8.446492  7.481233     0.140022   -0.225852    0.196451  
      7.525312  8.346024  7.481443     0.146452   -0.341857   -0.205780  

  15 f/i=    1.141665 THz     7.173295 2PiTHz   38.081856 cm-1     4.721546 meV
             X         Y         Z           dx          dy          dz
      8.417104  8.396295  8.112976    -0.078414   -0.078409   -0.005740  
      8.366943  9.288095  8.744499     0.293350    0.139884   -0.206049  
      8.467409  7.504582  8.744598     0.282604    0.139319    0.202735  
      9.308751  8.446492  7.481233    -0.333286   -0.190224   -0.453446  
      7.525312  8.346024  7.481443    -0.333878   -0.179357    0.450216  

 Finite differences POTIM=   1.0000000000000000E-002
     LOOP+:  cpu time     37.8597: real time     37.9091
    4ORBIT:  cpu time      0.0000: real time      0.0000

 total amount of memory used by VASP MPI-rank0    76532. kBytes
=======================================================================

   base      :      30000. kBytes
   nonl-proj :      11366. kBytes
   fftplans  :      12896. kBytes
   grid      :      18565. kBytes
   one-center:          3. kBytes
   wavefun   :       3702. kBytes

  
  
 General timing and accounting informations for this job:
 ========================================================
  
                  Total CPU time used (sec):     1373.804
                            User time (sec):     1371.421
                          System time (sec):        2.383
                         Elapsed time (sec):     1401.024
  
                   Maximum memory used (kb):      393308.
                   Average memory used (kb):          N/A
  
                          Minor page faults:        33054
                          Major page faults:         1205
                 Voluntary context switches:        22786
