 **********************************************************************
                          MRCC program system
 **********************************************************************
 
                              Written by
     Mihaly Kallay, Peter R. Nagy, David Mester, Laszlo Gyevi-Nagy,
        Jozsef Csoka, P. Bernat Szabo, Zoltan Rolik, Gyula Samu,
     Jozsef Csontos, Bence Hegely, Adam Ganyecz, Istvan Ladjanszki,
       Lorant Szegedy, Bence Ladoczki, Klara Petrov, Mate Farkas,
                    Pal D. Mezei, and Reka A. Horvath
 
        Department of Physical Chemistry and Materials Science
            Budapest University of Technology and Economics
                  Budapest P.O.Box 91, H-1521 Hungary
 
                              www.mrcc.hu
 
                      Release date: March 18, 2022

 ************************ 2023-02-04 11:49:28 *************************
 Executing minp...

 Reading input from MINP...
 
 Input file:
 
calc=FNO-CCSD(T)
verbosity=3
mem=220GB
unit=angs
scfiguess=small
scfalg=locfit1
ccmaxit=400
ccsdalg=dfdirect
ccsdthreads=4
ccsdmkl=thr
ptthreads=4
lnoepsv=1e-5
naf_cor=1e-2
basis=aug-cc-pVQZ
basis_sm=def2-SVP
dfbasis_scf=def2-QZVPP-RI-JK
dfbasis_cor=aug-cc-pVQZ-RI
unit=angs
geom=xyz
10

C    29.54344629    29.54344629    16.97505516
H    29.54344670    30.44187631    17.60392580
H    29.54344662    28.64496649    17.60393442
H    30.44658454    29.54342777    16.34911135
H    28.64030918    29.54342779    16.34911130
C    42.20489259    37.98439940    16.97521401
H    41.30647292    37.98439960    17.60422237
H    42.20491139    38.88718726    16.34882774
H    42.20491137    37.08161262    16.34882693
H    43.10336281    37.98439958    17.60423123

--------------------Output has been truncated-------------------------


--------------------Output has been truncated-------------------------


--------------------Output has been truncated-------------------------


--------------------Output has been truncated-------------------------


--------------------Output has been truncated-------------------------


--------------------Output has been truncated-------------------------


--------------------Output has been truncated-------------------------


--------------------Output has been truncated-------------------------


--------------------Output has been truncated-------------------------


--------------------Output has been truncated-------------------------


 
 Reference energy [au]:                       -40.215614173186
 DF-MP2 singlet pair energy [au]:              -0.173752856302
 DF-MP2 triplet pair energy [au]:              -0.037498359939
 DF-SCS-MP2 correlation energy [au]:           -0.221002880876
 DF-SCS-MP2 energy [au]:                      -40.436617054062
 DF-SOS-MP2 correlation energy [au]:           -0.225878713193
 DF-SOS-MP2 energy [au]:                      -40.441492886379
 DF-MP2 correlation energy [au]:               -0.211251216241
 DF-MP2 energy [au]:                          -40.426865389427

 Results in FNO basis:
 
 
 Reference energy [au]:                       -40.215614173186
 DF-MP2 singlet pair energy [au]:              -0.170618195202
 DF-MP2 triplet pair energy [au]:              -0.037357058222
 DF-SCS-MP2 correlation energy [au]:           -0.217194186983
 DF-SCS-MP2 energy [au]:                      -40.432808360169
 DF-SOS-MP2 correlation energy [au]:           -0.221803653763
 DF-SOS-MP2 energy [au]:                      -40.437417826949
 DF-MP2 correlation energy [au]:               -0.207975253424
 DF-MP2 energy [au]:                          -40.423589426610

 Results in NAF basis:
 
 
 Reference energy [au]:                       -40.215614173186
 DF-MP2 singlet pair energy [au]:              -0.170600635966
 DF-MP2 triplet pair energy [au]:              -0.037363751021
 DF-SCS-MP2 correlation energy [au]:           -0.217175346832
 DF-SCS-MP2 energy [au]:                      -40.432789520018
 DF-SOS-MP2 correlation energy [au]:           -0.221780826756
 DF-SOS-MP2 energy [au]:                      -40.437394999941
 DF-MP2 correlation energy [au]:               -0.207964386986
 DF-MP2 energy [au]:                          -40.423578560172

 ************************ 2023-02-04 11:50:01 *************************
 Executing ccsd...

 Allocation of 220.0 Gbytes of memory...

 Direct DF-CCSD(T) calculation
 
 Convergence criterion:  1.0E-06
 
 Number of occupied/virtual/auxiliary orbitals:     4   101   320
    163.36 MB is the minimal memory requirement for (T)
     39.40 MB is the minimal memory requirement for CCSD
 
 Reference energy [au]:             -40.215614173186
 T1 contribution [au]:                0.000000000000
 Same spin MP2 energy [au]:          -0.037360400173
 Opposite spin MP2 energy [au]:      -0.170609405793
 MP2 correlation energy [au]:        -0.207969805966
 Total MP2 energy [au]:             -40.423583979152
 MP2 correction [au]:                -0.003281410275
 
 
 CPU time [min]:     0.175                   Wall time [min]:     0.008
 
 Starting CCSD iterations...
 
                     Residual norm          Energy
 Iteration  1        0.138680873672      -40.436528966988
 Iteration  2        0.035376070983      -40.442052519686
 Iteration  3        0.009771738228      -40.442635240213
 Iteration  4        0.002020926621      -40.442639739319
 Iteration  5        0.000374897483      -40.442646250146
 Iteration  6        0.000084797650      -40.442646126902
 Iteration  7        0.000020223466      -40.442646816930
 Iteration  8        0.000003738676      -40.442646873878
 
 CCSD iteration has converged in  8 steps.
      444.29 MB memory was utilized by CCSD
 
 T1 diagnostic:      7.996E-03            D1 diagnostic:      1.292E-02
 
 T1 contribution [au]:                                  0.000000000000
 PPL energy contribution [au]:                          0.060602203589
 Scaled PPL energy contribution [au]:                   0.061558988473

 OS-PPL energy contribution [au]:                       0.053773708016
 Scaled OS-PPL energy contribution [au]:                0.054766755709
 SS-PPL energy contribution [au]:                       0.006828495574
 Scaled SS-PPL energy contribution [au]:                0.006852794243

 Opposite spin CCSD energy [au]:                       -0.191003415499
 Same spin CCSD energy [au]:                           -0.036036034917
 CCSD correlation energy [au]:                         -0.227039450416
 CCSD correlation energy + MP2 correction [au]:        -0.230320860691
 CCSD correlation energy + MP2 + PPL corr. [au]:       -0.229364075808
 Total CCSD energy [au]:                              -40.442653623602
 Total CCSD energy + MP2 correction [au]:             -40.445935033877
 Total CCSD energy + MP2 + PPL corr. [au]:            -40.444978248994
 
 CPU time [min]:     0.857                   Wall time [min]:     0.027
 
 Calculation of (T) correction...
 
 
      124.68 MB memory is utilized for (T)

 0%       25%       50%       75%       100%
 |---------|---------|---------|---------| 
 
 (T) correction [au]:                                    -0.006941734074
 (T*) correction [au]:                                   -0.007051262847
 (T+) correction [au]:                                   -0.007050855828
 CCSD(T) correlation energy [au]:                        -0.233981184490
 CCSD(T) correlation energy + MP2 correction [au]:       -0.237262594766
 CCSD(T+) correlation en. + MP2 + PPL corr. [au]:        -0.236414931636
 Total CCSD(T) energy [au]:                             -40.449595357676
 Total CCSD(T) energy + MP2 correction [au]:            -40.452876767952
 Total CCSD(T+) energy + MP2 + PPL corr. [au]:          -40.452029104821
 
 CPU time [min]:     0.965                   Wall time [min]:     0.030
 
 ************************ 2023-02-04 11:50:03 *************************
                      Normal termination of mrcc.
 **********************************************************************
