 vasp.6.3.0 20Jan22 (build Apr  1 2022 16:44:48) complex                         
 executed on        HPECrayEX_GCC date 2022.11.13  00:52:01
 running  512 mpi-ranks, with    1 threads/rank
 distrk:  each k-point on  512 cores,    1 groups
 distr:  one band on NCORE=   8 cores,   64 groups


--------------------------------------------------------------------------------------------------------


 INCAR:
   SYSTEM = MgO-rocksalt
   ISMEAR = 0
   SIGMA = 0.05
   EDIFF = 1E-6
   ALGO = ALL
   ISTART = 0
   IBRION = -1
   NSW = 0
   ISYM = 0
   DIPOL = 0.5 0.5 0.5
   IDIPOL = 3
   LDIPOL = .TRUE.
   GGA = RE
   IVDW = 13
   VDW_S8 = 1.7468
   VDW_A1 = 0.5363
   VDW_A2 = 3.0726
   ENCUT = 600
   PREC = Accurate
   LASPH = .TRUE.
   LREAL = .FALSE.
   ISPIN = 1
   NELM = 200
   NELMIN = 8
   NCORE = 8
   KPAR = 1
   LWAVE = .FALSE.
   LCHARG = .FALSE.

 POTCAR:    PAW_PBE Mg_pv 13Apr2007               
 POTCAR:    PAW_PBE O 08Apr2002                   
 POTCAR:    PAW_PBE Mg_pv 13Apr2007               
   SHA256 =  f474ac0dd33840b9ae76c01d57fea79fdf77cdfbb07d5ade72c65f83c709b62b Mg_pv/POTCAR          
   COPYR  = (c) Copyright 13Apr2007 Georg Kresse                                                    
   COPYR  = This file is part of the software VASP. Any use, copying, and all other rights are regul
   COPYR  = If you do not have a valid VASP license, you may not use, copy or distribute this file. 
   VRHFIN =Mg: p6s2                                                                                 
   LEXCH  = PE                                                                                      
   EATOM  =  1056.7344 eV,   77.6678 Ry                                                             
                                                                                                    
   TITEL  = PAW_PBE Mg_pv 13Apr2007                                                                 
   LULTRA =        F    use ultrasoft PP ?                                                          
   IUNSCR =        1    unscreen: 0-lin 1-nonlin 2-no                                               
   RPACOR =    1.500    partial core radius                                                         
   POMASS =   24.305; ZVAL   =    8.000    mass and valenz                                          
   RCORE  =    2.000    outmost cutoff radius                                                       
   RWIGS  =    2.000; RWIGS  =    1.058    wigner-seitz radius (au A)                               
   ENMAX  =  403.929; ENMIN  =  302.947 eV                                                          
   RCLOC  =    1.506    cutoff for local pot                                                        
   LCOR   =        T    correct aug charges                                                         
   LPAW   =        T    paw PP                                                                      
   EAUG   =  758.780                                                                                
   DEXC   =    0.000                                                                                
   RMAX   =    2.045    core radius for proj-oper                                                   
   RAUG   =    1.300    factor for augmentation sphere                                              
   RDEP   =    2.025    radius for radial grids                                                     
   RDEPT  =    1.557    core radius for aug-charge                                                  
                                                                                                    
   Atomic configuration                                                                             
    5 entries                                                                                       
     n  l   j            E        occ.                                                              
     1  0  0.50     -1259.6230   2.0000                                                             
     2  0  0.50       -79.8442   2.0000                                                             
     2  1  1.50       -46.6121   6.0000                                                             
     3  0  0.50        -4.7055   2.0000                                                             
     3  2  1.50        -1.3606   0.0000                                                             
   Description                                                                                      
     l       E           TYP  RCUT    TYP  RCUT                                                     
     1    -46.6121073     23  1.600                                                                 
     1      2.7211652     23  1.600                                                                 
     0     -4.7054661     23  2.000                                                                 
     0     61.2262170     23  2.000                                                                 
     2     -1.3605826     23  2.000                                                                 
  local pseudopotential read in
  partial core-charges read in
  partial kinetic energy density read in
  atomic valenz-charges read in
  non local Contribution for L=           1  read in
    real space projection operators read in
  non local Contribution for L=           1  read in
    real space projection operators read in
  non local Contribution for L=           0  read in
    real space projection operators read in
  non local Contribution for L=           0  read in
    real space projection operators read in
  non local Contribution for L=           2  read in
    real space projection operators read in
    PAW grid and wavefunctions read in

   number of l-projection  operators is LMAX  =           5
   number of lm-projection operators is LMMAX =          13

 POTCAR:    PAW_PBE O 08Apr2002                   
   SHA256 =  818f92134a0a090dccd8ba1447fa70422a3b330e708bb4f08108d8ae51209ddf O/POTCAR              
   COPYR  = (c) Copyright 08Apr2002 Georg Kresse                                                    
   COPYR  = This file is part of the software VASP. Any use, copying, and all other rights are regul
   COPYR  = If you do not have a valid VASP license, you may not use, copy or distribute this file. 
   VRHFIN =O: s2p4                                                                                  
   LEXCH  = PE                                                                                      
   EATOM  =   432.3788 eV,   31.7789 Ry                                                             
                                                                                                    
   TITEL  = PAW_PBE O 08Apr2002                                                                     
   LULTRA =        F    use ultrasoft PP ?                                                          
   IUNSCR =        1    unscreen: 0-lin 1-nonlin 2-no                                               
   RPACOR =    1.200    partial core radius                                                         
   POMASS =   16.000; ZVAL   =    6.000    mass and valenz                                          
   RCORE  =    1.520    outmost cutoff radius                                                       
   RWIGS  =    1.550; RWIGS  =    0.820    wigner-seitz radius (au A)                               
   ENMAX  =  400.000; ENMIN  =  300.000 eV                                                          
   ICORE  =        2    local potential                                                             
   LCOR   =        T    correct aug charges                                                         
   LPAW   =        T    paw PP                                                                      
   EAUG   =  605.392                                                                                
   DEXC   =    0.000                                                                                
   RMAX   =    1.553    core radius for proj-oper                                                   
   RAUG   =    1.300    factor for augmentation sphere                                              
   RDEP   =    1.550    radius for radial grids                                                     
   RDEPT  =    1.329    core radius for aug-charge                                                  
                                                                                                    
   Atomic configuration                                                                             
    4 entries                                                                                       
     n  l   j            E        occ.                                                              
     1  0  0.50      -514.6923   2.0000                                                             
     2  0  0.50       -23.9615   2.0000                                                             
     2  1  0.50        -9.0305   4.0000                                                             
     3  2  1.50        -9.5241   0.0000                                                             
   Description                                                                                      
     l       E           TYP  RCUT    TYP  RCUT                                                     
     0    -23.9615318     23  1.200                                                                 
     0     -9.5240782     23  1.200                                                                 
     1     -9.0304911     23  1.520                                                                 
     1      8.1634956     23  1.520                                                                 
     2     -9.5240782      7  1.500                                                                 
  local pseudopotential read in
  partial core-charges read in
  partial kinetic energy density read in
  kinetic energy density of atom read in
  atomic valenz-charges read in
  non local Contribution for L=           0  read in
    real space projection operators read in
  non local Contribution for L=           0  read in
    real space projection operators read in
  non local Contribution for L=           1  read in
    real space projection operators read in
  non local Contribution for L=           1  read in
    real space projection operators read in
    PAW grid and wavefunctions read in

   number of l-projection  operators is LMAX  =           4
   number of lm-projection operators is LMMAX =           8

 -----------------------------------------------------------------------------
|                                                                             |
|               ----> ADVICE to this user running VASP <----                  |
|                                                                             |
|     You have a (more or less) 'large supercell' and for larger cells it     |
|     might be more efficient to use real-space projection operators.         |
|     Therefore, try LREAL= Auto in the INCAR file.                           |
|     Mind: For very accurate calculation, you might also keep the            |
|     reciprocal projection scheme (i.e. LREAL=.FALSE.).                      |
|                                                                             |
 -----------------------------------------------------------------------------

 -----------------------------------------------------------------------------
|                                                                             |
|               ----> ADVICE to this user running VASP <----                  |
|                                                                             |
|     You enforced a specific xc type in the INCAR file but a different       |
|     type was found in the POTCAR file.                                      |
|     I HOPE YOU KNOW WHAT YOU ARE DOING!                                     |
|                                                                             |
 -----------------------------------------------------------------------------

  PAW_PBE Mg_pv 13Apr2007               :
 energy of atom  1       EATOM=-1056.7344
 kinetic energy error for atom=    0.0221 (will be added to EATOM!!)
  PAW_PBE O 08Apr2002                   :
 energy of atom  2       EATOM= -432.3788
 kinetic energy error for atom=    0.0168 (will be added to EATOM!!)


 POSCAR: Mg  O
  positions in direct lattice
  No initial velocities read in
 -----------------------------------------------------------------------------
|                                                                             |
|           W    W    AA    RRRRR   N    N  II  N    N   GGGG   !!!           |
|           W    W   A  A   R    R  NN   N  II  NN   N  G    G  !!!           |
|           W    W  A    A  R    R  N N  N  II  N N  N  G       !!!           |
|           W WW W  AAAAAA  RRRRR   N  N N  II  N  N N  G  GGG   !            |
|           WW  WW  A    A  R   R   N   NN  II  N   NN  G    G                |
|           W    W  A    A  R    R  N    N  II  N    N   GGGG   !!!           |
|                                                                             |
|     Specifying the vdW parameters                                           |
|     VDW_S8 = 1.747                                                          |
|     VDW_A1 = 0.536                                                          |
|     VDW_A2 = 3.073                                                          |
|     in the INCAR file will overwrite the defaults for revpbe. Please        |
|     make sure that is what you intended.                                    |
|                                                                             |
 -----------------------------------------------------------------------------

 exchange correlation table for  LEXCH =       40
   RHO(1)=    0.500       N(1)  =     2000
   RHO(2)=  100.500       N(2)  =     4000



--------------------------------------------------------------------------------------------------------


 ion  position               nearest neighbor table
   1  0.250  0.000  0.352-  35 2.10  36 2.10  43 2.10  52 2.10  33 2.10
   2  0.500  0.250  0.352-  35 2.10  36 2.10  44 2.10  51 2.10  34 2.10
   3  0.250  0.250  0.451-  33 2.10  34 2.10  41 2.10  50 2.10  35 2.10  39 2.11
   4  0.500  0.000  0.451-  33 2.10  34 2.10  42 2.10  49 2.10  36 2.10  40 2.11
   5  0.250  0.000  0.550-  56 2.10  39 2.10  40 2.10  47 2.10  33 2.11  37 2.12
   6  0.500  0.250  0.550-  40 2.10  39 2.10  55 2.10  48 2.10  34 2.11  38 2.16
   7  0.248  0.250  0.648-  54 2.08  39 2.10  37 2.10  45 2.10  38 2.12
   8  0.500  0.998  0.648-  46 2.08  40 2.09  37 2.10  53 2.10  38 2.12
   9  0.250  0.500  0.352-  35 2.10  43 2.10  44 2.10  60 2.10  41 2.10
  10  0.500  0.750  0.352-  36 2.10  43 2.10  44 2.10  59 2.10  42 2.10
  11  0.250  0.750  0.451-  33 2.10  41 2.10  42 2.10  58 2.10  43 2.10  47 2.10
  12  0.500  0.500  0.451-  34 2.10  41 2.10  42 2.10  57 2.10  44 2.10  48 2.11
  13  0.250  0.500  0.550-  39 2.10  64 2.10  47 2.10  48 2.10  41 2.11  45 2.13
  14  0.500  0.750  0.550-  63 2.10  47 2.10  40 2.10  48 2.11  42 2.11  46 2.12
  15  0.250  0.750  0.648-  47 2.10  62 2.10  37 2.10  45 2.10  46 2.11
  16  0.500  0.503  0.648-  46 2.08  48 2.09  45 2.10  61 2.10  38 2.13
  17  0.750  0.000  0.352-  36 2.10  51 2.10  52 2.10  59 2.10  49 2.10
  18  0.000  0.250  0.352-  35 2.10  51 2.10  52 2.10  60 2.10  50 2.10
  19  0.750  0.250  0.451-  34 2.10  49 2.10  50 2.10  57 2.10  51 2.10  55 2.11
  20  0.000  0.000  0.451-  33 2.10  49 2.10  50 2.10  58 2.10  52 2.10  56 2.11
  21  0.750  0.000  0.550-  56 2.10  55 2.10  40 2.10  63 2.10  49 2.11  53 2.12
  22  1.000  0.250  0.550-  56 2.10  64 2.10  55 2.11  39 2.11  50 2.11  54 2.12
  23  0.752  0.250  0.648-  54 2.08  55 2.10  53 2.10  61 2.10  38 2.12
  24  1.000  1.000  0.648-  56 2.10  62 2.10  53 2.10  37 2.10  54 2.10
  25  0.750  0.500  0.352-  44 2.10  51 2.10  59 2.10  60 2.10  57 2.10
  26  0.000  0.750  0.352-  43 2.10  52 2.10  59 2.10  60 2.10  58 2.10
  27  0.750  0.750  0.451-  42 2.10  49 2.10  57 2.10  58 2.10  59 2.10  63 2.10
  28  0.000  0.500  0.451-  41 2.10  50 2.10  57 2.10  58 2.10  60 2.10  64 2.11
  29  0.750  0.500  0.550-  55 2.10  64 2.10  63 2.10  48 2.10  57 2.11  61 2.13
  30  0.000  0.750  0.550-  56 2.10  47 2.10  63 2.10  64 2.10  58 2.11  62 2.13
  31  0.750  0.750  0.648-  63 2.10  62 2.10  53 2.10  61 2.10  46 2.11
  32  1.000  0.500  0.648-  64 2.10  62 2.10  61 2.10  45 2.10  54 2.10
  33  0.250  0.000  0.451-   3 2.10   4 2.10  11 2.10  20 2.10   1 2.10   5 2.11
  34  0.500  0.250  0.451-   3 2.10   4 2.10  12 2.10  19 2.10   2 2.10   6 2.11
  35  0.250  0.250  0.352-   1 2.10   2 2.10   9 2.10  18 2.10   3 2.10
  36  0.500  0.000  0.352-   1 2.10   2 2.10  10 2.10  17 2.10   4 2.10
  37  0.250  0.000  0.649-   7 2.10  15 2.10   8 2.10  24 2.10   5 2.12
  38  0.500  0.250  0.651-  23 2.12   7 2.12   8 2.12  16 2.13   6 2.16
  39  0.250  0.250  0.550-   7 2.10   6 2.10  13 2.10   5 2.10  22 2.11   3 2.11
  40  0.500  0.001  0.550-   8 2.09   6 2.10  21 2.10   5 2.10  14 2.10   4 2.11
  41  0.250  0.500  0.451-   3 2.10  11 2.10  12 2.10  28 2.10   9 2.10  13 2.11
  42  0.500  0.750  0.451-   4 2.10  11 2.10  12 2.10  27 2.10  10 2.10  14 2.11
  43  0.250  0.750  0.352-   1 2.10   9 2.10  10 2.10  26 2.10  11 2.10
  44  0.500  0.500  0.352-   2 2.10   9 2.10  10 2.10  25 2.10  12 2.10
  45  0.250  0.500  0.650-  16 2.10   7 2.10  32 2.10  15 2.10  13 2.13
  46  0.500  0.750  0.649-  16 2.08   8 2.08  15 2.11  31 2.11  14 2.12
  47  0.250  0.750  0.549-  15 2.10  14 2.10  13 2.10  30 2.10   5 2.10  11 2.10
  48  0.500  0.500  0.550-  16 2.09   6 2.10  13 2.10  29 2.10  14 2.11  12 2.11
  49  0.750  0.000  0.451-   4 2.10  19 2.10  20 2.10  27 2.10  17 2.10  21 2.11
  50  0.000  0.250  0.451-   3 2.10  19 2.10  20 2.10  28 2.10  18 2.10  22 2.11
  51  0.750  0.250  0.352-   2 2.10  17 2.10  18 2.10  25 2.10  19 2.10
  52  0.000  0.000  0.352-   1 2.10  17 2.10  18 2.10  26 2.10  20 2.10
  53  0.750  0.000  0.649-  23 2.10  31 2.10   8 2.10  24 2.10  21 2.12
  54  0.000  0.250  0.649-   7 2.08  23 2.08  32 2.10  24 2.10  22 2.12
  55  0.750  0.250  0.550-  23 2.10   6 2.10  29 2.10  21 2.10  22 2.11  19 2.11
  56  0.000  0.000  0.549-  24 2.10  22 2.10   5 2.10  21 2.10  30 2.10  20 2.11
  57  0.750  0.500  0.451-  12 2.10  19 2.10  27 2.10  28 2.10  25 2.10  29 2.11
  58  0.000  0.750  0.451-  11 2.10  20 2.10  27 2.10  28 2.10  26 2.10  30 2.11
  59  0.750  0.750  0.352-  10 2.10  17 2.10  25 2.10  26 2.10  27 2.10
  60  0.000  0.500  0.352-   9 2.10  18 2.10  25 2.10  26 2.10  28 2.10
  61  0.750  0.500  0.650-  16 2.10  23 2.10  32 2.10  31 2.10  29 2.13
  62  1.000  0.750  0.650-  31 2.10  15 2.10  32 2.10  24 2.10  30 2.13
  63  0.750  0.750  0.549-  31 2.10  14 2.10  29 2.10  30 2.10  21 2.10  27 2.10
  64  0.000  0.500  0.550-  32 2.10  13 2.10  29 2.10  22 2.10  30 2.10  28 2.11


IMPORTANT INFORMATION: All symmetrisations will be switched off!
NOSYMM: (Re-)initialisation of all symmetry stuff for point group C_1.


----------------------------------------------------------------------------------------

                                     Primitive cell                                     

  volume of cell :    1504.9259

  direct lattice vectors                    reciprocal lattice vectors
     8.404861995  0.000000000  0.000000000     0.118978753  0.000000000  0.000000000
     0.000000000  8.404861995  0.000000000     0.000000000  0.118978753  0.000000000
     0.000000000  0.000000000 21.303646496     0.000000000  0.000000000  0.046940321

  length of vectors
     8.404861995  8.404861995 21.303646496     0.118978753  0.118978753  0.046940321

  position of ions in fractional coordinates (direct lattice)
     0.250000000  0.000000000  0.352052406
     0.500000000  0.250000000  0.352052406
     0.250000000  0.250000000  0.450684135
     0.500000000  0.000000000  0.450684135
     0.249928122  0.000122343  0.549902155
     0.499999898  0.250083556  0.549811164
     0.247720198  0.249811540  0.648117795
     0.499999882  0.997848412  0.647953073
     0.250000000  0.500000000  0.352052406
     0.500000000  0.750000000  0.352052406
     0.250000000  0.750000000  0.450684135
     0.500000000  0.500000000  0.450684135
     0.249882268  0.500042327  0.549923847
     0.499999958  0.750280220  0.549686806
     0.249517981  0.750393661  0.647842499
     0.499999914  0.503245398  0.647657443
     0.750000000  0.000000000  0.352052406
     0.000000000  0.250000000  0.352052406
     0.750000000  0.250000000  0.450684135
     0.000000000  0.000000000  0.450684135
     0.750071788  0.000122390  0.549902152
     0.999999973  0.250043953  0.549794184
     0.752279559  0.249811674  0.648117828
     0.999999920  0.999766564  0.647985200
     0.750000000  0.500000000  0.352052406
     0.000000000  0.750000000  0.352052406
     0.750000000  0.750000000  0.450684135
     0.000000000  0.500000000  0.450684135
     0.750117700  0.500042376  0.549923847
     0.000000020  0.750127535  0.549782934
     0.750482182  0.750393849  0.647842550
     0.999999954  0.500472181  0.647913231
     0.250000000  0.000000000  0.450684135
     0.500000000  0.250000000  0.450684135
     0.250000000  0.250000000  0.352052406
     0.500000000  0.000000000  0.352052406
     0.250132807  0.000189693  0.649387276
     0.499999972  0.250275804  0.651035172
     0.250455420  0.250170577  0.549735137
     0.499999978  0.000593894  0.549667555
     0.250000000  0.500000000  0.450684135
     0.500000000  0.750000000  0.450684135
     0.250000000  0.750000000  0.352052406
     0.500000000  0.500000000  0.352052406
     0.250224432  0.500030670  0.649715275
     0.499999798  0.750262334  0.649374510
     0.250061541  0.750003657  0.549490948
     0.499999944  0.499710114  0.549694101
     0.750000000  0.000000000  0.450684135
     0.000000000  0.250000000  0.450684135
     0.750000000  0.250000000  0.352052406
     0.000000000  0.000000000  0.352052406
     0.749867205  0.000189604  0.649387317
     0.000000056  0.250148451  0.649489171
     0.749544579  0.250170481  0.549735142
     0.000000041  0.000138678  0.549493724
     0.750000000  0.500000000  0.450684135
     0.000000000  0.750000000  0.450684135
     0.750000000  0.750000000  0.352052406
     0.000000000  0.500000000  0.352052406
     0.749775489  0.500030448  0.649715262
     0.999999850  0.750072031  0.649593709
     0.749938292  0.750003593  0.549490869
     0.000000050  0.499978261  0.549541790

  ion indices of the primitive-cell ions
   primitive index   ion index
                 1           1
                 2           2
                 3           3
                 4           4
                 5           5
                 6           6
                 7           7
                 8           8
                 9           9
                10          10
                11          11
                12          12
                13          13
                14          14
                15          15
                16          16
                17          17
                18          18
                19          19
                20          20
                21          21
                22          22
                23          23
                24          24
                25          25
                26          26
                27          27
                28          28
                29          29
                30          30
                31          31
                32          32
                33          33
                34          34
                35          35
                36          36
                37          37
                38          38
                39          39
                40          40
                41          41
                42          42
                43          43
                44          44
                45          45
                46          46
                47          47
                48          48
                49          49
                50          50
                51          51
                52          52
                53          53
                54          54
                55          55
                56          56
                57          57
                58          58
                59          59
                60          60
                61          61
                62          62
                63          63
                64          64

----------------------------------------------------------------------------------------



 KPOINTS: pymatgen v2020.8.13 with grid density = 

Automatic generation of k-mesh.
 Grid dimensions read from file:
 generate k-points for:    2    2    1

 Generating k-lattice:

  Cartesian coordinates                     Fractional coordinates (reciprocal lattice)
     0.059489377  0.000000000  0.000000000     0.500000000  0.000000000  0.000000000
     0.000000000  0.059489377  0.000000000     0.000000000  0.500000000  0.000000000
     0.000000000  0.000000000  0.046940321     0.000000000  0.000000000  1.000000000

  Length of vectors
     0.059489377  0.059489377  0.046940321

  Shift w.r.t. Gamma in fractional coordinates (k-lattice)
     0.000000000  0.000000000  0.000000000

 
 Subroutine IBZKPT returns following result:
 ===========================================
 
 Found      4 irreducible k-points:
 
 Following reciprocal coordinates:
            Coordinates               Weight
  0.000000  0.000000  0.000000      1.000000
  0.500000  0.000000  0.000000      1.000000
  0.000000  0.500000  0.000000      1.000000
  0.500000  0.500000  0.000000      1.000000
 
 Following cartesian coordinates:
            Coordinates               Weight
  0.000000  0.000000  0.000000      1.000000
  0.059489  0.000000  0.000000      1.000000
  0.000000  0.059489  0.000000      1.000000
  0.059489  0.059489  0.000000      1.000000
 


--------------------------------------------------------------------------------------------------------




 Dimension of arrays:
   k-points           NKPTS =      4   k-points in BZ     NKDIM =      4   number of bands    NBANDS=    320
   number of dos      NEDOS =    301   number of ions     NIONS =     64
   non local maximal  LDIM  =      5   non local SUM 2l+1 LMDIM =     13
   total plane-waves  NPLWV = 882000
   max r-space proj   IRMAX =      1   max aug-charges    IRDMAX=  11749
   dimension x,y,z NGX =    70 NGY =   70 NGZ =  180
   dimension x,y,z NGXF=   140 NGYF=  140 NGZF=  360
   support grid    NGXF=   140 NGYF=  140 NGZF=  360
   ions per type =              32  32
   NGX,Y,Z   is equivalent  to a cutoff of  13.85, 13.85, 14.05 a.u.
   NGXF,Y,Z  is equivalent  to a cutoff of  27.69, 27.69, 28.09 a.u.

 SYSTEM =  MgO-rocksalt                            
 POSCAR =  Mg  O                                   

--------------------------------------------------------------------------------------------------------


  energy-cutoff  :      600.00
  volume of cell :     1504.93
      direct lattice vectors                 reciprocal lattice vectors
     8.404861995  0.000000000  0.000000000     0.118978753  0.000000000  0.000000000
     0.000000000  8.404861995  0.000000000     0.000000000  0.118978753  0.000000000
     0.000000000  0.000000000 21.303646496     0.000000000  0.000000000  0.046940321

  length of vectors
     8.404861995  8.404861995 21.303646496     0.118978753  0.118978753  0.046940321



 k-points in units of 2pi/SCALE and weight: pymatgen v2020.8.13 with grid density = 
   0.00000000  0.00000000  0.00000000       0.250
   0.05948938  0.00000000  0.00000000       0.250
   0.00000000  0.05948938  0.00000000       0.250
   0.05948938  0.05948938  0.00000000       0.250

 k-points in reciprocal lattice and weights: pymatgen v2020.8.13 with grid density = 
   0.00000000  0.00000000  0.00000000       0.250
   0.50000000  0.00000000  0.00000000       0.250
   0.00000000  0.50000000  0.00000000       0.250
   0.50000000  0.50000000  0.00000000       0.250

 position of ions in fractional coordinates (direct lattice) 
   0.25000000  0.00000000  0.35205241
   0.50000000  0.25000000  0.35205241
   0.25000000  0.25000000  0.45068414
   0.50000000  0.00000000  0.45068414
   0.24992812  0.00012234  0.54990215
   0.49999990  0.25008356  0.54981116
   0.24772020  0.24981154  0.64811779
   0.49999988  0.99784841  0.64795307
   0.25000000  0.50000000  0.35205241
   0.50000000  0.75000000  0.35205241
   0.25000000  0.75000000  0.45068414
   0.50000000  0.50000000  0.45068414
   0.24988227  0.50004233  0.54992385
   0.49999996  0.75028022  0.54968681
   0.24951798  0.75039366  0.64784250
   0.49999991  0.50324540  0.64765744
   0.75000000  0.00000000  0.35205241
   0.00000000  0.25000000  0.35205241
   0.75000000  0.25000000  0.45068414
   0.00000000  0.00000000  0.45068414
   0.75007179  0.00012239  0.54990215
   0.99999997  0.25004395  0.54979418
   0.75227956  0.24981167  0.64811783
   0.99999992  0.99976656  0.64798520
   0.75000000  0.50000000  0.35205241
   0.00000000  0.75000000  0.35205241
   0.75000000  0.75000000  0.45068414
   0.00000000  0.50000000  0.45068414
   0.75011770  0.50004238  0.54992385
   0.00000002  0.75012754  0.54978293
   0.75048218  0.75039385  0.64784255
   0.99999995  0.50047218  0.64791323
   0.25000000  0.00000000  0.45068414
   0.50000000  0.25000000  0.45068414
   0.25000000  0.25000000  0.35205241
   0.50000000  0.00000000  0.35205241
   0.25013281  0.00018969  0.64938728
   0.49999997  0.25027580  0.65103517
   0.25045542  0.25017058  0.54973514
   0.49999998  0.00059389  0.54966756
   0.25000000  0.50000000  0.45068414
   0.50000000  0.75000000  0.45068414
   0.25000000  0.75000000  0.35205241
   0.50000000  0.50000000  0.35205241
   0.25022443  0.50003067  0.64971527
   0.49999980  0.75026233  0.64937451
   0.25006154  0.75000366  0.54949095
   0.49999994  0.49971011  0.54969410
   0.75000000  0.00000000  0.45068414
   0.00000000  0.25000000  0.45068414
   0.75000000  0.25000000  0.35205241
   0.00000000  0.00000000  0.35205241
   0.74986720  0.00018960  0.64938732
   0.00000006  0.25014845  0.64948917
   0.74954458  0.25017048  0.54973514
   0.00000004  0.00013868  0.54949372
   0.75000000  0.50000000  0.45068414
   0.00000000  0.75000000  0.45068414
   0.75000000  0.75000000  0.35205241
   0.00000000  0.50000000  0.35205241
   0.74977549  0.50003045  0.64971526
   0.99999985  0.75007203  0.64959371
   0.74993829  0.75000359  0.54949087
   0.00000005  0.49997826  0.54954179

 position of ions in cartesian coordinates  (Angst):
   2.10121550  0.00000000  7.50000000
   4.20243100  2.10121550  7.50000000
   2.10121550  2.10121550  9.60121550
   4.20243100  0.00000000  9.60121550
   2.10061137  0.00102828 11.71492112
   4.20243014  2.10191778 11.71298268
   2.08205408  2.09963152 13.80727239
   4.20243001  8.38677820 13.80376322
   2.10121550  4.20243100  7.50000000
   4.20243100  6.30364650  7.50000000
   2.10121550  6.30364650  9.60121550
   4.20243100  4.20243100  9.60121550
   2.10022598  4.20278675 11.71538323
   4.20243064  6.30600171 11.71033341
   2.09716420  6.30695517 13.80140759
   4.20243028  4.22970812 13.79746521
   6.30364650  0.00000000  7.50000000
   0.00000000  2.10121550  7.50000000
   6.30364650  2.10121550  9.60121550
   0.00000000  0.00000000  9.60121550
   6.30424986  0.00102867 11.71492106
   8.40486177  2.10158492 11.71262094
   6.32280588  2.09963265 13.80727310
   8.40486133  8.40290000 13.80444764
   6.30364650  4.20243100  7.50000000
   0.00000000  6.30364650  7.50000000
   6.30364650  6.30364650  9.60121550
   0.00000000  4.20243100  9.60121550
   6.30463575  4.20278716 11.71538324
   0.00000017  6.30471841 11.71238127
   6.30769917  6.30695674 13.80140867
   8.40486161  4.20639962 13.80291444
   2.10121550  0.00000000  9.60121550
   4.20243100  2.10121550  9.60121550
   2.10121550  2.10121550  7.50000000
   4.20243100  0.00000000  7.50000000
   2.10233172  0.00159434 13.83431696
   4.20243076  2.10353359 13.86942317
   2.10504324  2.10264918 11.71136303
   4.20243081  0.00499160 11.70992329
   2.10121550  4.20243100  9.60121550
   4.20243100  6.30364650  9.60121550
   2.10121550  6.30364650  7.50000000
   4.20243100  4.20243100  7.50000000
   2.10310181  4.20268877 13.84130453
   4.20242930  6.30585138 13.83404500
   2.10173275  6.30367723 11.70616092
   4.20243052  4.19999455 11.71048882
   6.30364650  0.00000000  9.60121550
   0.00000000  2.10121550  9.60121550
   6.30364650  2.10121550  7.50000000
   0.00000000  0.00000000  7.50000000
   6.30253037  0.00159360 13.83431784
   0.00000047  2.10246321 13.83648770
   6.29981875  2.10264837 11.71136313
   0.00000034  0.00116557 11.70622004
   6.30364650  4.20243100  9.60121550
   0.00000000  6.30364650  9.60121550
   6.30364650  6.30364650  7.50000000
   0.00000000  4.20243100  7.50000000
   6.30175951  4.20268691 13.84130426
   8.40486074  6.30425191 13.83871474
   6.30312785  6.30367670 11.70615922
   0.00000042  4.20224828 11.70724403



--------------------------------------------------------------------------------------------------------

--------------------------------------- Iteration      FINAL  ---------------------------------------


--------------------OUTCAR has been truncated-------------------------


--------------------OUTCAR has been truncated-------------------------


--------------------OUTCAR has been truncated-------------------------


--------------------OUTCAR has been truncated-------------------------


--------------------OUTCAR has been truncated-------------------------


--------------------OUTCAR has been truncated-------------------------


--------------------OUTCAR has been truncated-------------------------


--------------------OUTCAR has been truncated-------------------------


--------------------OUTCAR has been truncated-------------------------


--------------------OUTCAR has been truncated-------------------------



  FORCE on cell =-STRESS in cart. coord.  units (eV):
  Direction    XX          YY          ZZ          XY          YZ          ZX
  --------------------------------------------------------------------------------------
  Alpha Z   883.92154   883.92154   883.92154
  Ewald  163377.96728163377.99355************    -0.00004     0.66984    -0.00018
  Hartree173438.59989173438.58787************    -0.00002     0.41004    -0.00010
  E(xc)   -2467.09167 -2467.09149 -2475.38526    -0.00000     0.00239    -0.00000
  Local  ************************347194.22664     0.00006    -1.09583     0.00028
  n-local -2794.39881 -2794.39599 -2815.13094    -0.00000     0.02156    -0.00000
  augment  1046.42175  1046.42230  1036.86196    -0.00000     0.00684    -0.00000
  Kinetic  7318.30043  7318.30654  7357.18479     0.00000    -0.10720     0.00003
  Fock        0.00000     0.00000     0.00000     0.00000     0.00000     0.00000
  vdW       -21.95453   -21.95454   -16.49699     0.00000    -0.00087     0.00000
  -------------------------------------------------------------------------------------
  Total     -18.35021   -18.33736     5.74731    -0.00000    -0.09323     0.00003
  in kB     -19.53603   -19.52236     6.11872    -0.00000    -0.09925     0.00003
  external pressure =      -10.98 kB  Pullay stress =        0.00 kB


 VOLUME and BASIS-vectors are now :
 -----------------------------------------------------------------------------
  energy-cutoff  :      600.00
  volume of cell :     1504.93
      direct lattice vectors                 reciprocal lattice vectors
     8.404861995  0.000000000  0.000000000     0.118978753  0.000000000  0.000000000
     0.000000000  8.404861995  0.000000000     0.000000000  0.118978753  0.000000000
     0.000000000  0.000000000 21.303646496     0.000000000  0.000000000  0.046940321

  length of vectors
     8.404861995  8.404861995 21.303646496     0.118978753  0.118978753  0.046940321


 FORCES acting on ions:
    Electron-Ion                     Ewald-Force                    Non-Local-Force
 -----------------------------------------------------------------------------------------------
   -.630E-01 -.107E+00 0.209E+04   0.640E-01 0.109E+00 -.208E+04   -.676E-03 -.165E-02 -.719E+01
   -.110E-04 -.252E-01 0.209E+04   0.134E-04 0.259E-01 -.208E+04   0.180E-05 -.543E-03 -.720E+01
   -.245E+00 -.751E-01 0.691E+03   0.278E+00 0.842E-01 -.692E+03   -.242E-01 -.655E-02 0.496E+00
   -.317E-04 -.451E+00 0.692E+03   0.322E-04 0.499E+00 -.692E+03   -.501E-06 -.344E-01 0.481E+00
   -.104E+01 -.126E+01 -.696E+03   0.111E+01 0.136E+01 0.696E+03   -.415E-01 -.693E-01 -.420E+00
   -.394E-03 -.399E+00 -.704E+03   0.388E-03 0.387E+00 0.704E+03   0.173E-04 0.162E-01 -.264E+00
   -.898E+01 -.111E+01 -.208E+04   0.937E+01 0.115E+01 0.207E+04   -.473E-01 0.256E-02 0.634E+01
   -.519E-03 -.921E+01 -.208E+04   0.488E-03 0.954E+01 0.207E+04   0.389E-04 0.974E-02 0.636E+01
   -.649E-01 0.107E+00 0.209E+04   0.657E-01 -.109E+00 -.208E+04   -.532E-03 0.138E-02 -.719E+01
   0.324E-06 0.275E-01 0.209E+04   0.435E-05 -.273E-01 -.208E+04   0.223E-05 -.139E-03 -.717E+01
   -.138E+00 0.105E+00 0.693E+03   0.128E+00 -.108E+00 -.693E+03   0.793E-02 0.255E-02 0.460E+00
   -.676E-04 0.455E+00 0.691E+03   0.690E-04 -.488E+00 -.692E+03   0.181E-06 0.247E-01 0.489E+00
   -.103E+01 0.127E+01 -.698E+03   0.109E+01 -.136E+01 0.698E+03   -.315E-01 0.724E-01 -.373E+00
   -.188E-03 0.272E+00 -.693E+03   0.204E-03 -.257E+00 0.693E+03   -.110E-04 -.214E-01 -.229E+00
   -.253E+00 0.860E+00 -.208E+04   0.762E-01 -.881E+00 0.207E+04   0.176E+00 -.101E-01 0.644E+01
   -.387E-03 0.107E+02 -.208E+04   0.374E-03 -.110E+02 0.207E+04   0.143E-04 -.106E+00 0.627E+01
   0.630E-01 -.107E+00 0.209E+04   -.640E-01 0.109E+00 -.208E+04   0.684E-03 -.165E-02 -.719E+01
   0.766E-05 -.238E-01 0.209E+04   -.126E-04 0.244E-01 -.208E+04   0.120E-05 -.468E-03 -.718E+01
   0.245E+00 -.752E-01 0.691E+03   -.278E+00 0.843E-01 -.692E+03   0.242E-01 -.655E-02 0.496E+00
   0.675E-04 -.342E+00 0.693E+03   -.704E-04 0.343E+00 -.693E+03   -.679E-06 -.361E-03 0.462E+00
   0.104E+01 -.126E+01 -.696E+03   -.111E+01 0.136E+01 0.696E+03   0.415E-01 -.693E-01 -.420E+00
   0.186E-03 -.233E+00 -.694E+03   -.195E-03 0.239E+00 0.694E+03   0.834E-05 -.266E-02 -.244E+00
   0.898E+01 -.111E+01 -.208E+04   -.937E+01 0.115E+01 0.207E+04   0.474E-01 0.249E-02 0.634E+01
   -.130E-03 -.191E+00 -.208E+04   0.120E-03 0.288E-01 0.207E+04   0.143E-04 0.151E+00 0.648E+01
   0.649E-01 0.107E+00 0.209E+04   -.657E-01 -.109E+00 -.208E+04   0.526E-03 0.138E-02 -.719E+01
   0.414E-05 0.250E-01 0.209E+04   -.626E-05 -.254E-01 -.208E+04   -.235E-05 0.237E-03 -.718E+01
   0.138E+00 0.105E+00 0.693E+03   -.128E+00 -.108E+00 -.693E+03   -.793E-02 0.255E-02 0.460E+00
   0.739E-04 0.332E+00 0.692E+03   -.749E-04 -.328E+00 -.693E+03   -.156E-05 -.305E-02 0.478E+00
   0.103E+01 0.127E+01 -.698E+03   -.109E+01 -.136E+01 0.698E+03   0.315E-01 0.724E-01 -.373E+00
   0.414E-03 0.368E+00 -.695E+03   -.399E-03 -.364E+00 0.696E+03   -.200E-04 -.942E-02 -.228E+00
   0.255E+00 0.861E+00 -.208E+04   -.776E-01 -.882E+00 0.207E+04   -.176E+00 -.102E-01 0.644E+01
   0.134E-03 0.251E+00 -.208E+04   -.129E-03 -.879E-01 0.207E+04   -.699E-05 -.155E+00 0.642E+01
   -.255E+00 -.376E+00 0.519E+03   0.260E+00 0.373E+00 -.518E+03   -.496E-02 0.362E-02 -.103E+00
   -.792E-04 -.887E-01 0.518E+03   0.818E-04 0.823E-01 -.518E+03   -.566E-05 0.903E-02 -.120E+00
   -.500E-01 -.179E-01 0.157E+04   0.539E-01 0.185E-01 -.157E+04   -.550E-02 -.795E-03 0.340E+01
   -.796E-05 -.840E-01 0.157E+04   0.596E-05 0.888E-01 -.157E+04   0.254E-05 -.674E-02 0.340E+01
   -.140E+01 -.143E+01 -.157E+04   0.163E+01 0.165E+01 0.158E+04   -.314E+00 -.288E+00 -.461E+01
   0.865E-04 -.103E+01 -.158E+04   -.103E-03 0.119E+01 0.159E+04   0.965E-05 -.184E+00 -.509E+01
   -.172E+01 -.238E+00 -.520E+03   0.186E+01 0.245E+00 0.519E+03   -.209E+00 -.155E-01 0.157E+00
   -.130E-03 -.205E+01 -.519E+03   0.129E-03 0.220E+01 0.518E+03   -.188E-06 -.221E+00 0.187E+00
   -.271E+00 0.381E+00 0.518E+03   0.277E+00 -.386E+00 -.518E+03   -.793E-02 0.632E-02 -.113E+00
   0.673E-05 0.134E+00 0.519E+03   -.207E-05 -.147E+00 -.519E+03   -.963E-05 0.165E-01 -.323E-01
   -.380E-01 0.183E-01 0.157E+04   0.370E-01 -.190E-01 -.157E+04   0.140E-02 0.108E-02 0.340E+01
   -.120E-04 0.824E-01 0.157E+04   0.784E-05 -.878E-01 -.157E+04   -.307E-06 0.768E-02 0.340E+01
   -.128E+01 0.170E+01 -.158E+04   0.151E+01 -.196E+01 0.158E+04   -.323E+00 0.340E+00 -.478E+01
   -.818E-03 -.358E+00 -.157E+04   0.849E-03 0.389E+00 0.158E+04   -.127E-04 -.849E-02 -.461E+01
   -.371E-01 0.244E+00 -.516E+03   0.533E-01 -.252E+00 0.516E+03   -.249E-01 0.154E-01 0.317E+00
   -.249E-03 0.212E+01 -.518E+03   0.256E-03 -.225E+01 0.518E+03   -.611E-05 0.210E+00 0.264E+00
   0.255E+00 -.376E+00 0.519E+03   -.260E+00 0.373E+00 -.518E+03   0.496E-02 0.362E-02 -.103E+00
   0.430E-04 -.781E-01 0.519E+03   -.423E-04 0.753E-01 -.519E+03   -.655E-06 0.405E-02 -.544E-01
   0.500E-01 -.179E-01 0.157E+04   -.539E-01 0.185E-01 -.157E+04   0.551E-02 -.795E-03 0.340E+01
   0.980E-05 -.715E-01 0.157E+04   -.690E-05 0.717E-01 -.157E+04   0.631E-06 -.208E-03 0.340E+01
   0.140E+01 -.143E+01 -.157E+04   -.163E+01 0.165E+01 0.158E+04   0.314E+00 -.288E+00 -.461E+01
   0.418E-03 -.343E+00 -.157E+04   -.443E-03 0.398E+00 0.158E+04   0.151E-04 -.734E-01 -.455E+01
   0.172E+01 -.238E+00 -.520E+03   -.186E+01 0.245E+00 0.519E+03   0.209E+00 -.155E-01 0.157E+00
   0.276E-03 -.289E+00 -.516E+03   -.283E-03 0.296E+00 0.516E+03   -.907E-06 -.125E-01 0.295E+00
   0.271E+00 0.381E+00 0.518E+03   -.277E+00 -.387E+00 -.518E+03   0.792E-02 0.632E-02 -.113E+00
   0.321E-04 0.108E+00 0.519E+03   -.325E-04 -.113E+00 -.519E+03   0.328E-05 0.512E-02 -.630E-01
   0.380E-01 0.183E-01 0.157E+04   -.370E-01 -.190E-01 -.157E+04   -.140E-02 0.107E-02 0.340E+01
   0.882E-05 0.707E-01 0.157E+04   -.806E-05 -.710E-01 -.157E+04   -.116E-05 0.487E-03 0.340E+01
   0.128E+01 0.170E+01 -.158E+04   -.151E+01 -.196E+01 0.158E+04   0.323E+00 0.340E+00 -.478E+01
   -.364E-03 0.275E+00 -.158E+04   0.411E-03 -.322E+00 0.158E+04   -.350E-04 0.664E-01 -.467E+01
   0.369E-01 0.244E+00 -.516E+03   -.531E-01 -.252E+00 0.516E+03   0.249E-01 0.154E-01 0.317E+00
   0.253E-03 0.178E+00 -.517E+03   -.254E-03 -.179E+00 0.517E+03   -.641E-05 0.978E-02 0.312E+00
 -----------------------------------------------------------------------------------------------
   -.401E-04 0.204E+00 0.143E+02   -.525E-13 -.580E-13 -.750E-11   0.412E-04 -.202E+00 -.143E+02


 POSITION                                       TOTAL-FORCE (eV/Angst)
 -----------------------------------------------------------------------------------
      2.10122      0.00000      7.50000         0.000267      0.000569      0.277063
      4.20243      2.10122      7.50000         0.000004      0.000147      0.279538
      2.10122      2.10122      9.60122         0.008305      0.002471      0.083454
      4.20243      0.00000      9.60122        -0.000000      0.013366      0.078274
      2.10061      0.00103     11.71492         0.026214      0.024386     -0.055479
      4.20243      2.10192     11.71298         0.000011      0.004359      0.157233
      2.08205      2.09963     13.80727         0.337100      0.042918      0.041771
      4.20243      8.38678     13.80376         0.000007      0.327036      0.048876
      2.10122      4.20243      7.50000         0.000218     -0.000559      0.277675
      4.20243      6.30365      7.50000         0.000007     -0.000016      0.273768
      2.10122      6.30365      9.60122        -0.002933     -0.000855      0.062870
      4.20243      4.20243      9.60122         0.000002     -0.007884      0.082807
      2.10023      4.20279     11.71538         0.027585     -0.024203     -0.036308
      4.20243      6.30600     11.71033         0.000005     -0.006001     -0.067488
      2.09716      6.30696     13.80141        -0.002069     -0.030277      0.020210
      4.20243      4.22971     13.79747         0.000002     -0.385581      0.118777
      6.30365      0.00000      7.50000        -0.000262      0.000568      0.277066
      0.00000      2.10122      7.50000        -0.000004      0.000134      0.274641
      6.30365      2.10122      9.60122        -0.008308      0.002472      0.083454
      0.00000      0.00000      9.60122        -0.000004      0.000495      0.061681
      6.30425      0.00103     11.71492        -0.026208      0.024378     -0.055478
      8.40486      2.10158     11.71262        -0.000000      0.002764     -0.070708
      6.32281      2.09963     13.80727        -0.337084      0.042907      0.041748
      8.40486      8.40290     13.80445         0.000004     -0.011205     -0.010689
      6.30365      4.20243      7.50000        -0.000224     -0.000566      0.277671
      0.00000      6.30365      7.50000        -0.000004     -0.000128      0.276048
      6.30365      6.30365      9.60122         0.002930     -0.000855      0.062869
      0.00000      4.20243      9.60122        -0.000003      0.001301      0.064589
      6.30464      4.20279     11.71538        -0.027586     -0.024208     -0.036310
      0.00000      6.30472     11.71238        -0.000004     -0.005270     -0.057012
      6.30770      6.30696     13.80141         0.002045     -0.030290      0.020182
      8.40486      4.20640     13.80291        -0.000002      0.008977      0.024524
      2.10122      0.00000      9.60122        -0.000707      0.001167      0.071363
      4.20243      2.10122      9.60122        -0.000003      0.002584      0.056052
      2.10122      2.10122      7.50000        -0.001597     -0.000260     -0.558303
      4.20243      0.00000      7.50000         0.000001     -0.001979     -0.557876
      2.10233      0.00159     13.83432        -0.083338     -0.075138      0.207447
      4.20243      2.10353     13.86942        -0.000007     -0.023707     -0.021319
      2.10504      2.10265     11.71136        -0.077737     -0.008292     -0.057921
      4.20243      0.00499     11.70992        -0.000002     -0.077473     -0.054966
      2.10122      4.20243      9.60122        -0.001335      0.001247      0.070790
      4.20243      6.30365      9.60122        -0.000005      0.003508      0.069505
      2.10122      6.30365      7.50000         0.000416      0.000289     -0.557069
      4.20243      4.20243      7.50000        -0.000004      0.002206     -0.558074
      2.10310      4.20269     13.84130        -0.091096      0.083778      0.149679
      4.20243      6.30585     13.83405         0.000018      0.021721      0.196024
      2.10173      6.30368     11.70616        -0.008548      0.007134     -0.000392
      4.20243      4.19999     11.71049         0.000001      0.076402     -0.070472
      6.30365      0.00000      9.60122         0.000706      0.001163      0.071364
      0.00000      2.10122      9.60122         0.000000      0.001164      0.074804
      6.30365      2.10122      7.50000         0.001594     -0.000265     -0.558302
      0.00000      0.00000      7.50000         0.000004     -0.000084     -0.557272
      6.30253      0.00159     13.83432         0.083327     -0.075127      0.207443
      0.00000      2.10246     13.83649        -0.000010     -0.018969      0.206471
      6.29982      2.10265     11.71136         0.077735     -0.008283     -0.057915
      0.00000      0.00117     11.70622        -0.000007     -0.005637      0.007110
      6.30365      4.20243      9.60122         0.001331      0.001245      0.070791
      0.00000      6.30365      9.60122         0.000003      0.000827      0.069562
      6.30365      6.30365      7.50000        -0.000412      0.000288     -0.557069
      0.00000      4.20243      7.50000        -0.000000      0.000109     -0.557539
      6.30176      4.20269     13.84130         0.091094      0.083806      0.149683
      8.40486      6.30425     13.83871         0.000012      0.018886      0.173196
      6.30313      6.30368     11.70616         0.008567      0.007141     -0.000368
      0.00000      4.20225     11.70724        -0.000007      0.009199     -0.003742
 -----------------------------------------------------------------------------------
    total drift:                                0.000001      0.002067      0.005826


--------------------------------------------------------------------------------------------------------



  FREE ENERGIE OF THE ION-ELECTRON SYSTEM (eV)
  ---------------------------------------------------
  free  energy   TOTEN  =      -371.38255979 eV

  energy  without entropy=     -371.38255979  energy(sigma->0) =     -371.38255979



--------------------------------------------------------------------------------------------------------


    POTLOK:  cpu time      0.3587: real time      0.3587


--------------------------------------------------------------------------------------------------------


     LOOP+:  cpu time     69.4290: real time     69.5869
    4ORBIT:  cpu time      0.0000: real time      0.0000

 total amount of memory used by VASP MPI-rank0    60329. kBytes
=======================================================================

   base      :      30000. kBytes
   nonl-proj :      11759. kBytes
   fftplans  :       4923. kBytes
   grid      :       7379. kBytes
   one-center:         64. kBytes
   wavefun   :       6204. kBytes

  
  
 General timing and accounting informations for this job:
 ========================================================
  
                  Total CPU time used (sec):      102.346
                            User time (sec):      100.879
                          System time (sec):        1.468
                         Elapsed time (sec):      112.032
  
                   Maximum memory used (kb):      160904.
                   Average memory used (kb):          N/A
  
                          Minor page faults:        33673
                          Major page faults:            0
                 Voluntary context switches:        12239
