 vasp.6.3.0 20Jan22 (build Apr  1 2022 16:44:48) complex                         
 executed on        HPECrayEX_GCC date 2023.04.06  22:14:31
 running  768 mpi-ranks, with    1 threads/rank
 distrk:  each k-point on  768 cores,    1 groups
 distr:  one band on NCORE=   8 cores,   96 groups


--------------------------------------------------------------------------------------------------------


 INCAR:
   SYSTEM = MgO-rocksalt
   ISMEAR = 0
   SIGMA = 0.05
   EDIFF = 1E-7
   ALGO = ALL
   ISTART = 0
   IBRION = 2
   NSW = 1000
   ISYM = 0
   ISIF = 2
   EDIFFG = -0.01
   DIPOL = 0.5 0.5 0.5
   IDIPOL = 3
   LDIPOL = .TRUE.
   GGA = RE
   IVDW = 13
   VDW_S8 = 1.7468
   VDW_A1 = 0.5363
   VDW_A2 = 3.0726
   ENCUT = 600
   PREC = Accurate
   LASPH = .TRUE.
   LREAL = .FALSE.
   ISPIN = 1
   NELM = 200
   NELMIN = 8
   NCORE = 8
   KPAR = 1
   LWAVE = .FALSE.
   LCHARG = .FALSE.

 POTCAR:    PAW_PBE Ti_pv 07Sep2000               
 POTCAR:    PAW_PBE O 08Apr2002                   
 POTCAR:    PAW_PBE Ti_pv 07Sep2000               
   SHA256 =  f757a1b2c6d082f4c628fa3d987464a8763bf92e53844ac0500b0e2ddc9ce5c0 Ti_pv/POTCAR          
   COPYR  = (c) Copyright 07Sep2000 Georg Kresse                                                    
   COPYR  = This file is part of the software VASP. Any use, copying, and all other rights are regul
   COPYR  = If you do not have a valid VASP license, you may not use, copy or distribute this file. 
   VRHFIN =Ti: d3 s1                                                                                
   LEXCH  = PE                                                                                      
   EATOM  =  1042.5995 eV,   76.6289 Ry                                                             
                                                                                                    
   TITEL  = PAW_PBE Ti_pv 07Sep2000                                                                 
   LULTRA =        F    use ultrasoft PP ?                                                          
   IUNSCR =        1    unscreen: 0-lin 1-nonlin 2-no                                               
   RPACOR =    2.200    partial core radius                                                         
   POMASS =   47.880; ZVAL   =   10.000    mass and valenz                                          
   RCORE  =    2.500    outmost cutoff radius                                                       
   RWIGS  =    2.500; RWIGS  =    1.323    wigner-seitz radius (au A)                               
   ENMAX  =  222.335; ENMIN  =  166.751 eV                                                          
   RCLOC  =    1.701    cutoff for local pot                                                        
   LCOR   =        T    correct aug charges                                                         
   LPAW   =        T    paw PP                                                                      
   EAUG   =  482.848                                                                                
   DEXC   =    0.000                                                                                
   RMAX   =    2.564    core radius for proj-oper                                                   
   RAUG   =    1.300    factor for augmentation sphere                                              
   RDEP   =    2.538    radius for radial grids                                                     
   RDEPT  =    1.952    core radius for aug-charge                                                  
                                                                                                    
   Atomic configuration                                                                             
    8 entries                                                                                       
     n  l   j            E        occ.                                                              
     1  0  0.50     -4865.3608   2.0000                                                             
     2  0  0.50      -533.1368   2.0000                                                             
     2  1  1.50      -440.5031   6.0000                                                             
     3  0  0.50       -59.3186   2.0000                                                             
     3  1  1.50       -35.7012   6.0000                                                             
     3  2  2.50        -1.9157   3.0000                                                             
     4  0  0.50        -3.7291   1.0000                                                             
     4  3  2.50        -1.3606   0.0000                                                             
   Description                                                                                      
     l       E           TYP  RCUT    TYP  RCUT                                                     
     1    -35.7012140     23  2.300                                                                 
     1     -1.3605826     23  2.300                                                                 
     2     -1.9156996     23  2.500                                                                 
     2     -0.4063033     23  2.500                                                                 
     0     -3.7290856     23  2.500                                                                 
     0     20.4087390     23  2.500                                                                 
  local pseudopotential read in
  partial core-charges read in
  partial kinetic energy density read in
  atomic valenz-charges read in
  non local Contribution for L=           1  read in
    real space projection operators read in
  non local Contribution for L=           1  read in
    real space projection operators read in
  non local Contribution for L=           2  read in
    real space projection operators read in
  non local Contribution for L=           2  read in
    real space projection operators read in
  non local Contribution for L=           0  read in
    real space projection operators read in
  non local Contribution for L=           0  read in
    real space projection operators read in
    PAW grid and wavefunctions read in

   number of l-projection  operators is LMAX  =           6
   number of lm-projection operators is LMMAX =          18

 POTCAR:    PAW_PBE O 08Apr2002                   
   SHA256 =  818f92134a0a090dccd8ba1447fa70422a3b330e708bb4f08108d8ae51209ddf O/POTCAR              
   COPYR  = (c) Copyright 08Apr2002 Georg Kresse                                                    
   COPYR  = This file is part of the software VASP. Any use, copying, and all other rights are regul
   COPYR  = If you do not have a valid VASP license, you may not use, copy or distribute this file. 
   VRHFIN =O: s2p4                                                                                  
   LEXCH  = PE                                                                                      
   EATOM  =   432.3788 eV,   31.7789 Ry                                                             
                                                                                                    
   TITEL  = PAW_PBE O 08Apr2002                                                                     
   LULTRA =        F    use ultrasoft PP ?                                                          
   IUNSCR =        1    unscreen: 0-lin 1-nonlin 2-no                                               
   RPACOR =    1.200    partial core radius                                                         
   POMASS =   16.000; ZVAL   =    6.000    mass and valenz                                          
   RCORE  =    1.520    outmost cutoff radius                                                       
   RWIGS  =    1.550; RWIGS  =    0.820    wigner-seitz radius (au A)                               
   ENMAX  =  400.000; ENMIN  =  300.000 eV                                                          
   ICORE  =        2    local potential                                                             
   LCOR   =        T    correct aug charges                                                         
   LPAW   =        T    paw PP                                                                      
   EAUG   =  605.392                                                                                
   DEXC   =    0.000                                                                                
   RMAX   =    1.553    core radius for proj-oper                                                   
   RAUG   =    1.300    factor for augmentation sphere                                              
   RDEP   =    1.550    radius for radial grids                                                     
   RDEPT  =    1.329    core radius for aug-charge                                                  
                                                                                                    
   Atomic configuration                                                                             
    4 entries                                                                                       
     n  l   j            E        occ.                                                              
     1  0  0.50      -514.6923   2.0000                                                             
     2  0  0.50       -23.9615   2.0000                                                             
     2  1  0.50        -9.0305   4.0000                                                             
     3  2  1.50        -9.5241   0.0000                                                             
   Description                                                                                      
     l       E           TYP  RCUT    TYP  RCUT                                                     
     0    -23.9615318     23  1.200                                                                 
     0     -9.5240782     23  1.200                                                                 
     1     -9.0304911     23  1.520                                                                 
     1      8.1634956     23  1.520                                                                 
     2     -9.5240782      7  1.500                                                                 
  local pseudopotential read in
  partial core-charges read in
  partial kinetic energy density read in
  kinetic energy density of atom read in
  atomic valenz-charges read in
  non local Contribution for L=           0  read in
    real space projection operators read in
  non local Contribution for L=           0  read in
    real space projection operators read in
  non local Contribution for L=           1  read in
    real space projection operators read in
  non local Contribution for L=           1  read in
    real space projection operators read in
    PAW grid and wavefunctions read in

   number of l-projection  operators is LMAX  =           4
   number of lm-projection operators is LMMAX =           8

 -----------------------------------------------------------------------------
|                                                                             |
|               ----> ADVICE to this user running VASP <----                  |
|                                                                             |
|     You have a (more or less) 'large supercell' and for larger cells it     |
|     might be more efficient to use real-space projection operators.         |
|     Therefore, try LREAL= Auto in the INCAR file.                           |
|     Mind: For very accurate calculation, you might also keep the            |
|     reciprocal projection scheme (i.e. LREAL=.FALSE.).                      |
|                                                                             |
 -----------------------------------------------------------------------------

 -----------------------------------------------------------------------------
|                                                                             |
|               ----> ADVICE to this user running VASP <----                  |
|                                                                             |
|     You enforced a specific xc type in the INCAR file but a different       |
|     type was found in the POTCAR file.                                      |
|     I HOPE YOU KNOW WHAT YOU ARE DOING!                                     |
|                                                                             |
 -----------------------------------------------------------------------------

  PAW_PBE Ti_pv 07Sep2000               :
 energy of atom  1       EATOM=-1042.5995
 kinetic energy error for atom=    0.0007 (will be added to EATOM!!)
  PAW_PBE O 08Apr2002                   :
 energy of atom  2       EATOM= -432.3788
 kinetic energy error for atom=    0.0168 (will be added to EATOM!!)


 POSCAR: Ti  O
  positions in direct lattice
  No initial velocities read in
 -----------------------------------------------------------------------------
|                                                                             |
|           W    W    AA    RRRRR   N    N  II  N    N   GGGG   !!!           |
|           W    W   A  A   R    R  NN   N  II  NN   N  G    G  !!!           |
|           W    W  A    A  R    R  N N  N  II  N N  N  G       !!!           |
|           W WW W  AAAAAA  RRRRR   N  N N  II  N  N N  G  GGG   !            |
|           WW  WW  A    A  R   R   N   NN  II  N   NN  G    G                |
|           W    W  A    A  R    R  N    N  II  N    N   GGGG   !!!           |
|                                                                             |
|     Specifying the vdW parameters                                           |
|     VDW_S8 = 1.747                                                          |
|     VDW_A1 = 0.536                                                          |
|     VDW_A2 = 3.073                                                          |
|     in the INCAR file will overwrite the defaults for revpbe. Please        |
|     make sure that is what you intended.                                    |
|                                                                             |
 -----------------------------------------------------------------------------

 exchange correlation table for  LEXCH =       40
   RHO(1)=    0.500       N(1)  =     2000
   RHO(2)=  100.500       N(2)  =     4000



--------------------------------------------------------------------------------------------------------


 ion  position               nearest neighbor table
   1  0.750  0.625  0.287-  82 1.95 142 1.95 141 1.95  81 1.95  84 1.98 163 1.98  11 2.96  31 2.96

   2  0.000  0.750  0.287-  83 1.95  84 1.95 103 1.95 104 1.95  85 1.98  32 2.96  12 2.96
   3  0.000  0.625  0.394-  85 1.95 145 1.95  86 1.95 146 1.95  87 1.98  88 1.98  13 2.96  33 2.96

   4  0.750  0.750  0.394-  87 1.95 107 1.95 168 1.95 188 1.95  89 1.98  82 1.98  14 2.96  34 2.96

   5  0.750  0.625  0.500-  89 1.95  90 1.95 149 1.95 150 1.95  92 1.98 171 1.98  15 2.96  35 2.96

   6  0.000  0.750  0.500-  91 1.95  92 1.95 111 1.95 112 1.95  86 1.98  93 1.98  16 2.96  36 2.96

   7  0.000  0.625  0.606-  94 1.95 154 1.95 153 1.95  93 1.95  95 1.98  96 1.98  17 2.96  37 2.96

   8  0.750  0.750  0.606-  95 1.95 115 1.95 176 1.95 196 1.95  97 1.98  90 1.98  18 2.96  38 2.96

   9  0.750  0.625  0.713-  97 1.95 157 1.95  98 1.95 158 1.95 100 1.98 179 1.98  19 2.96  39 2.96

  10  0.000  0.750  0.713-  99 1.95 100 1.95 119 1.95 120 1.95  94 1.98  40 2.96  20 2.96
  11  0.750  0.875  0.287-  82 1.95 102 1.95 101 1.95  81 1.95 104 1.98 183 1.98   1 2.96  21 2.96

  12  0.000  0.000  0.287- 103 1.95 104 1.95 123 1.95 124 1.95 105 1.98  22 2.96   2 2.96
  13  0.000  0.875  0.394-  85 1.95 105 1.95  86 1.95 106 1.95 107 1.98 108 1.98   3 2.96  23 2.96

  14  0.750  0.000  0.394- 107 1.95 127 1.95 188 1.95 208 1.95 109 1.98 102 1.98   4 2.96  24 2.96

  15  0.750  0.875  0.500-  89 1.95  90 1.95 109 1.95 110 1.95 112 1.98 191 1.98   5 2.96  25 2.96

  16  0.000  0.000  0.500- 111 1.95 112 1.95 131 1.95 132 1.95 106 1.98 113 1.98   6 2.96  26 2.96

  17  0.000  0.875  0.606-  94 1.95 114 1.95 113 1.95  93 1.95 115 1.98 116 1.98   7 2.96  27 2.96

  18  0.750  0.000  0.606- 115 1.95 135 1.95 196 1.95 216 1.95 117 1.98 110 1.98   8 2.96  28 2.96

  19  0.750  0.875  0.713-  97 1.95 117 1.95  98 1.95 118 1.95 120 1.98 199 1.98   9 2.96  29 2.96

  20  0.000  0.000  0.713- 119 1.95 120 1.95 139 1.95 140 1.95 114 1.98  30 2.96  10 2.96
  21  0.750  0.125  0.287- 102 1.95 122 1.95 121 1.95 101 1.95 124 1.98 203 1.98  11 2.96  31 2.96

  22  0.000  0.250  0.287- 123 1.95 124 1.95 143 1.95 144 1.95 125 1.98  32 2.96  12 2.96
  23  0.000  0.125  0.394- 105 1.95 125 1.95 106 1.95 126 1.95 127 1.98 128 1.98  13 2.96  33 2.96

  24  0.750  0.250  0.394- 127 1.95 147 1.95 208 1.95 228 1.95 129 1.98 122 1.98  14 2.96  34 2.96

  25  0.750  0.125  0.500- 109 1.95 110 1.95 129 1.95 130 1.95 132 1.98 211 1.98  15 2.96  35 2.96

  26  0.000  0.250  0.500- 131 1.95 132 1.95 151 1.95 152 1.95 126 1.98 133 1.98  16 2.96  36 2.96

  27  0.000  0.125  0.606- 114 1.95 134 1.95 133 1.95 113 1.95 135 1.98 136 1.98  17 2.96  37 2.96

  28  0.750  0.250  0.606- 135 1.95 155 1.95 216 1.95 236 1.95 137 1.98 130 1.98  18 2.96  38 2.96

  29  0.750  0.125  0.713- 117 1.95 137 1.95 118 1.95 138 1.95 140 1.98 219 1.98  19 2.96  39 2.96

  30  0.000  0.250  0.713- 139 1.95 140 1.95 159 1.95 160 1.95 134 1.98  40 2.96  20 2.96
  31  0.750  0.375  0.287- 122 1.95 142 1.95 141 1.95 121 1.95 144 1.98 223 1.98   1 2.96  21 2.96

  32  0.000  0.500  0.287-  83 1.95  84 1.95 143 1.95 144 1.95 145 1.98  22 2.96   2 2.96
  33  0.000  0.375  0.394- 125 1.95 145 1.95 126 1.95 146 1.95 147 1.98 148 1.98   3 2.96  23 2.96

  34  0.750  0.500  0.394-  87 1.95 147 1.95 168 1.95 228 1.95 142 1.98 149 1.98   4 2.96  24 2.96

  35  0.750  0.375  0.500- 129 1.95 130 1.95 149 1.95 150 1.95 152 1.98 231 1.98   5 2.96  25 2.96

  36  0.000  0.500  0.500-  91 1.95  92 1.95 151 1.95 152 1.95 146 1.98 153 1.98   6 2.96  26 2.96

  37  0.000  0.375  0.606- 134 1.95 154 1.95 153 1.95 133 1.95 155 1.98 156 1.98   7 2.96  27 2.96

  38  0.750  0.500  0.606-  95 1.95 155 1.95 176 1.95 236 1.95 150 1.98 157 1.98   8 2.96  28 2.96

  39  0.750  0.375  0.713- 137 1.95 157 1.95 138 1.95 158 1.95 160 1.98 239 1.98   9 2.96  29 2.96

  40  0.000  0.500  0.713-  99 1.95 100 1.95 159 1.95 160 1.95 154 1.98  30 2.96  10 2.96
  41  0.250  0.625  0.287- 162 1.95 222 1.95 221 1.95 161 1.95  83 1.98 164 1.98  51 2.96  71 2.96

  42  0.500  0.750  0.287- 163 1.95 164 1.95 183 1.95 184 1.95 165 1.98  72 2.96  52 2.96
  43  0.500  0.625  0.394- 165 1.95 225 1.95 166 1.95 226 1.95 167 1.98 168 1.98  53 2.96  73 2.96

  44  0.250  0.750  0.394-  88 1.95 108 1.95 167 1.95 187 1.95 169 1.98 162 1.98  54 2.96  74 2.96

  45  0.250  0.625  0.500- 169 1.95 170 1.95 229 1.95 230 1.95  91 1.98 172 1.98  55 2.96  75 2.96

  46  0.500  0.750  0.500- 171 1.95 172 1.95 191 1.95 192 1.95 166 1.98 173 1.98  56 2.96  76 2.96

  47  0.500  0.625  0.606- 174 1.95 234 1.95 233 1.95 173 1.95 175 1.98 176 1.98  57 2.96  77 2.96

  48  0.250  0.750  0.606-  96 1.95 116 1.95 175 1.95 195 1.95 177 1.98 170 1.98  58 2.96  78 2.96

  49  0.250  0.625  0.713- 177 1.95 237 1.95 178 1.95 238 1.95  99 1.98 180 1.98  59 2.96  79 2.96

  50  0.500  0.750  0.713- 179 1.95 180 1.95 199 1.95 200 1.95 174 1.98  80 2.96  60 2.96
  51  0.250  0.875  0.287- 162 1.95 182 1.95 181 1.95 161 1.95 103 1.98 184 1.98  41 2.96  61 2.96

  52  0.500  0.000  0.287- 183 1.95 184 1.95 203 1.95 204 1.95 185 1.98  62 2.96  42 2.96
  53  0.500  0.875  0.394- 165 1.95 185 1.95 166 1.95 186 1.95 187 1.98 188 1.98  43 2.96  63 2.96

  54  0.250  0.000  0.394- 108 1.95 128 1.95 187 1.95 207 1.95 189 1.98 182 1.98  44 2.96  64 2.96

  55  0.250  0.875  0.500- 169 1.95 170 1.95 189 1.95 190 1.95 111 1.98 192 1.98  45 2.96  65 2.96

  56  0.500  0.000  0.500- 191 1.95 192 1.95 211 1.95 212 1.95 186 1.98 193 1.98  46 2.96  66 2.96

  57  0.500  0.875  0.606- 174 1.95 194 1.95 193 1.95 173 1.95 195 1.98 196 1.98  47 2.96  67 2.96

  58  0.250  0.000  0.606- 116 1.95 136 1.95 195 1.95 215 1.95 197 1.98 190 1.98  48 2.96  68 2.96

  59  0.250  0.875  0.713- 177 1.95 197 1.95 178 1.95 198 1.95 119 1.98 200 1.98  49 2.96  69 2.96

  60  0.500  0.000  0.713- 199 1.95 200 1.95 219 1.95 220 1.95 194 1.98  70 2.96  50 2.96
  61  0.250  0.125  0.287- 182 1.95 202 1.95 201 1.95 181 1.95 123 1.98 204 1.98  51 2.96  71 2.96

  62  0.500  0.250  0.287- 203 1.95 204 1.95 223 1.95 224 1.95 205 1.98  72 2.96  52 2.96
  63  0.500  0.125  0.394- 185 1.95 205 1.95 186 1.95 206 1.95 207 1.98 208 1.98  53 2.96  73 2.96

  64  0.250  0.250  0.394- 128 1.95 148 1.95 207 1.95 227 1.95 209 1.98 202 1.98  54 2.96  74 2.96

  65  0.250  0.125  0.500- 189 1.95 190 1.95 209 1.95 210 1.95 131 1.98 212 1.98  55 2.96  75 2.96

  66  0.500  0.250  0.500- 211 1.95 212 1.95 231 1.95 232 1.95 206 1.98 213 1.98  56 2.96  76 2.96

  67  0.500  0.125  0.606- 194 1.95 214 1.95 213 1.95 193 1.95 215 1.98 216 1.98  57 2.96  77 2.96

  68  0.250  0.250  0.606- 136 1.95 156 1.95 215 1.95 235 1.95 217 1.98 210 1.98  58 2.96  78 2.96

  69  0.250  0.125  0.713- 197 1.95 217 1.95 198 1.95 218 1.95 139 1.98 220 1.98  59 2.96  79 2.96

  70  0.500  0.250  0.713- 219 1.95 220 1.95 239 1.95 240 1.95 214 1.98  80 2.96  60 2.96
  71  0.250  0.375  0.287- 202 1.95 222 1.95 221 1.95 201 1.95 143 1.98 224 1.98  41 2.96  61 2.96

  72  0.500  0.500  0.287- 163 1.95 164 1.95 223 1.95 224 1.95 225 1.98  62 2.96  42 2.96
  73  0.500  0.375  0.394- 205 1.95 225 1.95 206 1.95 226 1.95 227 1.98 228 1.98  43 2.96  63 2.96

  74  0.250  0.500  0.394-  88 1.95 148 1.95 167 1.95 227 1.95 222 1.98 229 1.98  44 2.96  64 2.96

  75  0.250  0.375  0.500- 209 1.95 210 1.95 229 1.95 230 1.95 151 1.98 232 1.98  45 2.96  65 2.96

  76  0.500  0.500  0.500- 171 1.95 172 1.95 231 1.95 232 1.95 226 1.98 233 1.98  46 2.96  66 2.96

  77  0.500  0.375  0.606- 214 1.95 234 1.95 233 1.95 213 1.95 235 1.98 236 1.98  47 2.96  67 2.96

  78  0.250  0.500  0.606-  96 1.95 156 1.95 175 1.95 235 1.95 230 1.98 237 1.98  48 2.96  68 2.96

  79  0.250  0.375  0.713- 217 1.95 237 1.95 218 1.95 238 1.95 159 1.98 240 1.98  49 2.96  69 2.96

  80  0.500  0.500  0.713- 179 1.95 180 1.95 239 1.95 240 1.95 234 1.98  70 2.96  50 2.96
  81  0.750  0.750  0.245-   1 1.95  11 1.95
  82  0.750  0.750  0.329-   1 1.95  11 1.95   4 1.98
  83  0.098  0.625  0.287-   2 1.95  32 1.95  41 1.98
  84  0.902  0.625  0.287-   2 1.95  32 1.95   1 1.98
  85  0.000  0.750  0.352-   3 1.95  13 1.95   2 1.98
  86  0.000  0.750  0.435-   3 1.95  13 1.95   6 1.98
  87  0.848  0.625  0.394-   4 1.95  34 1.95   3 1.98
  88  0.152  0.625  0.394-  44 1.95  74 1.95   3 1.98
  89  0.750  0.750  0.458-   5 1.95  15 1.95   4 1.98
  90  0.750  0.750  0.542-   5 1.95  15 1.95   8 1.98
  91  0.098  0.625  0.500-   6 1.95  36 1.95  45 1.98
  92  0.902  0.625  0.500-   6 1.95  36 1.95   5 1.98
  93  0.000  0.750  0.565-   7 1.95  17 1.95   6 1.98
  94  0.000  0.750  0.648-   7 1.95  17 1.95  10 1.98
  95  0.848  0.625  0.606-   8 1.95  38 1.95   7 1.98
  96  0.152  0.625  0.606-  48 1.95  78 1.95   7 1.98
  97  0.750  0.750  0.671-   9 1.95  19 1.95   8 1.98
  98  0.750  0.750  0.755-   9 1.95  19 1.95
  99  0.098  0.625  0.713-  10 1.95  40 1.95  49 1.98
 100  0.902  0.625  0.713-  10 1.95  40 1.95   9 1.98
 101  0.750  0.000  0.245-  11 1.95  21 1.95
 102  0.750  0.000  0.329-  11 1.95  21 1.95  14 1.98
 103  0.098  0.875  0.287-   2 1.95  12 1.95  51 1.98
 104  0.902  0.875  0.287-   2 1.95  12 1.95  11 1.98
 105  0.000  0.000  0.352-  13 1.95  23 1.95  12 1.98
 106  0.000  0.000  0.435-  13 1.95  23 1.95  16 1.98
 107  0.848  0.875  0.394-   4 1.95  14 1.95  13 1.98
 108  0.152  0.875  0.394-  44 1.95  54 1.95  13 1.98
 109  0.750  0.000  0.458-  15 1.95  25 1.95  14 1.98
 110  0.750  0.000  0.542-  15 1.95  25 1.95  18 1.98
 111  0.098  0.875  0.500-   6 1.95  16 1.95  55 1.98
 112  0.902  0.875  0.500-   6 1.95  16 1.95  15 1.98
 113  0.000  0.000  0.565-  17 1.95  27 1.95  16 1.98
 114  0.000  0.000  0.648-  17 1.95  27 1.95  20 1.98
 115  0.848  0.875  0.606-   8 1.95  18 1.95  17 1.98
 116  0.152  0.875  0.606-  48 1.95  58 1.95  17 1.98
 117  0.750  0.000  0.671-  19 1.95  29 1.95  18 1.98
 118  0.750  0.000  0.755-  19 1.95  29 1.95
 119  0.098  0.875  0.713-  10 1.95  20 1.95  59 1.98
 120  0.902  0.875  0.713-  10 1.95  20 1.95  19 1.98
 121  0.750  0.250  0.245-  21 1.95  31 1.95
 122  0.750  0.250  0.329-  21 1.95  31 1.95  24 1.98
 123  0.098  0.125  0.287-  12 1.95  22 1.95  61 1.98
 124  0.902  0.125  0.287-  12 1.95  22 1.95  21 1.98
 125  0.000  0.250  0.352-  23 1.95  33 1.95  22 1.98
 126  0.000  0.250  0.435-  23 1.95  33 1.95  26 1.98
 127  0.848  0.125  0.394-  14 1.95  24 1.95  23 1.98
 128  0.152  0.125  0.394-  54 1.95  64 1.95  23 1.98
 129  0.750  0.250  0.458-  25 1.95  35 1.95  24 1.98
 130  0.750  0.250  0.542-  25 1.95  35 1.95  28 1.98
 131  0.098  0.125  0.500-  16 1.95  26 1.95  65 1.98
 132  0.902  0.125  0.500-  16 1.95  26 1.95  25 1.98
 133  0.000  0.250  0.565-  27 1.95  37 1.95  26 1.98
 134  0.000  0.250  0.648-  27 1.95  37 1.95  30 1.98
 135  0.848  0.125  0.606-  18 1.95  28 1.95  27 1.98
 136  0.152  0.125  0.606-  58 1.95  68 1.95  27 1.98
 137  0.750  0.250  0.671-  29 1.95  39 1.95  28 1.98
 138  0.750  0.250  0.755-  29 1.95  39 1.95
 139  0.098  0.125  0.713-  20 1.95  30 1.95  69 1.98
 140  0.902  0.125  0.713-  20 1.95  30 1.95  29 1.98
 141  0.750  0.500  0.245-   1 1.95  31 1.95
 142  0.750  0.500  0.329-   1 1.95  31 1.95  34 1.98
 143  0.098  0.375  0.287-  22 1.95  32 1.95  71 1.98
 144  0.902  0.375  0.287-  22 1.95  32 1.95  31 1.98
 145  0.000  0.500  0.352-   3 1.95  33 1.95  32 1.98
 146  0.000  0.500  0.435-   3 1.95  33 1.95  36 1.98
 147  0.848  0.375  0.394-  24 1.95  34 1.95  33 1.98
 148  0.152  0.375  0.394-  64 1.95  74 1.95  33 1.98
 149  0.750  0.500  0.458-   5 1.95  35 1.95  34 1.98
 150  0.750  0.500  0.542-   5 1.95  35 1.95  38 1.98
 151  0.098  0.375  0.500-  26 1.95  36 1.95  75 1.98
 152  0.902  0.375  0.500-  26 1.95  36 1.95  35 1.98
 153  0.000  0.500  0.565-   7 1.95  37 1.95  36 1.98
 154  0.000  0.500  0.648-   7 1.95  37 1.95  40 1.98
 155  0.848  0.375  0.606-  28 1.95  38 1.95  37 1.98
 156  0.152  0.375  0.606-  68 1.95  78 1.95  37 1.98
 157  0.750  0.500  0.671-   9 1.95  39 1.95  38 1.98
 158  0.750  0.500  0.755-   9 1.95  39 1.95
 159  0.098  0.375  0.713-  30 1.95  40 1.95  79 1.98
 160  0.902  0.375  0.713-  30 1.95  40 1.95  39 1.98
 161  0.250  0.750  0.245-  41 1.95  51 1.95
 162  0.250  0.750  0.329-  41 1.95  51 1.95  44 1.98
 163  0.598  0.625  0.287-  42 1.95  72 1.95   1 1.98
 164  0.402  0.625  0.287-  42 1.95  72 1.95  41 1.98
 165  0.500  0.750  0.352-  43 1.95  53 1.95  42 1.98
 166  0.500  0.750  0.435-  43 1.95  53 1.95  46 1.98
 167  0.348  0.625  0.394-  44 1.95  74 1.95  43 1.98
 168  0.652  0.625  0.394-   4 1.95  34 1.95  43 1.98
 169  0.250  0.750  0.458-  45 1.95  55 1.95  44 1.98
 170  0.250  0.750  0.542-  45 1.95  55 1.95  48 1.98
 171  0.598  0.625  0.500-  46 1.95  76 1.95   5 1.98
 172  0.402  0.625  0.500-  46 1.95  76 1.95  45 1.98
 173  0.500  0.750  0.565-  47 1.95  57 1.95  46 1.98
 174  0.500  0.750  0.648-  47 1.95  57 1.95  50 1.98
 175  0.348  0.625  0.606-  48 1.95  78 1.95  47 1.98
 176  0.652  0.625  0.606-   8 1.95  38 1.95  47 1.98
 177  0.250  0.750  0.671-  49 1.95  59 1.95  48 1.98
 178  0.250  0.750  0.755-  49 1.95  59 1.95
 179  0.598  0.625  0.713-  50 1.95  80 1.95   9 1.98
 180  0.402  0.625  0.713-  50 1.95  80 1.95  49 1.98
 181  0.250  0.000  0.245-  51 1.95  61 1.95
 182  0.250  0.000  0.329-  51 1.95  61 1.95  54 1.98
 183  0.598  0.875  0.287-  42 1.95  52 1.95  11 1.98
 184  0.402  0.875  0.287-  42 1.95  52 1.95  51 1.98
 185  0.500  0.000  0.352-  53 1.95  63 1.95  52 1.98
 186  0.500  0.000  0.435-  53 1.95  63 1.95  56 1.98
 187  0.348  0.875  0.394-  44 1.95  54 1.95  53 1.98
 188  0.652  0.875  0.394-   4 1.95  14 1.95  53 1.98
 189  0.250  0.000  0.458-  55 1.95  65 1.95  54 1.98
 190  0.250  0.000  0.542-  55 1.95  65 1.95  58 1.98
 191  0.598  0.875  0.500-  46 1.95  56 1.95  15 1.98
 192  0.402  0.875  0.500-  46 1.95  56 1.95  55 1.98
 193  0.500  0.000  0.565-  57 1.95  67 1.95  56 1.98
 194  0.500  0.000  0.648-  57 1.95  67 1.95  60 1.98
 195  0.348  0.875  0.606-  48 1.95  58 1.95  57 1.98
 196  0.652  0.875  0.606-   8 1.95  18 1.95  57 1.98
 197  0.250  0.000  0.671-  59 1.95  69 1.95  58 1.98
 198  0.250  0.000  0.755-  59 1.95  69 1.95
 199  0.598  0.875  0.713-  50 1.95  60 1.95  19 1.98
 200  0.402  0.875  0.713-  50 1.95  60 1.95  59 1.98
 201  0.250  0.250  0.245-  61 1.95  71 1.95
 202  0.250  0.250  0.329-  61 1.95  71 1.95  64 1.98
 203  0.598  0.125  0.287-  52 1.95  62 1.95  21 1.98
 204  0.402  0.125  0.287-  52 1.95  62 1.95  61 1.98
 205  0.500  0.250  0.352-  63 1.95  73 1.95  62 1.98
 206  0.500  0.250  0.435-  63 1.95  73 1.95  66 1.98
 207  0.348  0.125  0.394-  54 1.95  64 1.95  63 1.98
 208  0.652  0.125  0.394-  14 1.95  24 1.95  63 1.98
 209  0.250  0.250  0.458-  65 1.95  75 1.95  64 1.98
 210  0.250  0.250  0.542-  65 1.95  75 1.95  68 1.98
 211  0.598  0.125  0.500-  56 1.95  66 1.95  25 1.98
 212  0.402  0.125  0.500-  56 1.95  66 1.95  65 1.98
 213  0.500  0.250  0.565-  67 1.95  77 1.95  66 1.98
 214  0.500  0.250  0.648-  67 1.95  77 1.95  70 1.98
 215  0.348  0.125  0.606-  58 1.95  68 1.95  67 1.98
 216  0.652  0.125  0.606-  18 1.95  28 1.95  67 1.98
 217  0.250  0.250  0.671-  69 1.95  79 1.95  68 1.98
 218  0.250  0.250  0.755-  69 1.95  79 1.95
 219  0.598  0.125  0.713-  60 1.95  70 1.95  29 1.98
 220  0.402  0.125  0.713-  60 1.95  70 1.95  69 1.98
 221  0.250  0.500  0.245-  41 1.95  71 1.95
 222  0.250  0.500  0.329-  41 1.95  71 1.95  74 1.98
 223  0.598  0.375  0.287-  62 1.95  72 1.95  31 1.98
 224  0.402  0.375  0.287-  62 1.95  72 1.95  71 1.98
 225  0.500  0.500  0.352-  43 1.95  73 1.95  72 1.98
 226  0.500  0.500  0.435-  43 1.95  73 1.95  76 1.98
 227  0.348  0.375  0.394-  64 1.95  74 1.95  73 1.98
 228  0.652  0.375  0.394-  24 1.95  34 1.95  73 1.98
 229  0.250  0.500  0.458-  45 1.95  75 1.95  74 1.98
 230  0.250  0.500  0.542-  45 1.95  75 1.95  78 1.98
 231  0.598  0.375  0.500-  66 1.95  76 1.95  35 1.98
 232  0.402  0.375  0.500-  66 1.95  76 1.95  75 1.98
 233  0.500  0.500  0.565-  47 1.95  77 1.95  76 1.98
 234  0.500  0.500  0.648-  47 1.95  77 1.95  80 1.98
 235  0.348  0.375  0.606-  68 1.95  78 1.95  77 1.98
 236  0.652  0.375  0.606-  28 1.95  38 1.95  77 1.98
 237  0.250  0.500  0.671-  49 1.95  79 1.95  78 1.98
 238  0.250  0.500  0.755-  49 1.95  79 1.95
 239  0.598  0.375  0.713-  70 1.95  80 1.95  39 1.98
 240  0.402  0.375  0.713-  70 1.95  80 1.95  79 1.98


IMPORTANT INFORMATION: All symmetrisations will be switched off!
NOSYMM: (Re-)initialisation of all symmetry stuff for point group C_1.


----------------------------------------------------------------------------------------

                                     Primitive cell                                     

  volume of cell :    4700.2961

  direct lattice vectors                    reciprocal lattice vectors
    13.003980404  0.000000000  0.000000000     0.076899531  0.000000000  0.000000000
     0.000000000 11.830378115  0.000000000     0.000000000  0.084528152  0.000000000
     0.000000000  0.000000000 30.552748813     0.000000000  0.000000000  0.032730279

  length of vectors
    13.003980404 11.830378115 30.552748813     0.076899531  0.084528152  0.032730279

  position of ions in fractional coordinates (direct lattice)
     0.750000000  0.625000000  0.287188045
     0.000000000  0.750000000  0.287188045
     0.000000000  0.625000000  0.393594023
     0.750000000  0.750000000  0.393594023
     0.750000000  0.625000000  0.500000000
     0.000000000  0.750000000  0.500000000
     0.000000000  0.625000000  0.606405977
     0.750000000  0.750000000  0.606405977
     0.750000000  0.625000000  0.712811955
     0.000000000  0.750000000  0.712811955
     0.750000000  0.875000000  0.287188045
     0.000000000  0.000000000  0.287188045
     0.000000000  0.875000000  0.393594023
     0.750000000  0.000000000  0.393594023
     0.750000000  0.875000000  0.500000000
     0.000000000  0.000000000  0.500000000
     0.000000000  0.875000000  0.606405977
     0.750000000  0.000000000  0.606405977
     0.750000000  0.875000000  0.712811955
     0.000000000  0.000000000  0.712811955
     0.750000000  0.125000000  0.287188045
     0.000000000  0.250000000  0.287188045
     0.000000000  0.125000000  0.393594023
     0.750000000  0.250000000  0.393594023
     0.750000000  0.125000000  0.500000000
     0.000000000  0.250000000  0.500000000
     0.000000000  0.125000000  0.606405977
     0.750000000  0.250000000  0.606405977
     0.750000000  0.125000000  0.712811955
     0.000000000  0.250000000  0.712811955
     0.750000000  0.375000000  0.287188045
     0.000000000  0.500000000  0.287188045
     0.000000000  0.375000000  0.393594023
     0.750000000  0.500000000  0.393594023
     0.750000000  0.375000000  0.500000000
     0.000000000  0.500000000  0.500000000
     0.000000000  0.375000000  0.606405977
     0.750000000  0.500000000  0.606405977
     0.750000000  0.375000000  0.712811955
     0.000000000  0.500000000  0.712811955
     0.250000000  0.625000000  0.287188045
     0.500000000  0.750000000  0.287188045
     0.500000000  0.625000000  0.393594023
     0.250000000  0.750000000  0.393594023
     0.250000000  0.625000000  0.500000000
     0.500000000  0.750000000  0.500000000
     0.500000000  0.625000000  0.606405977
     0.250000000  0.750000000  0.606405977
     0.250000000  0.625000000  0.712811955
     0.500000000  0.750000000  0.712811955
     0.250000000  0.875000000  0.287188045
     0.500000000  0.000000000  0.287188045
     0.500000000  0.875000000  0.393594023
     0.250000000  0.000000000  0.393594023
     0.250000000  0.875000000  0.500000000
     0.500000000  0.000000000  0.500000000
     0.500000000  0.875000000  0.606405977
     0.250000000  0.000000000  0.606405977
     0.250000000  0.875000000  0.712811955
     0.500000000  0.000000000  0.712811955
     0.250000000  0.125000000  0.287188045
     0.500000000  0.250000000  0.287188045
     0.500000000  0.125000000  0.393594023
     0.250000000  0.250000000  0.393594023
     0.250000000  0.125000000  0.500000000
     0.500000000  0.250000000  0.500000000
     0.500000000  0.125000000  0.606405977
     0.250000000  0.250000000  0.606405977
     0.250000000  0.125000000  0.712811955
     0.500000000  0.250000000  0.712811955
     0.250000000  0.375000000  0.287188045
     0.500000000  0.500000000  0.287188045
     0.500000000  0.375000000  0.393594023
     0.250000000  0.500000000  0.393594023
     0.250000000  0.375000000  0.500000000
     0.500000000  0.500000000  0.500000000
     0.500000000  0.375000000  0.606405977
     0.250000000  0.500000000  0.606405977
     0.250000000  0.375000000  0.712811955
     0.500000000  0.500000000  0.712811955
     0.750000000  0.750000000  0.245477094
     0.750000000  0.750000000  0.328898996
     0.097999548  0.625000000  0.287188045
     0.902000452  0.625000000  0.287188045
     0.000000000  0.750000000  0.351883072
     0.000000000  0.750000000  0.435304973
     0.847999548  0.625000000  0.393594023
     0.152000452  0.625000000  0.393594023
     0.750000000  0.750000000  0.458289049
     0.750000000  0.750000000  0.541710951
     0.097999548  0.625000000  0.500000000
     0.902000452  0.625000000  0.500000000
     0.000000000  0.750000000  0.564695027
     0.000000000  0.750000000  0.648116928
     0.847999548  0.625000000  0.606405977
     0.152000452  0.625000000  0.606405977
     0.750000000  0.750000000  0.671101004
     0.750000000  0.750000000  0.754522906
     0.097999548  0.625000000  0.712811955
     0.902000452  0.625000000  0.712811955
     0.750000000  0.000000000  0.245477094
     0.750000000  0.000000000  0.328898996
     0.097999548  0.875000000  0.287188045
     0.902000452  0.875000000  0.287188045
     0.000000000  0.000000000  0.351883072
     0.000000000  0.000000000  0.435304973
     0.847999548  0.875000000  0.393594023
     0.152000452  0.875000000  0.393594023
     0.750000000  0.000000000  0.458289049
     0.750000000  0.000000000  0.541710951
     0.097999548  0.875000000  0.500000000
     0.902000452  0.875000000  0.500000000
     0.000000000  0.000000000  0.564695027
     0.000000000  0.000000000  0.648116928
     0.847999548  0.875000000  0.606405977
     0.152000452  0.875000000  0.606405977
     0.750000000  0.000000000  0.671101004
     0.750000000  0.000000000  0.754522906
     0.097999548  0.875000000  0.712811955
     0.902000452  0.875000000  0.712811955
     0.750000000  0.250000000  0.245477094
     0.750000000  0.250000000  0.328898996
     0.097999548  0.125000000  0.287188045
     0.902000452  0.125000000  0.287188045
     0.000000000  0.250000000  0.351883072
     0.000000000  0.250000000  0.435304973
     0.847999548  0.125000000  0.393594023
     0.152000452  0.125000000  0.393594023
     0.750000000  0.250000000  0.458289049
     0.750000000  0.250000000  0.541710951
     0.097999548  0.125000000  0.500000000
     0.902000452  0.125000000  0.500000000
     0.000000000  0.250000000  0.564695027
     0.000000000  0.250000000  0.648116928
     0.847999548  0.125000000  0.606405977
     0.152000452  0.125000000  0.606405977
     0.750000000  0.250000000  0.671101004
     0.750000000  0.250000000  0.754522906
     0.097999548  0.125000000  0.712811955
     0.902000452  0.125000000  0.712811955
     0.750000000  0.500000000  0.245477094
     0.750000000  0.500000000  0.328898996
     0.097999548  0.375000000  0.287188045
     0.902000452  0.375000000  0.287188045
     0.000000000  0.500000000  0.351883072
     0.000000000  0.500000000  0.435304973
     0.847999548  0.375000000  0.393594023
     0.152000452  0.375000000  0.393594023
     0.750000000  0.500000000  0.458289049
     0.750000000  0.500000000  0.541710951
     0.097999548  0.375000000  0.500000000
     0.902000452  0.375000000  0.500000000
     0.000000000  0.500000000  0.564695027
     0.000000000  0.500000000  0.648116928
     0.847999548  0.375000000  0.606405977
     0.152000452  0.375000000  0.606405977
     0.750000000  0.500000000  0.671101004
     0.750000000  0.500000000  0.754522906
     0.097999548  0.375000000  0.712811955
     0.902000452  0.375000000  0.712811955
     0.250000000  0.750000000  0.245477094
     0.250000000  0.750000000  0.328898996
     0.597999548  0.625000000  0.287188045
     0.402000452  0.625000000  0.287188045
     0.500000000  0.750000000  0.351883072
     0.500000000  0.750000000  0.435304973
     0.347999548  0.625000000  0.393594023
     0.652000452  0.625000000  0.393594023
     0.250000000  0.750000000  0.458289049
     0.250000000  0.750000000  0.541710951
     0.597999548  0.625000000  0.500000000
     0.402000452  0.625000000  0.500000000
     0.500000000  0.750000000  0.564695027
     0.500000000  0.750000000  0.648116928
     0.347999548  0.625000000  0.606405977
     0.652000452  0.625000000  0.606405977
     0.250000000  0.750000000  0.671101004
     0.250000000  0.750000000  0.754522906
     0.597999548  0.625000000  0.712811955
     0.402000452  0.625000000  0.712811955
     0.250000000  0.000000000  0.245477094
     0.250000000  0.000000000  0.328898996
     0.597999548  0.875000000  0.287188045
     0.402000452  0.875000000  0.287188045
     0.500000000  0.000000000  0.351883072
     0.500000000  0.000000000  0.435304973
     0.347999548  0.875000000  0.393594023
     0.652000452  0.875000000  0.393594023
     0.250000000  0.000000000  0.458289049
     0.250000000  0.000000000  0.541710951
     0.597999548  0.875000000  0.500000000
     0.402000452  0.875000000  0.500000000
     0.500000000  0.000000000  0.564695027
     0.500000000  0.000000000  0.648116928
     0.347999548  0.875000000  0.606405977
     0.652000452  0.875000000  0.606405977
     0.250000000  0.000000000  0.671101004
     0.250000000  0.000000000  0.754522906
     0.597999548  0.875000000  0.712811955
     0.402000452  0.875000000  0.712811955
     0.250000000  0.250000000  0.245477094
     0.250000000  0.250000000  0.328898996
     0.597999548  0.125000000  0.287188045
     0.402000452  0.125000000  0.287188045
     0.500000000  0.250000000  0.351883072
     0.500000000  0.250000000  0.435304973
     0.347999548  0.125000000  0.393594023
     0.652000452  0.125000000  0.393594023
     0.250000000  0.250000000  0.458289049
     0.250000000  0.250000000  0.541710951
     0.597999548  0.125000000  0.500000000
     0.402000452  0.125000000  0.500000000
     0.500000000  0.250000000  0.564695027
     0.500000000  0.250000000  0.648116928
     0.347999548  0.125000000  0.606405977
     0.652000452  0.125000000  0.606405977
     0.250000000  0.250000000  0.671101004
     0.250000000  0.250000000  0.754522906
     0.597999548  0.125000000  0.712811955
     0.402000452  0.125000000  0.712811955
     0.250000000  0.500000000  0.245477094
     0.250000000  0.500000000  0.328898996
     0.597999548  0.375000000  0.287188045
     0.402000452  0.375000000  0.287188045
     0.500000000  0.500000000  0.351883072
     0.500000000  0.500000000  0.435304973
     0.347999548  0.375000000  0.393594023
     0.652000452  0.375000000  0.393594023
     0.250000000  0.500000000  0.458289049
     0.250000000  0.500000000  0.541710951
     0.597999548  0.375000000  0.500000000
     0.402000452  0.375000000  0.500000000
     0.500000000  0.500000000  0.564695027
     0.500000000  0.500000000  0.648116928
     0.347999548  0.375000000  0.606405977
     0.652000452  0.375000000  0.606405977
     0.250000000  0.500000000  0.671101004
     0.250000000  0.500000000  0.754522906
     0.597999548  0.375000000  0.712811955
     0.402000452  0.375000000  0.712811955

  ion indices of the primitive-cell ions
   primitive index   ion index
                 1           1
                 2           2
                 3           3
                 4           4
                 5           5
                 6           6
                 7           7
                 8           8
                 9           9
                10          10
                11          11
                12          12
                13          13
                14          14
                15          15
                16          16
                17          17
                18          18
                19          19
                20          20
                21          21
                22          22
                23          23
                24          24
                25          25
                26          26
                27          27
                28          28
                29          29
                30          30
                31          31
                32          32
                33          33
                34          34
                35          35
                36          36
                37          37
                38          38
                39          39
                40          40
                41          41
                42          42
                43          43
                44          44
                45          45
                46          46
                47          47
                48          48
                49          49
                50          50
                51          51
                52          52
                53          53
                54          54
                55          55
                56          56
                57          57
                58          58
                59          59
                60          60
                61          61
                62          62
                63          63
                64          64
                65          65
                66          66
                67          67
                68          68
                69          69
                70          70
                71          71
                72          72
                73          73
                74          74
                75          75
                76          76
                77          77
                78          78
                79          79
                80          80
                81          81
                82          82
                83          83
                84          84
                85          85
                86          86
                87          87
                88          88
                89          89
                90          90
                91          91
                92          92
                93          93
                94          94
                95          95
                96          96
                97          97
                98          98
                99          99
               100         100
               101         101
               102         102
               103         103
               104         104
               105         105
               106         106
               107         107
               108         108
               109         109
               110         110
               111         111
               112         112
               113         113
               114         114
               115         115
               116         116
               117         117
               118         118
               119         119
               120         120
               121         121
               122         122
               123         123
               124         124
               125         125
               126         126
               127         127
               128         128
               129         129
               130         130
               131         131
               132         132
               133         133
               134         134
               135         135
               136         136
               137         137
               138         138
               139         139
               140         140
               141         141
               142         142
               143         143
               144         144
               145         145
               146         146
               147         147
               148         148
               149         149
               150         150
               151         151
               152         152
               153         153
               154         154
               155         155
               156         156
               157         157
               158         158
               159         159
               160         160
               161         161
               162         162
               163         163
               164         164
               165         165
               166         166
               167         167
               168         168
               169         169
               170         170
               171         171
               172         172
               173         173
               174         174
               175         175
               176         176
               177         177
               178         178
               179         179
               180         180
               181         181
               182         182
               183         183
               184         184
               185         185
               186         186
               187         187
               188         188
               189         189
               190         190
               191         191
               192         192
               193         193
               194         194
               195         195
               196         196
               197         197
               198         198
               199         199
               200         200
               201         201
               202         202
               203         203
               204         204
               205         205
               206         206
               207         207
               208         208
               209         209
               210         210
               211         211
               212         212
               213         213
               214         214
               215         215
               216         216
               217         217
               218         218
               219         219
               220         220
               221         221
               222         222
               223         223
               224         224
               225         225
               226         226
               227         227
               228         228
               229         229
               230         230
               231         231
               232         232
               233         233
               234         234
               235         235
               236         236
               237         237
               238         238
               239         239
               240         240

----------------------------------------------------------------------------------------



 KPOINTS: pymatgen v2020.8.13 with grid density = 

Automatic generation of k-mesh.
 Grid dimensions read from file:
 generate k-points for:    2    2    1

 Generating k-lattice:

  Cartesian coordinates                     Fractional coordinates (reciprocal lattice)
     0.038449766  0.000000000  0.000000000     0.500000000  0.000000000  0.000000000
     0.000000000  0.042264076  0.000000000     0.000000000  0.500000000  0.000000000
     0.000000000  0.000000000  0.032730279     0.000000000  0.000000000  1.000000000

  Length of vectors
     0.038449766  0.042264076  0.032730279

  Shift w.r.t. Gamma in fractional coordinates (k-lattice)
     0.000000000  0.000000000  0.000000000

 
 Subroutine IBZKPT returns following result:
 ===========================================
 
 Found      4 irreducible k-points:
 
 Following reciprocal coordinates:
            Coordinates               Weight
  0.000000  0.000000  0.000000      1.000000
  0.500000  0.000000  0.000000      1.000000
  0.000000  0.500000  0.000000      1.000000
  0.500000  0.500000  0.000000      1.000000
 
 Following cartesian coordinates:
            Coordinates               Weight
  0.000000  0.000000  0.000000      1.000000
  0.038450  0.000000  0.000000      1.000000
  0.000000  0.042264  0.000000      1.000000
  0.038450  0.042264  0.000000      1.000000
 


--------------------------------------------------------------------------------------------------------




 Dimension of arrays:
   k-points           NKPTS =      4   k-points in BZ     NKDIM =      4   number of bands    NBANDS=   1056
   number of dos      NEDOS =    301   number of ions     NIONS =    240
   non local maximal  LDIM  =      6   non local SUM 2l+1 LMDIM =     18
   total plane-waves  NPLWV = ******
   max r-space proj   IRMAX =      1   max aug-charges    IRDMAX=  21607
   dimension x,y,z NGX =   108 NGY =   96 NGZ =  250
   dimension x,y,z NGXF=   216 NGYF=  192 NGZF=  500
   support grid    NGXF=   216 NGYF=  192 NGZF=  500
   ions per type =              80 160
   NGX,Y,Z   is equivalent  to a cutoff of  13.81, 13.49, 13.60 a.u.
   NGXF,Y,Z  is equivalent  to a cutoff of  27.61, 26.98, 27.21 a.u.

 SYSTEM =  MgO-rocksalt                            
 POSCAR =  Ti  O                                   

--------------------------------------------------------------------------------------------------------


  energy-cutoff  :      600.00
  volume of cell :     4700.30
      direct lattice vectors                 reciprocal lattice vectors
    13.003980404  0.000000000  0.000000000     0.076899531  0.000000000  0.000000000
     0.000000000 11.830378115  0.000000000     0.000000000  0.084528152  0.000000000
     0.000000000  0.000000000 30.552748813     0.000000000  0.000000000  0.032730279

  length of vectors
    13.003980404 11.830378115 30.552748813     0.076899531  0.084528152  0.032730279



 k-points in units of 2pi/SCALE and weight: pymatgen v2020.8.13 with grid density = 
   0.00000000  0.00000000  0.00000000       0.250
   0.03844977  0.00000000  0.00000000       0.250
   0.00000000  0.04226408  0.00000000       0.250
   0.03844977  0.04226408  0.00000000       0.250

 k-points in reciprocal lattice and weights: pymatgen v2020.8.13 with grid density = 
   0.00000000  0.00000000  0.00000000       0.250
   0.50000000  0.00000000  0.00000000       0.250
   0.00000000  0.50000000  0.00000000       0.250
   0.50000000  0.50000000  0.00000000       0.250

 position of ions in fractional coordinates (direct lattice) 
   0.75000000  0.62500000  0.28718805
   0.00000000  0.75000000  0.28718805
   0.00000000  0.62500000  0.39359402
   0.75000000  0.75000000  0.39359402
   0.75000000  0.62500000  0.50000000
   0.00000000  0.75000000  0.50000000
   0.00000000  0.62500000  0.60640598
   0.75000000  0.75000000  0.60640598
   0.75000000  0.62500000  0.71281195
   0.00000000  0.75000000  0.71281195
   0.75000000  0.87500000  0.28718805
   0.00000000  0.00000000  0.28718805
   0.00000000  0.87500000  0.39359402
   0.75000000  0.00000000  0.39359402
   0.75000000  0.87500000  0.50000000
   0.00000000  0.00000000  0.50000000
   0.00000000  0.87500000  0.60640598
   0.75000000  0.00000000  0.60640598
   0.75000000  0.87500000  0.71281195
   0.00000000  0.00000000  0.71281195
   0.75000000  0.12500000  0.28718805
   0.00000000  0.25000000  0.28718805
   0.00000000  0.12500000  0.39359402
   0.75000000  0.25000000  0.39359402
   0.75000000  0.12500000  0.50000000
   0.00000000  0.25000000  0.50000000
   0.00000000  0.12500000  0.60640598
   0.75000000  0.25000000  0.60640598
   0.75000000  0.12500000  0.71281195
   0.00000000  0.25000000  0.71281195
   0.75000000  0.37500000  0.28718805
   0.00000000  0.50000000  0.28718805
   0.00000000  0.37500000  0.39359402
   0.75000000  0.50000000  0.39359402
   0.75000000  0.37500000  0.50000000
   0.00000000  0.50000000  0.50000000
   0.00000000  0.37500000  0.60640598
   0.75000000  0.50000000  0.60640598
   0.75000000  0.37500000  0.71281195
   0.00000000  0.50000000  0.71281195
   0.25000000  0.62500000  0.28718805
   0.50000000  0.75000000  0.28718805
   0.50000000  0.62500000  0.39359402
   0.25000000  0.75000000  0.39359402
   0.25000000  0.62500000  0.50000000
   0.50000000  0.75000000  0.50000000
   0.50000000  0.62500000  0.60640598
   0.25000000  0.75000000  0.60640598
   0.25000000  0.62500000  0.71281195
   0.50000000  0.75000000  0.71281195
   0.25000000  0.87500000  0.28718805
   0.50000000  0.00000000  0.28718805
   0.50000000  0.87500000  0.39359402
   0.25000000  0.00000000  0.39359402
   0.25000000  0.87500000  0.50000000
   0.50000000  0.00000000  0.50000000
   0.50000000  0.87500000  0.60640598
   0.25000000  0.00000000  0.60640598
   0.25000000  0.87500000  0.71281195
   0.50000000  0.00000000  0.71281195
   0.25000000  0.12500000  0.28718805
   0.50000000  0.25000000  0.28718805
   0.50000000  0.12500000  0.39359402
   0.25000000  0.25000000  0.39359402
   0.25000000  0.12500000  0.50000000
   0.50000000  0.25000000  0.50000000
   0.50000000  0.12500000  0.60640598
   0.25000000  0.25000000  0.60640598
   0.25000000  0.12500000  0.71281195
   0.50000000  0.25000000  0.71281195
   0.25000000  0.37500000  0.28718805
   0.50000000  0.50000000  0.28718805
   0.50000000  0.37500000  0.39359402
   0.25000000  0.50000000  0.39359402
   0.25000000  0.37500000  0.50000000
   0.50000000  0.50000000  0.50000000
   0.50000000  0.37500000  0.60640598
   0.25000000  0.50000000  0.60640598
   0.25000000  0.37500000  0.71281195
   0.50000000  0.50000000  0.71281195
   0.75000000  0.75000000  0.24547709
   0.75000000  0.75000000  0.32889900
   0.09799955  0.62500000  0.28718805
   0.90200045  0.62500000  0.28718805
   0.00000000  0.75000000  0.35188307
   0.00000000  0.75000000  0.43530497
   0.84799955  0.62500000  0.39359402
   0.15200045  0.62500000  0.39359402
   0.75000000  0.75000000  0.45828905
   0.75000000  0.75000000  0.54171095
   0.09799955  0.62500000  0.50000000
   0.90200045  0.62500000  0.50000000
   0.00000000  0.75000000  0.56469503
   0.00000000  0.75000000  0.64811693
   0.84799955  0.62500000  0.60640598
   0.15200045  0.62500000  0.60640598
   0.75000000  0.75000000  0.67110100
   0.75000000  0.75000000  0.75452291
   0.09799955  0.62500000  0.71281195
   0.90200045  0.62500000  0.71281195
   0.75000000  0.00000000  0.24547709
   0.75000000  0.00000000  0.32889900
   0.09799955  0.87500000  0.28718805
   0.90200045  0.87500000  0.28718805
   0.00000000  0.00000000  0.35188307
   0.00000000  0.00000000  0.43530497
   0.84799955  0.87500000  0.39359402
   0.15200045  0.87500000  0.39359402
   0.75000000  0.00000000  0.45828905
   0.75000000  0.00000000  0.54171095
   0.09799955  0.87500000  0.50000000
   0.90200045  0.87500000  0.50000000
   0.00000000  0.00000000  0.56469503
   0.00000000  0.00000000  0.64811693
   0.84799955  0.87500000  0.60640598
   0.15200045  0.87500000  0.60640598
   0.75000000  0.00000000  0.67110100
   0.75000000  0.00000000  0.75452291
   0.09799955  0.87500000  0.71281195
   0.90200045  0.87500000  0.71281195
   0.75000000  0.25000000  0.24547709
   0.75000000  0.25000000  0.32889900
   0.09799955  0.12500000  0.28718805
   0.90200045  0.12500000  0.28718805
   0.00000000  0.25000000  0.35188307
   0.00000000  0.25000000  0.43530497
   0.84799955  0.12500000  0.39359402
   0.15200045  0.12500000  0.39359402
   0.75000000  0.25000000  0.45828905
   0.75000000  0.25000000  0.54171095
   0.09799955  0.12500000  0.50000000
   0.90200045  0.12500000  0.50000000
   0.00000000  0.25000000  0.56469503
   0.00000000  0.25000000  0.64811693
   0.84799955  0.12500000  0.60640598
   0.15200045  0.12500000  0.60640598
   0.75000000  0.25000000  0.67110100
   0.75000000  0.25000000  0.75452291
   0.09799955  0.12500000  0.71281195
   0.90200045  0.12500000  0.71281195
   0.75000000  0.50000000  0.24547709
   0.75000000  0.50000000  0.32889900
   0.09799955  0.37500000  0.28718805
   0.90200045  0.37500000  0.28718805
   0.00000000  0.50000000  0.35188307
   0.00000000  0.50000000  0.43530497
   0.84799955  0.37500000  0.39359402
   0.15200045  0.37500000  0.39359402
   0.75000000  0.50000000  0.45828905
   0.75000000  0.50000000  0.54171095
   0.09799955  0.37500000  0.50000000
   0.90200045  0.37500000  0.50000000
   0.00000000  0.50000000  0.56469503
   0.00000000  0.50000000  0.64811693
   0.84799955  0.37500000  0.60640598
   0.15200045  0.37500000  0.60640598
   0.75000000  0.50000000  0.67110100
   0.75000000  0.50000000  0.75452291
   0.09799955  0.37500000  0.71281195
   0.90200045  0.37500000  0.71281195
   0.25000000  0.75000000  0.24547709
   0.25000000  0.75000000  0.32889900
   0.59799955  0.62500000  0.28718805
   0.40200045  0.62500000  0.28718805
   0.50000000  0.75000000  0.35188307
   0.50000000  0.75000000  0.43530497
   0.34799955  0.62500000  0.39359402
   0.65200045  0.62500000  0.39359402
   0.25000000  0.75000000  0.45828905
   0.25000000  0.75000000  0.54171095
   0.59799955  0.62500000  0.50000000
   0.40200045  0.62500000  0.50000000
   0.50000000  0.75000000  0.56469503
   0.50000000  0.75000000  0.64811693
   0.34799955  0.62500000  0.60640598
   0.65200045  0.62500000  0.60640598
   0.25000000  0.75000000  0.67110100
   0.25000000  0.75000000  0.75452291
   0.59799955  0.62500000  0.71281195
   0.40200045  0.62500000  0.71281195
   0.25000000  0.00000000  0.24547709
   0.25000000  0.00000000  0.32889900
   0.59799955  0.87500000  0.28718805
   0.40200045  0.87500000  0.28718805
   0.50000000  0.00000000  0.35188307
   0.50000000  0.00000000  0.43530497
   0.34799955  0.87500000  0.39359402
   0.65200045  0.87500000  0.39359402
   0.25000000  0.00000000  0.45828905
   0.25000000  0.00000000  0.54171095
   0.59799955  0.87500000  0.50000000
   0.40200045  0.87500000  0.50000000
   0.50000000  0.00000000  0.56469503
   0.50000000  0.00000000  0.64811693
   0.34799955  0.87500000  0.60640598
   0.65200045  0.87500000  0.60640598
   0.25000000  0.00000000  0.67110100
   0.25000000  0.00000000  0.75452291
   0.59799955  0.87500000  0.71281195
   0.40200045  0.87500000  0.71281195
   0.25000000  0.25000000  0.24547709
   0.25000000  0.25000000  0.32889900
   0.59799955  0.12500000  0.28718805
   0.40200045  0.12500000  0.28718805
   0.50000000  0.25000000  0.35188307
   0.50000000  0.25000000  0.43530497
   0.34799955  0.12500000  0.39359402
   0.65200045  0.12500000  0.39359402
   0.25000000  0.25000000  0.45828905
   0.25000000  0.25000000  0.54171095
   0.59799955  0.12500000  0.50000000
   0.40200045  0.12500000  0.50000000
   0.50000000  0.25000000  0.56469503
   0.50000000  0.25000000  0.64811693
   0.34799955  0.12500000  0.60640598
   0.65200045  0.12500000  0.60640598
   0.25000000  0.25000000  0.67110100
   0.25000000  0.25000000  0.75452291
   0.59799955  0.12500000  0.71281195
   0.40200045  0.12500000  0.71281195
   0.25000000  0.50000000  0.24547709
   0.25000000  0.50000000  0.32889900
   0.59799955  0.37500000  0.28718805
   0.40200045  0.37500000  0.28718805
   0.50000000  0.50000000  0.35188307
   0.50000000  0.50000000  0.43530497
   0.34799955  0.37500000  0.39359402
   0.65200045  0.37500000  0.39359402
   0.25000000  0.50000000  0.45828905
   0.25000000  0.50000000  0.54171095
   0.59799955  0.37500000  0.50000000
   0.40200045  0.37500000  0.50000000
   0.50000000  0.50000000  0.56469503
   0.50000000  0.50000000  0.64811693
   0.34799955  0.37500000  0.60640598
   0.65200045  0.37500000  0.60640598
   0.25000000  0.50000000  0.67110100
   0.25000000  0.50000000  0.75452291
   0.59799955  0.37500000  0.71281195
   0.40200045  0.37500000  0.71281195

 position of ions in cartesian coordinates  (Angst):
   9.75298530  7.39398632  8.77438420
   0.00000000  8.87278359  8.77438420
   0.00000000  7.39398632 12.02537931
   9.75298530  8.87278359 12.02537931
   9.75298530  7.39398632 15.27637441
   0.00000000  8.87278359 15.27637441
   0.00000000  7.39398632 18.52736951
   9.75298530  8.87278359 18.52736951
   9.75298530  7.39398632 21.77836461
   0.00000000  8.87278359 21.77836461
   9.75298530 10.35158085  8.77438420
   0.00000000  0.00000000  8.77438420
   0.00000000 10.35158085 12.02537931
   9.75298530  0.00000000 12.02537931
   9.75298530 10.35158085 15.27637441
   0.00000000  0.00000000 15.27637441
   0.00000000 10.35158085 18.52736951
   9.75298530  0.00000000 18.52736951
   9.75298530 10.35158085 21.77836461
   0.00000000  0.00000000 21.77836461
   9.75298530  1.47879726  8.77438420
   0.00000000  2.95759453  8.77438420
   0.00000000  1.47879726 12.02537931
   9.75298530  2.95759453 12.02537931
   9.75298530  1.47879726 15.27637441
   0.00000000  2.95759453 15.27637441
   0.00000000  1.47879726 18.52736951
   9.75298530  2.95759453 18.52736951
   9.75298530  1.47879726 21.77836461
   0.00000000  2.95759453 21.77836461
   9.75298530  4.43639179  8.77438420
   0.00000000  5.91518906  8.77438420
   0.00000000  4.43639179 12.02537931
   9.75298530  5.91518906 12.02537931
   9.75298530  4.43639179 15.27637441
   0.00000000  5.91518906 15.27637441
   0.00000000  4.43639179 18.52736951
   9.75298530  5.91518906 18.52736951
   9.75298530  4.43639179 21.77836461
   0.00000000  5.91518906 21.77836461
   3.25099510  7.39398632  8.77438420
   6.50199020  8.87278359  8.77438420
   6.50199020  7.39398632 12.02537931
   3.25099510  8.87278359 12.02537931
   3.25099510  7.39398632 15.27637441
   6.50199020  8.87278359 15.27637441
   6.50199020  7.39398632 18.52736951
   3.25099510  8.87278359 18.52736951
   3.25099510  7.39398632 21.77836461
   6.50199020  8.87278359 21.77836461
   3.25099510 10.35158085  8.77438420
   6.50199020  0.00000000  8.77438420
   6.50199020 10.35158085 12.02537931
   3.25099510  0.00000000 12.02537931
   3.25099510 10.35158085 15.27637441
   6.50199020  0.00000000 15.27637441
   6.50199020 10.35158085 18.52736951
   3.25099510  0.00000000 18.52736951
   3.25099510 10.35158085 21.77836461
   6.50199020  0.00000000 21.77836461
   3.25099510  1.47879726  8.77438420
   6.50199020  2.95759453  8.77438420
   6.50199020  1.47879726 12.02537931
   3.25099510  2.95759453 12.02537931
   3.25099510  1.47879726 15.27637441
   6.50199020  2.95759453 15.27637441
   6.50199020  1.47879726 18.52736951
   3.25099510  2.95759453 18.52736951
   3.25099510  1.47879726 21.77836461
   6.50199020  2.95759453 21.77836461
   3.25099510  4.43639179  8.77438420
   6.50199020  5.91518906  8.77438420
   6.50199020  4.43639179 12.02537931
   3.25099510  5.91518906 12.02537931
   3.25099510  4.43639179 15.27637441
   6.50199020  5.91518906 15.27637441
   6.50199020  4.43639179 18.52736951
   3.25099510  5.91518906 18.52736951
   3.25099510  4.43639179 21.77836461
   6.50199020  5.91518906 21.77836461
   9.75298530  8.87278359  7.50000000
   9.75298530  8.87278359 10.04876841
   1.27438420  7.39398632  8.77438420
  11.72959620  7.39398632  8.77438420
   0.00000000  8.87278359 10.75099510
   0.00000000  8.87278359 13.29976351
  11.02736951  7.39398632 12.02537931
   1.97661090  7.39398632 12.02537931
   9.75298530  8.87278359 14.00199020
   9.75298530  8.87278359 16.55075861
   1.27438420  7.39398632 15.27637441
  11.72959620  7.39398632 15.27637441
   0.00000000  8.87278359 17.25298530
   0.00000000  8.87278359 19.80175371
  11.02736951  7.39398632 18.52736951
   1.97661090  7.39398632 18.52736951
   9.75298530  8.87278359 20.50398040
   9.75298530  8.87278359 23.05274881
   1.27438420  7.39398632 21.77836461
  11.72959620  7.39398632 21.77836461
   9.75298530  0.00000000  7.50000000
   9.75298530  0.00000000 10.04876841
   1.27438420 10.35158085  8.77438420
  11.72959620 10.35158085  8.77438420
   0.00000000  0.00000000 10.75099510
   0.00000000  0.00000000 13.29976351
  11.02736951 10.35158085 12.02537931
   1.97661090 10.35158085 12.02537931
   9.75298530  0.00000000 14.00199020
   9.75298530  0.00000000 16.55075861
   1.27438420 10.35158085 15.27637441
  11.72959620 10.35158085 15.27637441
   0.00000000  0.00000000 17.25298530
   0.00000000  0.00000000 19.80175371
  11.02736951 10.35158085 18.52736951
   1.97661090 10.35158085 18.52736951
   9.75298530  0.00000000 20.50398040
   9.75298530  0.00000000 23.05274881
   1.27438420 10.35158085 21.77836461
  11.72959620 10.35158085 21.77836461
   9.75298530  2.95759453  7.50000000
   9.75298530  2.95759453 10.04876841
   1.27438420  1.47879726  8.77438420
  11.72959620  1.47879726  8.77438420
   0.00000000  2.95759453 10.75099510
   0.00000000  2.95759453 13.29976351
  11.02736951  1.47879726 12.02537931
   1.97661090  1.47879726 12.02537931
   9.75298530  2.95759453 14.00199020
   9.75298530  2.95759453 16.55075861
   1.27438420  1.47879726 15.27637441
  11.72959620  1.47879726 15.27637441
   0.00000000  2.95759453 17.25298530
   0.00000000  2.95759453 19.80175371
  11.02736951  1.47879726 18.52736951
   1.97661090  1.47879726 18.52736951
   9.75298530  2.95759453 20.50398040
   9.75298530  2.95759453 23.05274881
   1.27438420  1.47879726 21.77836461
  11.72959620  1.47879726 21.77836461
   9.75298530  5.91518906  7.50000000
   9.75298530  5.91518906 10.04876841
   1.27438420  4.43639179  8.77438420
  11.72959620  4.43639179  8.77438420
   0.00000000  5.91518906 10.75099510
   0.00000000  5.91518906 13.29976351
  11.02736951  4.43639179 12.02537931
   1.97661090  4.43639179 12.02537931
   9.75298530  5.91518906 14.00199020
   9.75298530  5.91518906 16.55075861
   1.27438420  4.43639179 15.27637441
  11.72959620  4.43639179 15.27637441
   0.00000000  5.91518906 17.25298530
   0.00000000  5.91518906 19.80175371
  11.02736951  4.43639179 18.52736951
   1.97661090  4.43639179 18.52736951
   9.75298530  5.91518906 20.50398040
   9.75298530  5.91518906 23.05274881
   1.27438420  4.43639179 21.77836461
  11.72959620  4.43639179 21.77836461
   3.25099510  8.87278359  7.50000000
   3.25099510  8.87278359 10.04876841
   7.77637441  7.39398632  8.77438420
   5.22760600  7.39398632  8.77438420
   6.50199020  8.87278359 10.75099510
   6.50199020  8.87278359 13.29976351
   4.52537931  7.39398632 12.02537931
   8.47860110  7.39398632 12.02537931
   3.25099510  8.87278359 14.00199020
   3.25099510  8.87278359 16.55075861
   7.77637441  7.39398632 15.27637441
   5.22760600  7.39398632 15.27637441
   6.50199020  8.87278359 17.25298530
   6.50199020  8.87278359 19.80175371
   4.52537931  7.39398632 18.52736951
   8.47860110  7.39398632 18.52736951
   3.25099510  8.87278359 20.50398040
   3.25099510  8.87278359 23.05274881
   7.77637441  7.39398632 21.77836461
   5.22760600  7.39398632 21.77836461
   3.25099510  0.00000000  7.50000000
   3.25099510  0.00000000 10.04876841
   7.77637441 10.35158085  8.77438420
   5.22760600 10.35158085  8.77438420
   6.50199020  0.00000000 10.75099510
   6.50199020  0.00000000 13.29976351
   4.52537931 10.35158085 12.02537931
   8.47860110 10.35158085 12.02537931
   3.25099510  0.00000000 14.00199020
   3.25099510  0.00000000 16.55075861
   7.77637441 10.35158085 15.27637441
   5.22760600 10.35158085 15.27637441
   6.50199020  0.00000000 17.25298530
   6.50199020  0.00000000 19.80175371
   4.52537931 10.35158085 18.52736951
   8.47860110 10.35158085 18.52736951
   3.25099510  0.00000000 20.50398040
   3.25099510  0.00000000 23.05274881
   7.77637441 10.35158085 21.77836461
   5.22760600 10.35158085 21.77836461
   3.25099510  2.95759453  7.50000000
   3.25099510  2.95759453 10.04876841
   7.77637441  1.47879726  8.77438420
   5.22760600  1.47879726  8.77438420
   6.50199020  2.95759453 10.75099510
   6.50199020  2.95759453 13.29976351
   4.52537931  1.47879726 12.02537931
   8.47860110  1.47879726 12.02537931
   3.25099510  2.95759453 14.00199020
   3.25099510  2.95759453 16.55075861
   7.77637441  1.47879726 15.27637441
   5.22760600  1.47879726 15.27637441
   6.50199020  2.95759453 17.25298530
   6.50199020  2.95759453 19.80175371
   4.52537931  1.47879726 18.52736951
   8.47860110  1.47879726 18.52736951
   3.25099510  2.95759453 20.50398040
   3.25099510  2.95759453 23.05274881
   7.77637441  1.47879726 21.77836461
   5.22760600  1.47879726 21.77836461
   3.25099510  5.91518906  7.50000000
   3.25099510  5.91518906 10.04876841
   7.77637441  4.43639179  8.77438420
   5.22760600  4.43639179  8.77438420
   6.50199020  5.91518906 10.75099510
   6.50199020  5.91518906 13.29976351
   4.52537931  4.43639179 12.02537931
   8.47860110  4.43639179 12.02537931
   3.25099510  5.91518906 14.00199020
   3.25099510  5.91518906 16.55075861
   7.77637441  4.43639179 15.27637441
   5.22760600  4.43639179 15.27637441
   6.50199020  5.91518906 17.25298530
   6.50199020  5.91518906 19.80175371
   4.52537931  4.43639179 18.52736951
   8.47860110  4.43639179 18.52736951
   3.25099510  5.91518906 20.50398040
   3.25099510  5.91518906 23.05274881
   7.77637441  4.43639179 21.77836461
   5.22760600  4.43639179 21.77836461



--------------------------------------------------------------------------------------------------------

--------------------------------------- Iteration      FINAL  ---------------------------------------


--------------------OUTCAR has been truncated-------------------------


--------------------OUTCAR has been truncated-------------------------


--------------------OUTCAR has been truncated-------------------------


--------------------OUTCAR has been truncated-------------------------


--------------------OUTCAR has been truncated-------------------------


--------------------OUTCAR has been truncated-------------------------


--------------------OUTCAR has been truncated-------------------------


--------------------OUTCAR has been truncated-------------------------


--------------------OUTCAR has been truncated-------------------------


--------------------OUTCAR has been truncated-------------------------



  FORCE on cell =-STRESS in cart. coord.  units (eV):
  Direction    XX          YY          ZZ          XY          YZ          ZX
  --------------------------------------------------------------------------------------
  Alpha Z  4654.20310  4654.20310  4654.20310
  Ewald  981180.44121998950.62795************    -0.00002     0.00004     0.00001
  Hartree************************************    -0.00001     0.00001    -0.00001
  E(xc)   -8618.03641 -8590.78438 -8632.60995    -0.00000     0.00000    -0.00000
  Local  ************************************     0.00003    -0.00005     0.00001
  n-local -5339.07310 -5262.62950 -5385.27196    -0.00000     0.00000     0.00000
  augment  5215.42236  5201.43712  5217.68869    -0.00000     0.00000    -0.00000
  Kinetic 28642.39659 28169.14356 28691.60163     0.00000     0.00000    -0.00001
  Fock        0.00000     0.00000     0.00000     0.00000     0.00000     0.00000
  vdW      -130.33469  -129.89208  -116.94170     0.00000    -0.00000    -0.00000
  -------------------------------------------------------------------------------------
  Total      13.95937   -29.72790   -31.63437    -0.00000     0.00000    -0.00001
  in kB       4.75829   -10.13327   -10.78312    -0.00000     0.00000    -0.00000
  external pressure =       -5.39 kB  Pullay stress =        0.00 kB


 VOLUME and BASIS-vectors are now :
 -----------------------------------------------------------------------------
  energy-cutoff  :      600.00
  volume of cell :     4700.30
      direct lattice vectors                 reciprocal lattice vectors
    13.003980404  0.000000000  0.000000000     0.076899531  0.000000000  0.000000000
     0.000000000 11.830378115  0.000000000     0.000000000  0.084528152  0.000000000
     0.000000000  0.000000000 30.552748813     0.000000000  0.000000000  0.032730279

  length of vectors
    13.003980404 11.830378115 30.552748813     0.076899531  0.084528152  0.032730279


 FORCES acting on ions:
    Electron-Ion                     Ewald-Force                    Non-Local-Force
 -----------------------------------------------------------------------------------------------
   -.745E-06 -.606E-06 0.380E+04   0.749E-06 0.523E-06 -.380E+04   -.161E-07 0.270E-07 0.454E+00
   -.429E-06 -.268E-06 0.398E+04   0.466E-06 0.119E-06 -.397E+04   -.166E-07 0.312E-07 -.403E+01
   -.226E-05 -.360E-05 0.193E+04   0.230E-05 0.325E-05 -.193E+04   0.955E-07 0.195E-06 -.467E-01
   -.369E-05 -.662E-06 0.192E+04   0.369E-05 0.401E-06 -.192E+04   0.263E-08 0.254E-07 0.204E+00
   -.183E-04 0.191E-05 -.217E+02   0.183E-04 -.472E-05 0.226E+02   0.329E-07 0.302E-06 -.141E+00
   -.196E-04 -.106E-04 -.945E+01   0.200E-04 0.106E-04 0.835E+01   0.688E-07 0.216E-07 0.357E+00
   -.115E-03 0.845E-04 -.190E+04   0.117E-03 -.882E-04 0.190E+04   -.444E-06 0.687E-06 0.510E-02
   -.844E-04 0.588E-04 -.197E+04   0.848E-04 -.589E-04 0.197E+04   0.495E-07 0.228E-06 -.833E-01
   -.312E-04 0.385E-04 -.379E+04   0.308E-04 -.396E-04 0.379E+04   0.472E-07 0.109E-05 -.230E+00
   0.879E-04 0.257E-04 -.381E+04   -.882E-04 -.264E-04 0.380E+04   -.872E-06 0.540E-06 0.104E+01
   -.777E-06 0.449E-06 0.380E+04   0.771E-06 -.412E-06 -.380E+04   -.300E-08 -.248E-07 0.454E+00
   -.396E-06 0.871E-06 0.398E+04   0.435E-06 -.740E-06 -.397E+04   0.621E-08 -.756E-07 -.403E+01
   -.252E-05 0.225E-05 0.193E+04   0.250E-05 -.219E-05 -.193E+04   0.440E-07 -.392E-07 -.467E-01
   -.385E-05 0.388E-05 0.192E+04   0.392E-05 -.352E-05 -.192E+04   0.263E-08 -.587E-07 0.204E+00
   -.190E-04 -.147E-05 -.217E+02   0.193E-04 0.355E-05 0.226E+02   0.158E-07 -.317E-07 -.141E+00
   -.115E-04 0.367E-04 -.945E+01   0.117E-04 -.362E-04 0.835E+01   0.148E-06 -.404E-06 0.357E+00
   -.327E-04 0.486E-04 -.190E+04   0.345E-04 -.472E-04 0.190E+04   -.470E-06 0.314E-07 0.510E-02
   -.133E-04 0.412E-04 -.197E+04   0.155E-04 -.428E-04 0.197E+04   -.721E-06 0.224E-06 -.833E-01
   -.511E-04 0.146E-03 -.379E+04   0.506E-04 -.150E-03 0.379E+04   0.509E-06 0.137E-05 -.230E+00
   0.261E-05 0.240E-04 -.381E+04   -.727E-06 -.263E-04 0.380E+04   0.166E-05 0.650E-06 0.104E+01
   -.761E-06 0.690E-06 0.380E+04   0.766E-06 -.543E-06 -.380E+04   0.107E-07 -.566E-07 0.454E+00
   -.407E-06 0.169E-06 0.398E+04   0.370E-06 -.115E-06 -.397E+04   -.187E-08 -.386E-09 -.403E+01
   -.164E-05 0.433E-05 0.193E+04   0.172E-05 -.382E-05 -.193E+04   0.323E-07 -.199E-06 -.467E-01
   -.367E-05 0.562E-06 0.192E+04   0.373E-05 -.254E-06 -.192E+04   -.477E-07 -.152E-06 0.204E+00
   -.249E-04 0.221E-04 -.217E+02   0.251E-04 -.240E-04 0.226E+02   -.522E-07 -.181E-06 -.141E+00
   -.613E-06 0.735E-05 -.945E+01   0.534E-06 -.728E-05 0.835E+01   0.138E-06 -.157E-06 0.357E+00
   0.401E-04 0.120E-04 -.190E+04   -.390E-04 -.168E-04 0.190E+04   -.515E-06 0.239E-06 0.510E-02
   0.683E-04 0.594E-04 -.197E+04   -.661E-04 -.601E-04 0.197E+04   -.948E-06 0.351E-07 -.833E-01
   -.134E-04 -.366E-05 -.379E+04   0.124E-04 0.182E-05 0.379E+04   0.185E-06 0.534E-06 -.230E+00
   -.753E-04 -.828E-04 -.381E+04   0.774E-04 0.845E-04 0.380E+04   -.219E-05 -.641E-06 0.104E+01
   -.739E-06 -.551E-06 0.380E+04   0.743E-06 0.432E-06 -.380E+04   -.169E-07 0.735E-08 0.454E+00
   -.385E-06 -.809E-06 0.398E+04   0.400E-06 0.736E-06 -.397E+04   0.145E-07 0.378E-08 -.403E+01
   -.152E-05 -.296E-05 0.193E+04   0.148E-05 0.277E-05 -.193E+04   0.603E-07 0.716E-07 -.467E-01
   -.348E-05 -.374E-05 0.192E+04   0.355E-05 0.337E-05 -.192E+04   -.445E-07 0.140E-06 0.204E+00
   -.200E-04 -.229E-04 -.217E+02   0.203E-04 0.254E-04 0.226E+02   -.794E-07 -.883E-07 -.141E+00
   -.125E-04 -.287E-04 -.945E+01   0.123E-04 0.281E-04 0.835E+01   0.194E-06 0.315E-06 0.357E+00
   0.117E-03 -.153E-03 -.190E+04   -.114E-03 0.161E-03 0.190E+04   0.424E-06 -.601E-06 0.510E-02
   -.174E-04 -.149E-03 -.197E+04   0.181E-04 0.151E-03 0.197E+04   -.631E-06 -.569E-06 -.833E-01
   -.355E-04 -.984E-04 -.379E+04   0.350E-04 0.103E-03 0.379E+04   0.743E-06 -.174E-05 -.230E+00
   0.220E-04 -.429E-04 -.381E+04   -.224E-04 0.447E-04 0.380E+04   -.108E-05 -.226E-06 0.104E+01
   0.736E-06 -.649E-06 0.380E+04   -.746E-06 0.623E-06 -.380E+04   -.237E-08 0.632E-08 0.454E+00
   0.424E-06 -.206E-06 0.398E+04   -.468E-06 0.861E-07 -.397E+04   0.906E-08 0.492E-07 -.403E+01
   0.225E-05 -.344E-05 0.193E+04   -.230E-05 0.297E-05 -.193E+04   -.106E-06 0.201E-06 -.467E-01
   0.371E-05 -.105E-05 0.192E+04   -.367E-05 0.779E-06 -.192E+04   0.700E-08 0.121E-06 0.204E+00
   0.129E-04 -.114E-04 -.217E+02   -.130E-04 0.106E-04 0.226E+02   0.478E-07 0.270E-06 -.141E+00
   0.759E-05 -.831E-05 -.945E+01   -.801E-05 0.814E-05 0.835E+01   0.168E-06 0.147E-06 0.357E+00
   0.111E-04 0.168E-04 -.190E+04   -.136E-04 -.172E-04 0.190E+04   0.296E-06 0.127E-06 0.510E-02
   -.328E-04 -.406E-05 -.197E+04   0.334E-04 0.369E-05 0.197E+04   -.792E-07 0.247E-07 -.833E-01
   0.117E-04 0.272E-04 -.379E+04   -.112E-04 -.250E-04 0.379E+04   -.451E-06 -.106E-05 -.230E+00
   -.369E-04 0.721E-04 -.381E+04   0.366E-04 -.727E-04 0.380E+04   0.508E-06 0.332E-06 0.104E+01
   0.773E-06 0.482E-06 0.380E+04   -.766E-06 -.455E-06 -.380E+04   -.211E-07 0.758E-08 0.454E+00
   0.426E-06 0.860E-06 0.398E+04   -.444E-06 -.727E-06 -.397E+04   0.233E-07 -.631E-07 -.403E+01
[...]
      9.75299      5.91519     18.66094         0.000000      0.000001     -0.001619
      9.75299      4.43639     22.01291         0.000000      0.000003     -0.000206
      0.00000      5.91519     21.63554        -0.000001      0.000001      0.000665
      3.25100      7.39399      8.77438        -0.000000     -0.000000     -3.375903
      6.50199      8.87278      8.77438        -0.000000     -0.000000      2.809392
      6.50199      7.39399     12.02538        -0.000000     -0.000000      0.542753
      3.25100      8.87278     12.02538         0.000000     -0.000000     -0.703709
      3.25100      7.39399     15.27637        -0.000000     -0.000001      0.714335
      6.50199      8.87278     15.27637        -0.000000     -0.000000     -0.763882
      6.50199      7.39399     18.45785        -0.000002     -0.000000      0.004241
      3.25099      8.87278     18.66094         0.000000     -0.000000     -0.001617
      3.25100      7.39399     22.01291         0.000000      0.000001     -0.000205
      6.50199      8.87278     21.63554         0.000000     -0.000000      0.000663
      3.25100     10.35158      8.77438        -0.000000      0.000000     -3.375903
      6.50199      0.00000      8.77438         0.000000      0.000000      2.809392
      6.50199     10.35158     12.02538        -0.000000      0.000000      0.542753
      3.25100      0.00000     12.02538         0.000000      0.000000     -0.703709
      3.25100     10.35158     15.27637        -0.000000      0.000001      0.714336
      6.50199      0.00000     15.27637        -0.000001      0.000000     -0.763882
      6.50199     10.35158     18.45785        -0.000002      0.000000      0.004238
      3.25100      0.00000     18.66094        -0.000001     -0.000001     -0.001620
      3.25100     10.35158     22.01291         0.000001     -0.000001     -0.000205
      6.50199      0.00000     21.63554        -0.000001     -0.000001      0.000664
      3.25100      1.47880      8.77438        -0.000000     -0.000000     -3.375903
      6.50199      2.95759      8.77438        -0.000000      0.000000      2.809392
      6.50199      1.47880     12.02538        -0.000000      0.000000      0.542753
      3.25100      2.95759     12.02538        -0.000000      0.000000     -0.703709
      3.25100      1.47880     15.27637         0.000000     -0.000002      0.714335
      6.50199      2.95759     15.27637        -0.000000     -0.000000     -0.763883
      6.50199      1.47880     18.45785        -0.000001     -0.000002      0.004239
      3.25100      2.95759     18.66094        -0.000002      0.000001     -0.001614
      3.25100      1.47880     22.01291         0.000000     -0.000001     -0.000207
      6.50199      2.95759     21.63554        -0.000001     -0.000000      0.000665
      3.25100      4.43639      8.77438        -0.000000     -0.000000     -3.375903
      6.50199      5.91519      8.77438         0.000000     -0.000000      2.809392
      6.50199      4.43639     12.02538        -0.000000     -0.000000      0.542753
      3.25100      5.91519     12.02538         0.000000     -0.000000     -0.703709
      3.25100      4.43639     15.27637         0.000000      0.000001      0.714334
      6.50199      5.91519     15.27637        -0.000000     -0.000000     -0.763883
      6.50199      4.43639     18.45785        -0.000001      0.000002      0.004241
      3.25100      5.91519     18.66094        -0.000000      0.000001     -0.001618
      3.25100      4.43639     22.01291         0.000000      0.000001     -0.000207
      6.50199      5.91519     21.63554         0.000001      0.000001      0.000665
      9.75299      8.87278      7.50000        -0.000000     -0.000000      1.822593
      9.75299      8.87278     10.04877        -0.000000     -0.000000      1.737704
      1.27438      7.39399      8.77438        -1.833078     -0.000000     -0.762449
     11.72960      7.39399      8.77438         1.833078     -0.000000     -0.762449
      0.00000      8.87278     10.75100        -0.000000     -0.000000     -1.351195
      0.00000      8.87278     13.29976        -0.000000     -0.000000     -0.109726
     11.02737      7.39399     12.02538         0.439824     -0.000000      0.048646
      1.97661      7.39399     12.02538        -0.439824     -0.000000      0.048646
      9.75299      8.87278     14.00199        -0.000000      0.000000     -0.118870
      9.75299      8.87278     16.55076         0.000000      0.000000      0.020235
      1.27438      7.39399     15.27637        -0.499073     -0.000000      0.098885
     11.72960      7.39399     15.27637         0.499072     -0.000000      0.098885
     -0.00000      8.87278     17.27293        -0.000000      0.000000     -0.000308
      0.00000      8.87278     19.82857        -0.000001     -0.000001      0.004760
     11.05596      7.39399     18.54977        -0.001641     -0.000000     -0.000800
      1.94802      7.39399     18.54977         0.001640     -0.000000     -0.000800
      9.75299      8.87278     20.52077        -0.000000     -0.000001      0.004492
      9.75299      8.87278     23.09582         0.000000      0.000001     -0.001916
      1.22334      7.39399     21.95912         0.001003     -0.000000     -0.001200
     11.78064      7.39399     21.95912        -0.001003      0.000000     -0.001201
      9.75299      0.00000      7.50000         0.000000      0.000000      1.822593
      9.75299      0.00000     10.04877        -0.000000      0.000000      1.737704
      1.27438     10.35158      8.77438        -1.833078      0.000000     -0.762449
     11.72960     10.35158      8.77438         1.833078      0.000000     -0.762449
      0.00000      0.00000     10.75100        -0.000000      0.000000     -1.351195
      0.00000      0.00000     13.29976        -0.000000      0.000000     -0.109726
     11.02737     10.35158     12.02538         0.439824      0.000000      0.048646
      1.97661     10.35158     12.02538        -0.439824      0.000000      0.048646
      9.75299      0.00000     14.00199        -0.000000      0.000000     -0.118870
      9.75299      0.00000     16.55076        -0.000000      0.000001      0.020233
      1.27438     10.35158     15.27637        -0.499074     -0.000000      0.098885
     11.72960     10.35158     15.27637         0.499072     -0.000000      0.098885
     -0.00000      0.00000     17.27293        -0.000000     -0.000001     -0.000307
      0.00000     -0.00000     19.82857        -0.000000      0.000001      0.004766
     11.05596     10.35158     18.54977        -0.001641     -0.000000     -0.000800
      1.94802     10.35158     18.54977         0.001640     -0.000000     -0.000800
      9.75299      0.00000     20.52077        -0.000000     -0.000001      0.004492
      9.75299     -0.00000     23.09582        -0.000000      0.000002     -0.001913
      1.22334     10.35158     21.95912         0.001002      0.000000     -0.001199
     11.78064     10.35158     21.95912        -0.001002     -0.000001     -0.001200
      9.75299      2.95759      7.50000        -0.000000      0.000000      1.822593
      9.75299      2.95759     10.04877         0.000000      0.000000      1.737704
      1.27438      1.47880      8.77438        -1.833078      0.000000     -0.762449
     11.72960      1.47880      8.77438         1.833078      0.000000     -0.762449
      0.00000      2.95759     10.75100        -0.000000      0.000000     -1.351195
      0.00000      2.95759     13.29976        -0.000000      0.000000     -0.109726
     11.02737      1.47880     12.02538         0.439824      0.000000      0.048646
      1.97661      1.47880     12.02538        -0.439824      0.000000      0.048646
      9.75299      2.95759     14.00199        -0.000000      0.000000     -0.118870
      9.75299      2.95759     16.55076         0.000000     -0.000000      0.020235
      1.27438      1.47880     15.27637        -0.499073      0.000001      0.098885
     11.72960      1.47880     15.27637         0.499072      0.000001      0.098885
     -0.00000      2.95759     17.27293        -0.000001     -0.000000     -0.000306
     -0.00000      2.95759     19.82857         0.000000      0.000001      0.004761
     11.05596      1.47880     18.54977        -0.001641      0.000000     -0.000802
      1.94802      1.47880     18.54977         0.001640      0.000001     -0.000800
      9.75299      2.95759     20.52077        -0.000000      0.000002      0.004494
      9.75299      2.95759     23.09582         0.000000     -0.000001     -0.001914
      1.22334      1.47880     21.95912         0.001003      0.000001     -0.001200
     11.78064      1.47880     21.95912        -0.001003      0.000001     -0.001200
      9.75299      5.91519      7.50000         0.000000     -0.000000      1.822593
      9.75299      5.91519     10.04877         0.000000     -0.000000      1.737704
      1.27438      4.43639      8.77438        -1.833078     -0.000000     -0.762449
     11.72960      4.43639      8.77438         1.833078      0.000000     -0.762449
      0.00000      5.91519     10.75100        -0.000000     -0.000000     -1.351195
      0.00000      5.91519     13.29976        -0.000000     -0.000000     -0.109726
     11.02737      4.43639     12.02538         0.439824     -0.000000      0.048646
      1.97661      4.43639     12.02538        -0.439824     -0.000000      0.048646
      9.75299      5.91519     14.00199         0.000000     -0.000000     -0.118870
      9.75299      5.91519     16.55076         0.000000     -0.000000      0.020233
      1.27438      4.43639     15.27637        -0.499073     -0.000000      0.098885
     11.72960      4.43639     15.27637         0.499072     -0.000000      0.098885
     -0.00000      5.91519     17.27293        -0.000000      0.000000     -0.000306
      0.00000      5.91519     19.82857        -0.000000     -0.000000      0.004764
     11.05596      4.43639     18.54977        -0.001641      0.000000     -0.000801
      1.94802      4.43639     18.54977         0.001640     -0.000000     -0.000800
      9.75299      5.91519     20.52077        -0.000000      0.000000      0.004492
      9.75299      5.91519     23.09582        -0.000000     -0.000001     -0.001915
      1.22334      4.43639     21.95912         0.001002     -0.000001     -0.001200
     11.78064      4.43639     21.95912        -0.001003      0.000000     -0.001201
      3.25100      8.87278      7.50000        -0.000000     -0.000000      1.822593
      3.25100      8.87278     10.04877        -0.000000     -0.000000      1.737704
      7.77637      7.39399      8.77438        -1.833078     -0.000000     -0.762449
      5.22761      7.39399      8.77438         1.833078     -0.000000     -0.762449
      6.50199      8.87278     10.75100         0.000000     -0.000000     -1.351195
      6.50199      8.87278     13.29976         0.000000     -0.000000     -0.109726
      4.52538      7.39399     12.02538         0.439824     -0.000000      0.048646
      8.47860      7.39399     12.02538        -0.439824     -0.000000      0.048646
      3.25100      8.87278     14.00199        -0.000000     -0.000000     -0.118871
      3.25100      8.87278     16.55076         0.000000     -0.000000      0.020234
      7.77637      7.39399     15.27637        -0.499072     -0.000000      0.098885
      5.22761      7.39399     15.27637         0.499073     -0.000000      0.098885
      6.50199      8.87278     17.27293         0.000000      0.000001     -0.000308
      6.50199      8.87278     19.82857         0.000001     -0.000001      0.004760
      4.55397      7.39399     18.54977        -0.001641     -0.000001     -0.000800
      8.45001      7.39399     18.54977         0.001642     -0.000000     -0.000799
      3.25100      8.87278     20.52077        -0.000001      0.000000      0.004491
      3.25100      8.87278     23.09582         0.000000     -0.000001     -0.001915
      7.72533      7.39399     21.95912         0.001003      0.000001     -0.001200
      5.27865      7.39399     21.95912        -0.001002      0.000000     -0.001200
      3.25100      0.00000      7.50000         0.000000      0.000000      1.822593
      3.25100      0.00000     10.04877        -0.000000      0.000000      1.737704
      7.77637     10.35158      8.77438        -1.833078      0.000000     -0.762449
      5.22761     10.35158      8.77438         1.833078      0.000000     -0.762449
      6.50199      0.00000     10.75100         0.000000      0.000000     -1.351195
      6.50199      0.00000     13.29976         0.000000      0.000000     -0.109726
      4.52538     10.35158     12.02538         0.439824      0.000000      0.048646
      8.47860     10.35158     12.02538        -0.439824      0.000000      0.048646
      3.25100      0.00000     14.00199         0.000000      0.000000     -0.118871
      3.25100      0.00000     16.55076         0.000001      0.000001      0.020232
      7.77637     10.35158     15.27637        -0.499072     -0.000000      0.098886
      5.22761     10.35158     15.27637         0.499073      0.000000      0.098885
      6.50199      0.00000     17.27293         0.000000     -0.000001     -0.000307
      6.50199      0.00000     19.82857         0.000000      0.000000      0.004762
      4.55397     10.35158     18.54977        -0.001641     -0.000000     -0.000801
      8.45001     10.35158     18.54977         0.001642     -0.000001     -0.000801
      3.25100      0.00000     20.52077        -0.000000     -0.000000      0.004491
      3.25100     -0.00000     23.09582        -0.000000      0.000002     -0.001913
      7.72533     10.35158     21.95912         0.001002     -0.000001     -0.001200
      5.27865     10.35158     21.95912        -0.001003     -0.000001     -0.001199
      3.25100      2.95759      7.50000        -0.000000     -0.000000      1.822593
      3.25100      2.95759     10.04877         0.000000      0.000000      1.737704
      7.77637      1.47880      8.77438        -1.833078      0.000000     -0.762449
      5.22761      1.47880      8.77438         1.833078      0.000000     -0.762449
      6.50199      2.95759     10.75100         0.000000      0.000000     -1.351195
      6.50199      2.95759     13.29976         0.000000      0.000000     -0.109726
      4.52538      1.47880     12.02538         0.439824      0.000000      0.048646
      8.47860      1.47880     12.02538        -0.439824      0.000000      0.048646
      3.25100      2.95759     14.00199         0.000000      0.000000     -0.118871
      3.25100      2.95759     16.55076         0.000001      0.000000      0.020235
      7.77637      1.47880     15.27637        -0.499072      0.000000      0.098885
      5.22761      1.47880     15.27637         0.499073      0.000000      0.098884
      6.50199      2.95759     17.27293         0.000000      0.000000     -0.000306
      6.50199      2.95759     19.82857         0.000000      0.000001      0.004758
      4.55397      1.47880     18.54977        -0.001640      0.000000     -0.000801
      8.45001      1.47880     18.54977         0.001642      0.000001     -0.000801
      3.25100      2.95759     20.52077         0.000000     -0.000000      0.004492
      3.25100      2.95759     23.09582         0.000000      0.000001     -0.001914
      7.72533      1.47880     21.95912         0.001003     -0.000001     -0.001200
      5.27865      1.47880     21.95912        -0.001003      0.000001     -0.001199
      3.25100      5.91519      7.50000         0.000000     -0.000000      1.822593
      3.25100      5.91519     10.04877        -0.000000     -0.000000      1.737704
      7.77637      4.43639      8.77438        -1.833078      0.000000     -0.762449
      5.22761      4.43639      8.77438         1.833078     -0.000000     -0.762449
      6.50199      5.91519     10.75100         0.000000     -0.000000     -1.351195
      6.50199      5.91519     13.29976         0.000000     -0.000000     -0.109726
      4.52538      4.43639     12.02538         0.439824     -0.000000      0.048646
      8.47860      4.43639     12.02538        -0.439824     -0.000000      0.048646
      3.25100      5.91519     14.00199        -0.000000     -0.000000     -0.118871
      3.25100      5.91519     16.55076         0.000000     -0.000001      0.020233
      7.77637      4.43639     15.27637        -0.499072     -0.000000      0.098885
      5.22761      4.43639     15.27637         0.499073     -0.000000      0.098885
      6.50199      5.91519     17.27293        -0.000000     -0.000000     -0.000306
      6.50199      5.91519     19.82857         0.000000     -0.000000      0.004760
      4.55397      4.43639     18.54977        -0.001641      0.000001     -0.000801
      8.45001      4.43639     18.54977         0.001642      0.000000     -0.000801
      3.25100      5.91519     20.52077        -0.000000     -0.000000      0.004492
      3.25100      5.91519     23.09582        -0.000000     -0.000002     -0.001914
      7.72533      4.43639     21.95912         0.001003      0.000001     -0.001200
      5.27865      4.43639     21.95912        -0.001002     -0.000000     -0.001200
 -----------------------------------------------------------------------------------
    total drift:                                0.000001     -0.000000     -0.005437


--------------------------------------------------------------------------------------------------------



  FREE ENERGIE OF THE ION-ELECTRON SYSTEM (eV)
  ---------------------------------------------------
  free  energy   TOTEN  =     -2125.87129100 eV

  energy  without entropy=    -2125.87129100  energy(sigma->0) =    -2125.87129100

 d Force = 0.3607907E-04[ 0.797E-05, 0.642E-04]  d Energy = 0.4546905E-04-0.939E-05
 d Force = 0.1274720E+02[ 0.127E+02, 0.127E+02]  d Ewald  = 0.1274721E+02-0.112E-04


--------------------------------------------------------------------------------------------------------


    POTLOK:  cpu time      2.5926: real time      2.5927


--------------------------------------------------------------------------------------------------------


 Conjugate gradient step on ions:
 trial-energy change:   -0.000045  1 .order   -0.000036   -0.000064   -0.000008
  (g-gl).g = 0.102E-03      g.g   = 0.116E-03  gl.gl    = 0.940E-03
 g(Force)  = 0.116E-03   g(Stress)= 0.000E+00 ortho     = 0.209E-04
 gamma     =   0.10840
 trial     =   0.54316
 opt step  =   0.58034  (harmonic =   0.62016) maximal distance =0.00039238
 next E    = -2125.871291   (d E  =  -0.00005)


--------------------------------------------------------------------------------------------------------


  
 reached required accuracy - stopping structural energy minimisation
     LOOP+:  cpu time    265.1487: real time    265.3039
    4ORBIT:  cpu time      0.0000: real time      0.0000

 total amount of memory used by VASP MPI-rank0   202817. kBytes
=======================================================================

   base      :      30000. kBytes
   nonl-proj :      98242. kBytes
   fftplans  :      12882. kBytes
   grid      :      18852. kBytes
   one-center:        466. kBytes
   wavefun   :      42375. kBytes

  
  
 General timing and accounting informations for this job:
 ========================================================
  
                  Total CPU time used (sec):    16937.100
                            User time (sec):    16772.119
                          System time (sec):      164.981
                         Elapsed time (sec):    16957.000
  
                   Maximum memory used (kb):      512460.
                   Average memory used (kb):          N/A
  
                          Minor page faults:     20670414
                          Major page faults:           53
                 Voluntary context switches:        46685
