 vasp.6.3.0 20Jan22 (build Aug 21 2024 11:13:42) complex                         
 executed on        HPECrayEX_GCC date 2024.08.23  20:07:34
 running  512 mpi-ranks, with    1 threads/rank
 distrk:  each k-point on  512 cores,    1 groups
 distr:  one band on NCORE=   8 cores,   64 groups


--------------------------------------------------------------------------------------------------------


 INCAR:
   SYSTEM = MgO-rocksalt
   ISMEAR = 0
   SIGMA = 0.05
   EDIFF = 1E-6
   ALGO = ALL
   ISTART = 0
   IBRION = -1
   NSW = 0
   ISYM = 0
   DIPOL = 0.5 0.5 0.5
   IDIPOL = 4
   LDIPOL = .TRUE.
   GGA = PE
   IVDW = 1
   VDW_C6 = 1.75 0.14
   VDW_R0 = 1.452 1.001
   ENCUT = 600
   PREC = Accurate
   LASPH = .TRUE.
   LREAL = .FALSE.
   ISPIN = 1
   NELM = 200
   NELMIN = 8
   NCORE = 8
   KPAR = 1
   LWAVE = .FALSE.
   LCHARG = .FALSE.

 POTCAR:    PAW_PBE C 08Apr2002                   
 POTCAR:    PAW_PBE H 15Jun2001                   
 POTCAR:    PAW_PBE C 08Apr2002                   
   SHA256 =  253f7b50bb8d59471dbedb8285d89021f4a42ed1a2c5d38a03a736e69125dd95 C/POTCAR              
   COPYR  = (c) Copyright 08Apr2002 Georg Kresse                                                    
   COPYR  = This file is part of the software VASP. Any use, copying, and all other rights are regul
   COPYR  = If you do not have a valid VASP license, you may not use, copy or distribute this file. 
   VRHFIN =C: s2p2                                                                                  
   LEXCH  = PE                                                                                      
   EATOM  =   147.1560 eV,   10.8157 Ry                                                             
                                                                                                    
   TITEL  = PAW_PBE C 08Apr2002                                                                     
   LULTRA =        F    use ultrasoft PP ?                                                          
   IUNSCR =        1    unscreen: 0-lin 1-nonlin 2-no                                               
   RPACOR =    1.200    partial core radius                                                         
   POMASS =   12.011; ZVAL   =    4.000    mass and valenz                                          
   RCORE  =    1.500    outmost cutoff radius                                                       
   RWIGS  =    1.630; RWIGS  =    0.863    wigner-seitz radius (au A)                               
   ENMAX  =  400.000; ENMIN  =  300.000 eV                                                          
   ICORE  =        2    local potential                                                             
   LCOR   =        T    correct aug charges                                                         
   LPAW   =        T    paw PP                                                                      
   EAUG   =  644.873                                                                                
   DEXC   =    0.000                                                                                
   RMAX   =    1.529    core radius for proj-oper                                                   
   RAUG   =    1.300    factor for augmentation sphere                                              
   RDEP   =    1.501    radius for radial grids                                                     
   RDEPT  =    1.300    core radius for aug-charge                                                  
                                                                                                    
   Atomic configuration                                                                             
    4 entries                                                                                       
     n  l   j            E        occ.                                                              
     1  0  0.50      -273.3789   2.0000                                                             
     2  0  0.50       -13.7508   2.0000                                                             
     2  1  0.50        -5.2854   2.0000                                                             
     3  2  1.50        -5.4423   0.0000                                                             
   Description                                                                                      
     l       E           TYP  RCUT    TYP  RCUT                                                     
     0    -13.7508458     23  1.200                                                                 
     0     -8.2022199     23  1.200                                                                 
     1     -5.2854383     23  1.500                                                                 
     1     34.0145650     23  1.500                                                                 
     2     -5.4423304      7  1.500                                                                 
  local pseudopotential read in
  partial core-charges read in
  partial kinetic energy density read in
  atomic valenz-charges read in
  non local Contribution for L=           0  read in
    real space projection operators read in
  non local Contribution for L=           0  read in
    real space projection operators read in
  non local Contribution for L=           1  read in
    real space projection operators read in
  non local Contribution for L=           1  read in
    real space projection operators read in
    PAW grid and wavefunctions read in

   number of l-projection  operators is LMAX  =           4
   number of lm-projection operators is LMMAX =           8

 POTCAR:    PAW_PBE H 15Jun2001                   
   SHA256 =  030f79b5d3ab3cf0e668861823c8fb652ff669f3e15e46930bd03bfd63a607b6 H/POTCAR              
   COPYR  = (c) Copyright 15Jun2001 Georg Kresse                                                    
   COPYR  = This file is part of the software VASP. Any use, copying, and all other rights are regul
   COPYR  = If you do not have a valid VASP license, you may not use, copy or distribute this file. 
   VRHFIN =H: ultrasoft test                                                                        
   LEXCH  = PE                                                                                      
   EATOM  =    12.4884 eV,    0.9179 Ry                                                             
                                                                                                    
   TITEL  = PAW_PBE H 15Jun2001                                                                     
   LULTRA =        F    use ultrasoft PP ?                                                          
   IUNSCR =        0    unscreen: 0-lin 1-nonlin 2-no                                               
   RPACOR =    0.000    partial core radius                                                         
   POMASS =    1.000; ZVAL   =    1.000    mass and valenz                                          
   RCORE  =    1.100    outmost cutoff radius                                                       
   RWIGS  =    0.700; RWIGS  =    0.370    wigner-seitz radius (au A)                               
   ENMAX  =  250.000; ENMIN  =  200.000 eV                                                          
   RCLOC  =    0.701    cutoff for local pot                                                        
   LCOR   =        T    correct aug charges                                                         
   LPAW   =        T    paw PP                                                                      
   EAUG   =  400.000                                                                                
   RMAX   =    1.123    core radius for proj-oper                                                   
   RAUG   =    1.200    factor for augmentation sphere                                              
   RDEP   =    1.112    radius for radial grids                                                     
   RDEPT  =    0.926    core radius for aug-charge                                                  
                                                                                                    
   Atomic configuration                                                                             
    2 entries                                                                                       
     n  l   j            E        occ.                                                              
     1  0  0.50        -6.4927   1.0000                                                             
     2  1  0.50        -3.4015   0.0000                                                             
   Description                                                                                      
     l       E           TYP  RCUT    TYP  RCUT                                                     
     0     -6.4927494     23  1.100                                                                 
     0      6.8029130     23  1.100                                                                 
     1     -4.0817478     23  1.100                                                                 
  local pseudopotential read in
  atomic valenz-charges read in
  non local Contribution for L=           0  read in
    real space projection operators read in
  non local Contribution for L=           0  read in
    real space projection operators read in
  non local Contribution for L=           1  read in
    real space projection operators read in
    PAW grid and wavefunctions read in

   number of l-projection  operators is LMAX  =           3
   number of lm-projection operators is LMMAX =           5

  PAW_PBE C 08Apr2002                   :
 energy of atom  1       EATOM= -147.1560
 kinetic energy error for atom=    0.0057 (will be added to EATOM!!)
  PAW_PBE H 15Jun2001                   :
 energy of atom  2       EATOM=  -12.4884
 kinetic energy error for atom=    0.0004 (will be added to EATOM!!)


 POSCAR:  C  H
  positions in direct lattice
  No initial velocities read in
 exchange correlation table for  LEXCH =        8
   RHO(1)=    0.500       N(1)  =     2000
   RHO(2)=  100.500       N(2)  =     4000



--------------------------------------------------------------------------------------------------------


 ion  position               nearest neighbor table
   1  0.500  0.500  0.500-   3 1.10   2 1.10   5 1.10   4 1.10
   2  0.500  0.554  0.539-   1 1.10
   3  0.500  0.446  0.539-   1 1.10
   4  0.554  0.500  0.461-   1 1.10
   5  0.446  0.500  0.461-   1 1.10


IMPORTANT INFORMATION: All symmetrisations will be switched off!
NOSYMM: (Re-)initialisation of all symmetry stuff for point group C_1.


----------------------------------------------------------------------------------------

                                     Primitive cell                                     

  volume of cell :    4591.1593

  direct lattice vectors                    reciprocal lattice vectors
    16.813506227  0.000000000  0.000000000     0.059475994  0.000000000  0.000000000
     0.000000000 16.800829183  0.000000000     0.000000000  0.059520872  0.000000000
     0.000000000  0.000000000 16.252993436     0.000000000  0.000000000  0.061527128

  length of vectors
    16.813506227 16.800829183 16.252993436     0.059475994  0.059520872  0.061527128

  position of ions in fractional coordinates (direct lattice)
     0.500000000  0.499999993  0.499909999
     0.500000001  0.553593461  0.538546543
     0.500000000  0.446406539  0.538546543
     0.553930043  0.499999996  0.461453457
     0.446069957  0.499999998  0.461453457

  ion indices of the primitive-cell ions
   primitive index   ion index
                 1           1
                 2           2
                 3           3
                 4           4
                 5           5

----------------------------------------------------------------------------------------



 KPOINTS: pymatgen v2020.8.13 with grid density = 

Automatic generation of k-mesh.
 Grid dimensions read from file:
 generate k-points for:    1    1    1

 Generating k-lattice:

  Cartesian coordinates                     Fractional coordinates (reciprocal lattice)
     0.059475994  0.000000000  0.000000000     1.000000000  0.000000000  0.000000000
     0.000000000  0.059520872  0.000000000     0.000000000  1.000000000  0.000000000
     0.000000000  0.000000000  0.061527128     0.000000000  0.000000000  1.000000000

  Length of vectors
     0.059475994  0.059520872  0.061527128

  Shift w.r.t. Gamma in fractional coordinates (k-lattice)
     0.000000000  0.000000000  0.000000000

 
 Subroutine IBZKPT returns following result:
 ===========================================
 
 Found      1 irreducible k-points:
 
 Following reciprocal coordinates:
            Coordinates               Weight
  0.000000  0.000000  0.000000      1.000000
 
 Following cartesian coordinates:
            Coordinates               Weight
  0.000000  0.000000  0.000000      1.000000
 


--------------------------------------------------------------------------------------------------------




 Dimension of arrays:
   k-points           NKPTS =      1   k-points in BZ     NKDIM =      1   number of bands    NBANDS=     64
   number of dos      NEDOS =    301   number of ions     NIONS =      5
   non local maximal  LDIM  =      4   non local SUM 2l+1 LMDIM =      8
   total plane-waves  NPLWV = ******
   max r-space proj   IRMAX =      1   max aug-charges    IRDMAX=   7252
   dimension x,y,z NGX =   140 NGY =  140 NGZ =  140
   dimension x,y,z NGXF=   280 NGYF=  280 NGZF=  280
   support grid    NGXF=   280 NGYF=  280 NGZF=  280
   ions per type =               1   4
   NGX,Y,Z   is equivalent  to a cutoff of  13.84, 13.85, 14.32 a.u.
   NGXF,Y,Z  is equivalent  to a cutoff of  27.69, 27.71, 28.64 a.u.

 SYSTEM =  MgO-rocksalt                            
 POSCAR =   C  H                                   

--------------------------------------------------------------------------------------------------------


  energy-cutoff  :      600.00
  volume of cell :     4591.16
      direct lattice vectors                 reciprocal lattice vectors
    16.813506227  0.000000000  0.000000000     0.059475994  0.000000000  0.000000000
     0.000000000 16.800829183  0.000000000     0.000000000  0.059520872  0.000000000
     0.000000000  0.000000000 16.252993436     0.000000000  0.000000000  0.061527128

  length of vectors
    16.813506227 16.800829183 16.252993436     0.059475994  0.059520872  0.061527128



 k-points in units of 2pi/SCALE and weight: pymatgen v2020.8.13 with grid density = 
   0.00000000  0.00000000  0.00000000       1.000

 k-points in reciprocal lattice and weights: pymatgen v2020.8.13 with grid density = 
   0.00000000  0.00000000  0.00000000       1.000

 position of ions in fractional coordinates (direct lattice) 
   0.50000000  0.49999999  0.49991000
   0.50000000  0.55359346  0.53854654
   0.50000000  0.44640654  0.53854654
   0.55393004  0.50000000  0.46145346
   0.44606996  0.50000000  0.46145346

 position of ions in cartesian coordinates  (Angst):
   8.40675311  8.40041448  8.12503393
   8.40675313  9.30082918  8.75299344
   8.40675311  7.50000000  8.75299343
   9.31350623  8.40041453  7.50000000
   7.50000000  8.40041455  7.50000002



--------------------------------------------------------------------------------------------------------

--------------------------------------- Iteration      FINAL  ---------------------------------------


--------------------OUTCAR has been truncated-------------------------


--------------------OUTCAR has been truncated-------------------------


--------------------OUTCAR has been truncated-------------------------


--------------------OUTCAR has been truncated-------------------------


--------------------OUTCAR has been truncated-------------------------


--------------------OUTCAR has been truncated-------------------------


--------------------OUTCAR has been truncated-------------------------


--------------------OUTCAR has been truncated-------------------------


--------------------OUTCAR has been truncated-------------------------


--------------------OUTCAR has been truncated-------------------------


  DFT-D2 method for vdW energy calculation
  -------------------------------------------------------------------

  Parameters of vdW forcefield:
         C6(Jnm^6/mol)     R0(A)
   -----------------------------
   C        1.750          1.452
   H        0.140          1.001

  vdW correction parametrized for the method pbe       

  IVDW =   1
  VDW_RADIUS =    50.000 A
  VDW_S6 =     0.750
  VDW_SR =     1.000
  VDW_D =    20.000
  LVDW_EWALD = F

  Number of pair interactions contributing to vdW energy:    1654
  Edisp (eV):   -0.02215
    FORVDW:  cpu time      0.0018: real time      0.0018

  FORCE on cell =-STRESS in cart. coord.  units (eV):
  Direction    XX          YY          ZZ          XY          YZ          ZX
  --------------------------------------------------------------------------------------
  Alpha Z     0.05276     0.05276     0.05276
  Ewald      60.07765    59.76665    59.43798    -0.00000    -0.00001     0.00000
  Hartree   110.91646   110.75725   112.55557    -0.00000    -0.00000    -0.00000
  E(xc)     -27.18227   -27.18639   -27.20132     0.00000    -0.00000    -0.00000
  Local    -229.31135  -228.81836  -230.83167     0.00000     0.00001    -0.00000
  n-local   -15.72937   -15.75515   -15.74730     0.00000     0.00000    -0.00000
  augment     0.12942     0.12876     0.13257    -0.00000     0.00000    -0.00000
  Kinetic   100.62777   100.85216   101.55896    -0.00000     0.00000     0.00000
  Fock        0.00000     0.00000     0.00000     0.00000     0.00000     0.00000
  vdW         0.07568     0.07309     0.06939    -0.00000     0.00000    -0.00000
  -------------------------------------------------------------------------------------
  Total      -0.34325    -0.12923     0.02693    -0.00000    -0.00000     0.00000
  in kB      -0.11978    -0.04510     0.00940    -0.00000    -0.00000     0.00000
  external pressure =       -0.05 kB  Pullay stress =        0.00 kB


 VOLUME and BASIS-vectors are now :
 -----------------------------------------------------------------------------
  energy-cutoff  :      600.00
  volume of cell :     4591.16
      direct lattice vectors                 reciprocal lattice vectors
    16.813506227  0.000000000  0.000000000     0.059475994  0.000000000  0.000000000
     0.000000000 16.800829183  0.000000000     0.000000000  0.059520872  0.000000000
     0.000000000  0.000000000 16.252993436     0.000000000  0.000000000  0.061527128

  length of vectors
    16.813506227 16.800829183 16.252993436     0.059475994  0.059520872  0.061527128


 FORCES acting on ions:
    Electron-Ion                     Ewald-Force                    Non-Local-Force
 -----------------------------------------------------------------------------------------------
   -.382E-06 -.304E-05 0.689E+00   0.546E-06 0.526E-05 -.778E+00   0.142E-06 0.310E-05 0.106E-01
   -.905E-06 -.437E+02 -.304E+02   0.998E-06 0.481E+02 0.336E+02   -.982E-07 -.451E+01 -.313E+01
   0.316E-06 0.437E+02 -.304E+02   -.355E-06 -.481E+02 0.336E+02   0.280E-07 0.451E+01 -.313E+01
   -.437E+02 -.170E-05 0.301E+02   0.479E+02 0.179E-05 -.332E+02   -.449E+01 -.283E-06 0.307E+01
   0.437E+02 -.302E-05 0.301E+02   -.479E+02 0.323E-05 -.332E+02   0.449E+01 -.431E-06 0.307E+01
 -----------------------------------------------------------------------------------------------
   -.293E-06 -.426E-05 0.108E+00   0.711E-14 0.237E-14 -.711E-14   0.227E-06 0.433E-05 -.108E+00


 POSITION                                       TOTAL-FORCE (eV/Angst)
 -----------------------------------------------------------------------------------
      8.40675      8.40041      8.12503         0.000000      0.000005     -0.076964
      8.40675      9.30083      8.75299         0.000000     -0.046163      0.048203
      8.40675      7.50000      8.75299         0.000000      0.046158      0.048206
      9.31351      8.40041      7.50000        -0.163906     -0.000000     -0.009722
      7.50000      8.40041      7.50000         0.163905     -0.000000     -0.009723
 -----------------------------------------------------------------------------------
    total drift:                               -0.000000      0.000000     -0.000015


--------------------------------------------------------------------------------------------------------



  FREE ENERGIE OF THE ION-ELECTRON SYSTEM (eV)
  ---------------------------------------------------
  free  energy   TOTEN  =       -24.06690309 eV

  energy  without entropy=      -24.06690309  energy(sigma->0) =      -24.06690309



--------------------------------------------------------------------------------------------------------


    POTLOK:  cpu time      0.1604: real time      0.1604


--------------------------------------------------------------------------------------------------------


     LOOP+:  cpu time     20.3913: real time     20.4556
    4ORBIT:  cpu time      0.0000: real time      0.0000

 total amount of memory used by VASP MPI-rank0    66429. kBytes
=======================================================================

   base      :      30000. kBytes
   nonl-proj :       3993. kBytes
   fftplans  :      12944. kBytes
   grid      :      18565. kBytes
   one-center:          3. kBytes
   wavefun   :        924. kBytes

  
  
 General timing and accounting informations for this job:
 ========================================================
  
                  Total CPU time used (sec):       49.249
                            User time (sec):       48.290
                          System time (sec):        0.959
                         Elapsed time (sec):       63.632
  
                   Maximum memory used (kb):      215204.
                   Average memory used (kb):          N/A
  
                          Minor page faults:        29476
                          Major page faults:         1094
                 Voluntary context switches:        10841
