 **********************************************************************
                          MRCC program system
 **********************************************************************
 
                              Written by
     Mihaly Kallay, Peter R. Nagy, David Mester, Laszlo Gyevi-Nagy,
        Jozsef Csoka, P. Bernat Szabo, Zoltan Rolik, Gyula Samu,
     Jozsef Csontos, Bence Hegely, Adam Ganyecz, Istvan Ladjanszki,
       Lorant Szegedy, Bence Ladoczki, Klara Petrov, Mate Farkas,
                    Pal D. Mezei, and Reka A. Horvath
 
        Department of Physical Chemistry and Materials Science
            Budapest University of Technology and Economics
                  Budapest P.O.Box 91, H-1521 Hungary
 
                              www.mrcc.hu
 
                     Release date: August 28, 2023

 ************************ 2024-11-01 18:39:43 *************************
 Executing minp...

 Reading input from MINP...
 
 Input file:
 
calc=LNO-CCSD(T)
scftype=rhf
verbosity=3
mem=100000MB
symm=off
unit=angs
scfiguess=small
scfmaxit=1000
scfalg=locfit1
bpedo=0.99999
ccmaxit=400
usedisk=0
ccsdalg=dfdirect
ccsdthreads=4
ccsdmkl=thr
ptthreads=4
lcorthr=tight
basis_sm=special
def2-SVP
def2-SVP
def2-SVP
def2-SVP
def2-SVP
def2-SVP
def2-SVP
def2-SVP
def2-SVP
def2-SVP
def2-SVP
def2-SVP
def2-SVP
def2-SVP
def2-SVP
def2-SVP
def2-SVP
def2-SVP
def2-SVP
def2-SVP


basis=special
aug-cc-pVDZ
aug-cc-pVDZ
aug-cc-pVDZ
aug-cc-pVDZ
cc-pVDZ
cc-pVDZ
cc-pVDZ
cc-pVDZ
aug-cc-pVDZ
aug-cc-pVDZ
aug-cc-pVDZ
aug-cc-pVDZ
aug-cc-pVDZ
aug-cc-pVDZ
aug-cc-pVDZ
aug-cc-pVDZ
aug-cc-pVDZ
aug-cc-pVDZ
aug-cc-pVDZ
aug-cc-pVDZ


dfbasis_scf=special
def2-QZVPP-RI-JK
def2-QZVPP-RI-JK
def2-QZVPP-RI-JK
def2-QZVPP-RI-JK
def2-QZVPP-RI-JK
def2-QZVPP-RI-JK
def2-QZVPP-RI-JK
def2-QZVPP-RI-JK
def2-QZVPP-RI-JK
def2-QZVPP-RI-JK
def2-QZVPP-RI-JK
def2-QZVPP-RI-JK
def2-QZVPP-RI-JK
def2-QZVPP-RI-JK
def2-QZVPP-RI-JK
def2-QZVPP-RI-JK
def2-QZVPP-RI-JK
def2-QZVPP-RI-JK
def2-QZVPP-RI-JK
def2-QZVPP-RI-JK


dfbasis_cor=special
aug-cc-pVDZ-RI
aug-cc-pVDZ-RI
aug-cc-pVDZ-RI
aug-cc-pVDZ-RI
cc-pVDZ-RI
cc-pVDZ-RI
cc-pVDZ-RI
cc-pVDZ-RI
aug-cc-pVDZ-RI
aug-cc-pVDZ-RI
aug-cc-pVDZ-RI
aug-cc-pVDZ-RI
aug-cc-pVDZ-RI
aug-cc-pVDZ-RI
aug-cc-pVDZ-RI
aug-cc-pVDZ-RI
aug-cc-pVDZ-RI
aug-cc-pVDZ-RI
aug-cc-pVDZ-RI
aug-cc-pVDZ-RI


ecp=special
none
none
none
none
none
none
none
none
none
none
none
none
none
none
none
none
none
none
none
none

charge=0
mult=1
core=3
geom=xyz
20

C                       0.00000033711   -0.00006957891    1.46950423848
O                       0.00000079691    1.15576487802    1.96408033078
O                       0.00000036349   -1.15570036094    1.96405571416
O                       0.00000000000    0.00000000000    0.00000000000
Mg                      0.00000024929    2.20484637813    0.06544084864
Mg                      0.00000024579   -2.20485539840    0.06544759026
Mg                      2.21850991033   -0.00000742419   -0.16405174740
Mg                     -2.21850893576   -0.00000746138   -0.16405374819
O                      -2.12578919050    2.09760044175   -0.11351137219
O                       2.12579000542    2.09760027931   -0.11351127221
O                       2.12579015147   -2.09761398335   -0.11351238107
O                      -2.12578937395   -2.09761419059   -0.11351262991
O                       0.00000030369    2.09082416872   -2.21751149750
O                       0.00000030838   -2.09083755174   -2.21751161349
O                       2.09071006089   -0.00000660658   -2.23517653139
O                      -2.09070935908   -0.00000661050   -2.23517732270
O                       0.00000039642    4.22048592714   -0.07231724719
O                       0.00000039642   -4.22050112868   -0.07231724719
O                       4.22049405304   -0.00000660593   -0.12042758322
O                      -4.22049300278   -0.00000660593   -0.12042758322

ghost=serialno
4,5,6,7,8,9,10,11,12,13,14,15,16,17,18,19,20


 
 
 Checking keyword combinations...
 
 Keywords:
 
--------------------Output has been truncated-------------------------


--------------------Output has been truncated-------------------------


--------------------Output has been truncated-------------------------


--------------------Output has been truncated-------------------------


--------------------Output has been truncated-------------------------


--------------------Output has been truncated-------------------------


--------------------Output has been truncated-------------------------


--------------------Output has been truncated-------------------------


--------------------Output has been truncated-------------------------


--------------------Output has been truncated-------------------------


 
 Final local CC results:
 
 Minimum number of correlated electrons:        16       (100.0%)
 Maximum number of correlated electrons:        16       (100.0%)
 Average number of correlated electrons:        16.0     (100.0%)
 Minimum number of correlated orbitals:         57       ( 13.0%)
 Maximum number of correlated orbitals:         66       ( 15.1%)
 Average number of correlated orbitals:         63.2     ( 14.5%)
 
 CPU time for integral calculations [min]:                  0.279
 Wall time for integral calculations [min]:                 0.048
 
 CPU time for SCF calculation [min]:                        2.618
 Wall time for SCF calculation [min]:                       0.348
 
 CPU time for orbital localization [min]:                   0.043
 Wall time for orbital localization [min]:                  0.020
 
 CPU time for integral transformations [min]:               5.874
 Wall time for integral transformations [min]:              1.208
 
 Reference energy [au]:                                  -187.556736084230
 
 LMP2 correlation energy [au]:                             -0.550701330105
 Total LMP2 energy [au]:                                 -188.107437414335
 
 Total MP2 correction for dropped NAFs [au]:                0.000064444459
 Total MP2 correction [au]:                                -0.000198791176
 
 CPU time for CCSD calculations [min]:                      0.561
 Total CPU time for CCSD [min]:                             9.374
 Wall time for CCSD calculations [min]:                     0.072
 Total wall time for CCSD [min]:                            1.695
 
 CCSD correlation energy [au]:                             -0.537280905849
 Total CCSD energy [au]:                                 -188.094016990080
 CCSD correlation energy + 0.5 MP2 corrections [au]:       -0.537380301437
 Total LNO-CCSD energy with MP2 corrections [au]:        -188.094116385667
 
 CPU time for (T) corrections [min]:                        0.358
 Total CPU time for CCSD(T) [min]:                          9.731
 Wall time for (T) corrections [min]:                       0.047
 Total wall time for CCSD(T) [min]:                         1.741
 
 Total (T) correlation energy contribution [au]:           -0.029561216744
 Total (T) correlation energy+0.5 MP2 correction [au]:     -0.029660612331
 CCSD(T) correlation energy [au]:                          -0.566842122593
 Total CCSD(T) energy [au]:                              -188.123578206823
 CCSD(T) correlation energy + MP2 corrections [au]:        -0.567040913769
 Total LNO-CCSD(T) energy with MP2 corrections [au]:     -188.123776997999
 
 ======================================================================
 ======================================================================
 
 ************************ 2024-11-01 18:42:01 *************************
                      Normal termination of mrcc.
 **********************************************************************
