 vasp.6.3.0 20Jan22 (build Mar 11 2022 13:48:16) complex                        
  
 executed on             LinuxIFC date 2024.01.23  04:17:08
 running on  304 total cores
 distrk:  each k-point on  304 cores,    1 groups
 distr:  one band on NCORE=   2 cores,  152 groups


--------------------------------------------------------------------------------------------------------


 INCAR:
   SYSTEM = TiO2
   ISMEAR = 0
   SIGMA = 0.05
   EDIFF = 1E-5
   ALGO = ALL
   ISTART = 0
   IBRION = -1
   NSW = 0
   ISYM = 0
   ISIF = 2
   EDIFFG = -0.01
   DIPOL = 0.5 0.5 0.5
   IDIPOL = 3
   LDIPOL = .TRUE.
   GGA = RE
   AGGAC = 0.0
   LUSE_VDW = .TRUE.
   LASPH = .TRUE.
   ENCUT = 600
   PREC = Accurate
   LASPH = .TRUE.
   LREAL = .FALSE.
   ISPIN = 1
   NELM = 200
   NELMIN = 8
   NCORE = 2
   KPAR = 1
   LWAVE = .FALSE.
   LCHARG = .FALSE.

 POTCAR:    PAW_PBE Ti_pv 07Sep2000               
 POTCAR:    PAW_PBE O 08Apr2002                   
 -----------------------------------------------------------------------------
|                                                                             |
|           W    W    AA    RRRRR   N    N  II  N    N   GGGG   !!!           |
|           W    W   A  A   R    R  NN   N  II  NN   N  G    G  !!!           |
|           W    W  A    A  R    R  N N  N  II  N N  N  G       !!!           |
|           W WW W  AAAAAA  RRRRR   N  N N  II  N  N N  G  GGG   !            |
|           WW  WW  A    A  R   R   N   NN  II  N   NN  G    G                |
|           W    W  A    A  R    R  N    N  II  N    N   GGGG   !!!           |
|                                                                             |
|     For optimal performance we recommend to set                             |
|       NCORE = 2 up to number-of-cores-per-socket                            |
|     NCORE specifies how many cores store one orbital (NPAR=cpu/NCORE).      |
|     This setting can greatly improve the performance of VASP for DFT.       |
|     The default, NCORE=1 might be grossly inefficient on modern             |
|     multi-core architectures or massively parallel machines. Do your        |
|     own testing! More info at https://www.vasp.at/wiki/index.php/NCORE      |
|     Unfortunately you need to use the default for GW and RPA                |
|     calculations (for HF NCORE is supported but not extensively tested      |
|     yet).                                                                   |
|                                                                             |
 -----------------------------------------------------------------------------

 -----------------------------------------------------------------------------
|                                                                             |
|               ----> ADVICE to this user running VASP <----                  |
|                                                                             |
|     You have switched on vdW-DFT.                                           |
|     This routine was written and supplied by Jiri Klimes. We recommend      |
|     that you carefully read and cite the following publications:            |
|       J. Klimes, D.R. Bowler, A. Michelides                                 |
|          J. Phys.: Cond Matt. 22 022201 (2010)                              |
|       J. Klimes, D.R. Bowler, A. Michelides                                 |
|          Phys. Rev. B. 83, 195131 (2011)                                    |
|     and references therein.                                                 |
|                                                                             |
 -----------------------------------------------------------------------------

 POTCAR:    PAW_PBE Ti_pv 07Sep2000               
   SHA256 =  f757a1b2c6d082f4c628fa3d987464a8763bf92e53844ac0500b0e2ddc9ce5c0 Ti_pv/POTCAR          
   COPYR  = (c) Copyright 07Sep2000 Georg Kresse                                                    
   COPYR  = This file is part of the software VASP. Any use, copying, and all other rights are regul
   COPYR  = If you do not have a valid VASP license, you may not use, copy or distribute this file. 
   VRHFIN =Ti: d3 s1                                                                                
   LEXCH  = PE                                                                                      
   EATOM  =  1042.5995 eV,   76.6289 Ry                                                             
                                                                                                    
   TITEL  = PAW_PBE Ti_pv 07Sep2000                                                                 
   LULTRA =        F    use ultrasoft PP ?                                                          
   IUNSCR =        1    unscreen: 0-lin 1-nonlin 2-no                                               
   RPACOR =    2.200    partial core radius                                                         
   POMASS =   47.880; ZVAL   =   10.000    mass and valenz                                          
   RCORE  =    2.500    outmost cutoff radius                                                       
   RWIGS  =    2.500; RWIGS  =    1.323    wigner-seitz radius (au A)                               
   ENMAX  =  222.335; ENMIN  =  166.751 eV                                                          
   RCLOC  =    1.701    cutoff for local pot                                                        
   LCOR   =        T    correct aug charges                                                         
   LPAW   =        T    paw PP                                                                      
   EAUG   =  482.848                                                                                
   DEXC   =    0.000                                                                                
   RMAX   =    2.564    core radius for proj-oper                                                   
   RAUG   =    1.300    factor for augmentation sphere                                              
   RDEP   =    2.538    radius for radial grids                                                     
   RDEPT  =    1.952    core radius for aug-charge                                                  
                                                                                                    
   Atomic configuration                                                                             
    8 entries                                                                                       
     n  l   j            E        occ.                                                              
     1  0  0.50     -4865.3608   2.0000                                                             
     2  0  0.50      -533.1368   2.0000                                                             
     2  1  1.50      -440.5031   6.0000                                                             
     3  0  0.50       -59.3186   2.0000                                                             
     3  1  1.50       -35.7012   6.0000                                                             
     3  2  2.50        -1.9157   3.0000                                                             
     4  0  0.50        -3.7291   1.0000                                                             
     4  3  2.50        -1.3606   0.0000                                                             
   Description                                                                                      
     l       E           TYP  RCUT    TYP  RCUT                                                     
     1    -35.7012140     23  2.300                                                                 
     1     -1.3605826     23  2.300                                                                 
     2     -1.9156996     23  2.500                                                                 
     2     -0.4063033     23  2.500                                                                 
     0     -3.7290856     23  2.500                                                                 
     0     20.4087390     23  2.500                                                                 
  local pseudopotential read in
  partial core-charges read in
  partial kinetic energy density read in
  atomic valenz-charges read in
  non local Contribution for L=           1  read in
    real space projection operators read in
  non local Contribution for L=           1  read in
    real space projection operators read in
  non local Contribution for L=           2  read in
    real space projection operators read in
  non local Contribution for L=           2  read in
    real space projection operators read in
  non local Contribution for L=           0  read in
    real space projection operators read in
  non local Contribution for L=           0  read in
    real space projection operators read in
    PAW grid and wavefunctions read in
 
   number of l-projection  operators is LMAX  =           6
   number of lm-projection operators is LMMAX =          18
 
 POTCAR:    PAW_PBE O 08Apr2002                   
   SHA256 =  818f92134a0a090dccd8ba1447fa70422a3b330e708bb4f08108d8ae51209ddf O/POTCAR              
   COPYR  = (c) Copyright 08Apr2002 Georg Kresse                                                    
   COPYR  = This file is part of the software VASP. Any use, copying, and all other rights are regul
   COPYR  = If you do not have a valid VASP license, you may not use, copy or distribute this file. 
   VRHFIN =O: s2p4                                                                                  
   LEXCH  = PE                                                                                      
   EATOM  =   432.3788 eV,   31.7789 Ry                                                             
                                                                                                    
   TITEL  = PAW_PBE O 08Apr2002                                                                     
   LULTRA =        F    use ultrasoft PP ?                                                          
   IUNSCR =        1    unscreen: 0-lin 1-nonlin 2-no                                               
   RPACOR =    1.200    partial core radius                                                         
   POMASS =   16.000; ZVAL   =    6.000    mass and valenz                                          
   RCORE  =    1.520    outmost cutoff radius                                                       
   RWIGS  =    1.550; RWIGS  =    0.820    wigner-seitz radius (au A)                               
   ENMAX  =  400.000; ENMIN  =  300.000 eV                                                          
   ICORE  =        2    local potential                                                             
   LCOR   =        T    correct aug charges                                                         
   LPAW   =        T    paw PP                                                                      
   EAUG   =  605.392                                                                                
   DEXC   =    0.000                                                                                
   RMAX   =    1.553    core radius for proj-oper                                                   
   RAUG   =    1.300    factor for augmentation sphere                                              
   RDEP   =    1.550    radius for radial grids                                                     
   RDEPT  =    1.329    core radius for aug-charge                                                  
                                                                                                    
   Atomic configuration                                                                             
    4 entries                                                                                       
     n  l   j            E        occ.                                                              
     1  0  0.50      -514.6923   2.0000                                                             
     2  0  0.50       -23.9615   2.0000                                                             
     2  1  0.50        -9.0305   4.0000                                                             
     3  2  1.50        -9.5241   0.0000                                                             
   Description                                                                                      
     l       E           TYP  RCUT    TYP  RCUT                                                     
     0    -23.9615318     23  1.200                                                                 
     0     -9.5240782     23  1.200                                                                 
     1     -9.0304911     23  1.520                                                                 
     1      8.1634956     23  1.520                                                                 
     2     -9.5240782      7  1.500                                                                 
  local pseudopotential read in
  partial core-charges read in
  partial kinetic energy density read in
  kinetic energy density of atom read in
  atomic valenz-charges read in
  non local Contribution for L=           0  read in
    real space projection operators read in
  non local Contribution for L=           0  read in
    real space projection operators read in
  non local Contribution for L=           1  read in
    real space projection operators read in
  non local Contribution for L=           1  read in
    real space projection operators read in
    PAW grid and wavefunctions read in
 
   number of l-projection  operators is LMAX  =           4
   number of lm-projection operators is LMMAX =           8
 
 -----------------------------------------------------------------------------
|                                                                             |
|               ----> ADVICE to this user running VASP <----                  |
|                                                                             |
|     You have a (more or less) 'large supercell' and for larger cells it     |
|     might be more efficient to use real-space projection operators.         |
|     Therefore, try LREAL= Auto in the INCAR file.                           |
|     Mind: For very accurate calculation, you might also keep the            |
|     reciprocal projection scheme (i.e. LREAL=.FALSE.).                      |
|                                                                             |
 -----------------------------------------------------------------------------

 -----------------------------------------------------------------------------
|                                                                             |
|               ----> ADVICE to this user running VASP <----                  |
|                                                                             |
|     You enforced a specific xc type in the INCAR file but a different       |
|     type was found in the POTCAR file.                                      |
|     I HOPE YOU KNOW WHAT YOU ARE DOING!                                     |
|                                                                             |
 -----------------------------------------------------------------------------

  PAW_PBE Ti_pv 07Sep2000               :
 energy of atom  1       EATOM=-1042.5995
 kinetic energy error for atom=    0.0007 (will be added to EATOM!!)
  PAW_PBE O 08Apr2002                   :
 energy of atom  2       EATOM= -432.3788
 kinetic energy error for atom=    0.0168 (will be added to EATOM!!)
 
 
 POSCAR: Ti  O
  positions in direct lattice
  No initial velocities read in
 exchange correlation table for  LEXCH =       40
   RHO(1)=    0.500       N(1)  =     2000
   RHO(2)=  100.500       N(2)  =     4000
 


--------------------------------------------------------------------------------------------------------


 ion  position               nearest neighbor table
   1  0.750  0.625  0.287-  81 1.96  82 1.96 141 1.96 142 1.96 163 1.99  84 1.99  11 2.96  31 2.96

   2  0.000  0.750  0.287-  84 1.96 104 1.96 103 1.96  83 1.96  85 1.99  32 2.96  12 2.96
   3  0.000  0.625  0.393-  85 1.96  86 1.96 145 1.96 146 1.96  87 1.99  88 1.99  13 2.96  33 2.96

   4  0.750  0.750  0.393- 168 1.96 188 1.96  87 1.96 107 1.96  89 1.99  82 1.99  14 2.96  34 2.96

   5  0.750  0.625  0.500-  89 1.96  90 1.96 149 1.96 150 1.96 171 1.99  92 1.99  15 2.96  35 2.96

   6  0.000  0.750  0.500-  92 1.96 112 1.96 111 1.96  91 1.96  86 1.99  93 2.01  16 2.96  36 2.96

   7  0.000  0.625  0.604- 153 1.90  93 1.90  96 1.96  95 1.96  94 2.02 154 2.02  17 2.96  37 2.96

   8  0.750  0.750  0.611-  97 1.87 176 1.98  95 1.98 196 1.98 115 1.98  90 2.11  38 2.96  18 2.96

   9  0.750  0.625  0.720-  98 1.83 158 1.83 179 2.04 100 2.04 157 2.10  97 2.10  19 2.96  39 2.96

  10  1.000  0.750  0.709-  94 1.82 120 1.95 119 1.95 100 1.95  99 1.95  20 2.96  40 2.96
  11  0.750  0.875  0.287-  81 1.96  82 1.96 101 1.96 102 1.96 183 1.99 104 1.99   1 2.96  21 2.96

  12  0.000  0.000  0.287- 104 1.96 124 1.96 123 1.96 103 1.96 105 1.99  22 2.96   2 2.96
  13  0.000  0.875  0.393-  85 1.96  86 1.96 105 1.96 106 1.96 107 1.99 108 1.99   3 2.96  23 2.96

  14  0.750  0.000  0.393- 188 1.96 208 1.96 107 1.96 127 1.96 109 1.99 102 1.99   4 2.96  24 2.96

  15  0.750  0.875  0.500-  89 1.96  90 1.96 109 1.96 110 1.96 191 1.99 112 1.99   5 2.96  25 2.96

  16  0.000  0.000  0.500- 112 1.96 132 1.96 131 1.96 111 1.96 106 1.99 113 2.01   6 2.96  26 2.96

  17  1.000  0.875  0.604-  93 1.90 113 1.90 115 1.96 116 1.96 114 2.02  94 2.02  27 2.96   7 2.96

  18  0.750  0.000  0.611- 117 1.87 196 1.98 216 1.98 135 1.98 115 1.98 110 2.11   8 2.96  28 2.96

  19  0.750  0.875  0.720- 118 1.83  98 1.83 199 2.03 120 2.04  97 2.10 117 2.10  29 2.96   9 2.96

  20  0.000  0.000  0.709- 114 1.82 119 1.95 139 1.95 140 1.95 120 1.95  10 2.96  30 2.96
  21  0.750  0.125  0.287- 101 1.96 102 1.96 121 1.96 122 1.96 203 1.99 124 1.99  11 2.96  31 2.96

  22  0.000  0.250  0.287- 124 1.96 144 1.96 143 1.96 123 1.96 125 1.99  32 2.96  12 2.96
  23  0.000  0.125  0.393- 105 1.96 106 1.96 125 1.96 126 1.96 127 1.99 128 1.99  13 2.96  33 2.96

  24  0.750  0.250  0.393- 208 1.96 228 1.96 127 1.96 147 1.96 129 1.99 122 1.99  14 2.96  34 2.96

  25  0.750  0.125  0.500- 109 1.96 110 1.96 129 1.96 130 1.96 211 1.99 132 1.99  15 2.96  35 2.96

  26  0.000  0.250  0.500- 132 1.96 152 1.96 151 1.96 131 1.96 126 1.99 133 2.01  16 2.96  36 2.96

  27  1.000  0.125  0.604- 133 1.90 113 1.90 135 1.96 136 1.96 114 2.02 134 2.02  17 2.96  37 2.96

  28  0.750  0.250  0.611- 137 1.87 236 1.98 155 1.98 216 1.98 135 1.98 130 2.11  38 2.96  18 2.96

  29  0.750  0.125  0.720- 118 1.83 138 1.83 219 2.03 140 2.04 137 2.10 117 2.10  19 2.96  39 2.96

  30  1.000  0.250  0.709- 134 1.82 140 1.95 139 1.95 160 1.95 159 1.95  20 2.96  40 2.96
  31  0.750  0.375  0.287- 121 1.96 122 1.96 141 1.96 142 1.96 223 1.99 144 1.99   1 2.96  21 2.96

  32  0.000  0.500  0.287-  84 1.96 144 1.96 143 1.96  83 1.96 145 1.99  22 2.96   2 2.96
  33  0.000  0.375  0.393- 125 1.96 126 1.96 145 1.96 146 1.96 147 1.99 148 1.99   3 2.96  23 2.96

  34  0.750  0.500  0.393- 168 1.96 228 1.96  87 1.96 147 1.96 142 1.99 149 1.99   4 2.96  24 2.96

  35  0.750  0.375  0.500- 129 1.96 130 1.96 149 1.96 150 1.96 231 1.99 152 1.99   5 2.96  25 2.96

  36  0.000  0.500  0.500-  92 1.96 152 1.96 151 1.96  91 1.96 146 1.99 153 2.01   6 2.96  26 2.96

  37  0.000  0.375  0.604- 153 1.90 133 1.90 156 1.96 155 1.96 134 2.02 154 2.02  27 2.96   7 2.96

  38  0.750  0.500  0.611- 157 1.87 176 1.98 236 1.98  95 1.98 155 1.98 150 2.11  28 2.96   8 2.96

  39  0.750  0.375  0.720- 138 1.83 158 1.83 239 2.04 160 2.04 157 2.10 137 2.10  29 2.96   9 2.96

  40  0.999  0.500  0.709- 154 1.82 100 1.95 160 1.95 159 1.95  99 1.95  10 2.96  30 2.96
  41  0.250  0.625  0.287- 161 1.96 162 1.96 221 1.96 222 1.96  83 1.99 164 1.99  51 2.96  71 2.96

  42  0.500  0.750  0.287- 164 1.96 184 1.96 183 1.96 163 1.96 165 1.99  72 2.96  52 2.96
  43  0.500  0.625  0.393- 165 1.96 166 1.96 225 1.96 226 1.96 167 1.99 168 1.99  53 2.96  73 2.96

  44  0.250  0.750  0.393-  88 1.96 108 1.96 167 1.96 187 1.96 169 1.99 162 1.99  54 2.96  74 2.96

  45  0.250  0.625  0.500- 169 1.96 170 1.96 229 1.96 230 1.96  91 1.99 172 1.99  55 2.96  75 2.96

  46  0.500  0.750  0.500- 172 1.96 192 1.96 191 1.96 171 1.96 166 1.99 173 2.01  56 2.96  76 2.96

  47  0.500  0.624  0.605- 233 1.90 173 1.92 176 1.96 175 1.96 174 2.01 234 2.01  77 2.94  57 2.97

  48  0.250  0.750  0.611- 177 1.87 195 1.98 175 1.98 116 1.98  96 1.98 170 2.11  58 2.96  78 2.96

  49  0.249  0.625  0.720- 178 1.83 238 1.84  99 2.03 180 2.04 177 2.09 237 2.09  59 2.96  79 2.97

  50  0.500  0.750  0.708- 174 1.81 180 1.94 179 1.94 199 1.95 200 1.95  60 2.96  80 2.96
  51  0.250  0.875  0.287- 161 1.96 162 1.96 181 1.96 182 1.96 103 1.99 184 1.99  41 2.96  61 2.96

  52  0.500  0.000  0.287- 184 1.96 204 1.96 203 1.96 183 1.96 185 1.99  62 2.96  42 2.96
  53  0.500  0.875  0.393- 165 1.96 166 1.96 185 1.96 186 1.96 187 1.99 188 1.99  43 2.96  63 2.96

  54  0.250  0.000  0.393- 108 1.96 128 1.96 187 1.96 207 1.96 189 1.99 182 1.99  44 2.96  64 2.96

  55  0.250  0.875  0.500- 169 1.96 170 1.96 189 1.96 190 1.96 111 1.99 192 1.99  45 2.96  65 2.96

  56  0.500  0.000  0.500- 192 1.96 212 1.96 211 1.96 191 1.96 186 1.99 193 2.00  46 2.96  66 2.96

  57  0.500  0.875  0.604- 173 1.90 193 1.90 196 1.96 195 1.96 174 2.01 194 2.02  47 2.97  67 2.97

  58  0.250  0.000  0.611- 197 1.87 215 1.98 195 1.98 136 1.98 116 1.98 190 2.11  68 2.96  48 2.96

  59  0.250  0.875  0.720- 198 1.83 178 1.84 200 2.03 119 2.04 197 2.10 177 2.10  49 2.96  69 2.96

  60  0.500  1.000  0.708- 194 1.82 199 1.95 219 1.95 200 1.95 220 1.95  70 2.96  50 2.96
  61  0.250  0.125  0.287- 181 1.96 182 1.96 201 1.96 202 1.96 123 1.99 204 1.99  51 2.96  71 2.96

  62  0.500  0.250  0.287- 204 1.96 224 1.96 223 1.96 203 1.96 205 1.99  72 2.96  52 2.96
  63  0.500  0.125  0.393- 185 1.96 186 1.96 205 1.96 206 1.96 207 1.99 208 1.99  53 2.96  73 2.96

  64  0.250  0.250  0.393- 128 1.96 148 1.96 207 1.96 227 1.96 209 1.99 202 1.99  54 2.96  74 2.96

  65  0.250  0.125  0.500- 189 1.96 190 1.96 209 1.96 210 1.96 131 1.99 212 1.99  55 2.96  75 2.96

  66  0.500  0.250  0.500- 212 1.96 232 1.96 231 1.96 211 1.96 206 1.99 213 2.01  56 2.96  76 2.96

  67  0.500  0.125  0.604- 213 1.90 193 1.90 216 1.96 215 1.96 214 2.01 194 2.02  77 2.97  57 2.97

  68  0.250  0.250  0.611- 217 1.87 215 1.98 235 1.98 136 1.98 156 1.98 210 2.11  58 2.96  78 2.96

  69  0.250  0.125  0.720- 198 1.83 218 1.84 220 2.03 139 2.04 197 2.10 217 2.10  79 2.96  59 2.96

  70  0.500  0.250  0.708- 214 1.81 240 1.94 239 1.94 219 1.95 220 1.95  60 2.96  80 2.96
  71  0.250  0.375  0.287- 201 1.96 202 1.96 221 1.96 222 1.96 143 1.99 224 1.99  41 2.96  61 2.96

  72  0.500  0.500  0.287- 164 1.96 224 1.96 223 1.96 163 1.96 225 1.99  62 2.96  42 2.96
  73  0.500  0.375  0.393- 205 1.96 206 1.96 225 1.96 226 1.96 227 1.99 228 1.99  43 2.96  63 2.96

  74  0.250  0.500  0.393-  88 1.96 148 1.96 167 1.96 227 1.96 222 1.99 229 1.99  44 2.96  64 2.96

  75  0.250  0.375  0.500- 209 1.96 210 1.96 229 1.96 230 1.96 151 1.99 232 1.99  45 2.96  65 2.96

  76  0.500  0.500  0.500- 172 1.96 232 1.96 231 1.96 171 1.96 226 1.99 233 2.01  46 2.96  66 2.96

  77  0.500  0.376  0.605- 233 1.90 213 1.92 236 1.96 235 1.96 214 2.01 234 2.01  47 2.94  67 2.97

  78  0.250  0.500  0.611- 237 1.87 175 1.98 235 1.98  96 1.98 156 1.98 230 2.11  48 2.96  68 2.96

  79  0.249  0.375  0.720- 218 1.83 238 1.84 159 2.03 240 2.04 217 2.09 237 2.09  69 2.96  49 2.97

  80  0.499  0.500  0.711- 234 1.85 240 1.95 180 1.95 239 1.95 179 1.95  70 2.96  50 2.96
  81  0.750  0.750  0.245-   1 1.96  11 1.96
  82  0.750  0.750  0.328-   1 1.96  11 1.96   4 1.99
  83  0.098  0.625  0.287-   2 1.96  32 1.96  41 1.99
  84  0.902  0.625  0.287-   2 1.96  32 1.96   1 1.99
  85  0.000  0.750  0.352-   3 1.96  13 1.96   2 1.99
  86  0.000  0.750  0.435-   3 1.96  13 1.96   6 1.99
  87  0.848  0.625  0.393-   4 1.96  34 1.96   3 1.99
  88  0.152  0.625  0.393-  44 1.96  74 1.96   3 1.99
  89  0.750  0.750  0.458-   5 1.96  15 1.96   4 1.99
  90  0.750  0.750  0.542-   5 1.96  15 1.96   8 2.11
  91  0.098  0.625  0.500-   6 1.96  36 1.96  45 1.99
  92  0.902  0.625  0.500-   6 1.96  36 1.96   5 1.99
  93  1.000  0.750  0.565-  17 1.90   7 1.90   6 2.01
  94  0.000  0.750  0.649-  10 1.82   7 2.02  17 2.02
  95  0.850  0.625  0.607-   7 1.96   8 1.98  38 1.98
  96  0.150  0.625  0.607-   7 1.96  48 1.98  78 1.98
  97  0.750  0.750  0.672-   8 1.87  19 2.10   9 2.10
  98  0.750  0.750  0.756-   9 1.83  19 1.83
  99  0.094  0.625  0.719-  40 1.95  10 1.95  49 2.03
 100  0.906  0.625  0.719-  40 1.95  10 1.95   9 2.04
 101  0.750  0.000  0.245-  11 1.96  21 1.96
 102  0.750  0.000  0.328-  11 1.96  21 1.96  14 1.99
 103  0.098  0.875  0.287-   2 1.96  12 1.96  51 1.99
 104  0.902  0.875  0.287-   2 1.96  12 1.96  11 1.99
 105  0.000  0.000  0.352-  13 1.96  23 1.96  12 1.99
 106  0.000  0.000  0.435-  13 1.96  23 1.96  16 1.99
 107  0.848  0.875  0.393-   4 1.96  14 1.96  13 1.99
 108  0.152  0.875  0.393-  44 1.96  54 1.96  13 1.99
 109  0.750  0.000  0.458-  15 1.96  25 1.96  14 1.99
 110  0.750  0.000  0.542-  15 1.96  25 1.96  18 2.11
 111  0.098  0.875  0.500-   6 1.96  16 1.96  55 1.99
 112  0.902  0.875  0.500-   6 1.96  16 1.96  15 1.99
 113  1.000  1.000  0.566-  27 1.90  17 1.90  16 2.01
 114  0.000  0.000  0.649-  20 1.82  27 2.02  17 2.02
 115  0.850  0.875  0.607-  17 1.96  18 1.98   8 1.98
 116  0.150  0.875  0.607-  17 1.96  58 1.98  48 1.98
 117  0.750  0.000  0.672-  18 1.87  29 2.10  19 2.10
 118  0.750  1.000  0.756-  29 1.83  19 1.83
 119  0.094  0.875  0.719-  10 1.95  20 1.95  59 2.04
 120  0.906  0.875  0.719-  10 1.95  20 1.95  19 2.04
 121  0.750  0.250  0.245-  21 1.96  31 1.96
 122  0.750  0.250  0.328-  21 1.96  31 1.96  24 1.99
 123  0.098  0.125  0.287-  12 1.96  22 1.96  61 1.99
 124  0.902  0.125  0.287-  12 1.96  22 1.96  21 1.99
 125  0.000  0.250  0.352-  23 1.96  33 1.96  22 1.99
 126  0.000  0.250  0.435-  23 1.96  33 1.96  26 1.99
 127  0.848  0.125  0.393-  14 1.96  24 1.96  23 1.99
 128  0.152  0.125  0.393-  54 1.96  64 1.96  23 1.99
 129  0.750  0.250  0.458-  25 1.96  35 1.96  24 1.99
 130  0.750  0.250  0.542-  25 1.96  35 1.96  28 2.11
 131  0.098  0.125  0.500-  16 1.96  26 1.96  65 1.99
 132  0.902  0.125  0.500-  16 1.96  26 1.96  25 1.99
 133  1.000  0.250  0.565-  27 1.90  37 1.90  26 2.01
 134  0.000  0.250  0.649-  30 1.82  37 2.02  27 2.02
 135  0.850  0.125  0.607-  27 1.96  18 1.98  28 1.98
 136  0.150  0.125  0.607-  27 1.96  58 1.98  68 1.98
 137  0.750  0.250  0.672-  28 1.87  29 2.10  39 2.10
 138  0.750  0.250  0.756-  39 1.83  29 1.83
 139  0.094  0.125  0.719-  30 1.95  20 1.95  69 2.04
 140  0.906  0.125  0.719-  30 1.95  20 1.95  29 2.04
 141  0.750  0.500  0.245-   1 1.96  31 1.96
 142  0.750  0.500  0.328-   1 1.96  31 1.96  34 1.99
 143  0.098  0.375  0.287-  22 1.96  32 1.96  71 1.99
 144  0.902  0.375  0.287-  22 1.96  32 1.96  31 1.99
 145  0.000  0.500  0.352-   3 1.96  33 1.96  32 1.99
 146  0.000  0.500  0.435-   3 1.96  33 1.96  36 1.99
 147  0.848  0.375  0.393-  24 1.96  34 1.96  33 1.99
 148  0.152  0.375  0.393-  64 1.96  74 1.96  33 1.99
 149  0.750  0.500  0.458-   5 1.96  35 1.96  34 1.99
 150  0.750  0.500  0.542-   5 1.96  35 1.96  38 2.11
 151  0.098  0.375  0.500-  26 1.96  36 1.96  75 1.99
 152  0.902  0.375  0.500-  26 1.96  36 1.96  35 1.99
 153  1.000  0.500  0.565-   7 1.90  37 1.90  36 2.01
 154  0.000  0.500  0.649-  40 1.82  37 2.02   7 2.02
 155  0.850  0.375  0.607-  37 1.96  28 1.98  38 1.98
 156  0.150  0.375  0.607-  37 1.96  68 1.98  78 1.98
 157  0.751  0.500  0.672-  38 1.87   9 2.10  39 2.10
 158  0.749  0.500  0.756-  39 1.83   9 1.83
 159  0.094  0.375  0.719-  40 1.95  30 1.95  79 2.03
 160  0.906  0.375  0.719-  40 1.95  30 1.95  39 2.04
 161  0.250  0.750  0.245-  41 1.96  51 1.96
 162  0.250  0.750  0.328-  41 1.96  51 1.96  44 1.99
 163  0.598  0.625  0.287-  42 1.96  72 1.96   1 1.99
 164  0.402  0.625  0.287-  42 1.96  72 1.96  41 1.99
 165  0.500  0.750  0.352-  43 1.96  53 1.96  42 1.99
 166  0.500  0.750  0.435-  43 1.96  53 1.96  46 1.99
 167  0.348  0.625  0.393-  44 1.96  74 1.96  43 1.99
 168  0.652  0.625  0.393-   4 1.96  34 1.96  43 1.99
 169  0.250  0.750  0.458-  45 1.96  55 1.96  44 1.99
 170  0.250  0.750  0.542-  45 1.96  55 1.96  48 2.11
 171  0.598  0.625  0.500-  46 1.96  76 1.96   5 1.99
 172  0.402  0.625  0.500-  46 1.96  76 1.96  45 1.99
 173  0.500  0.749  0.565-  57 1.90  47 1.92  46 2.01
 174  0.500  0.751  0.649-  50 1.81  57 2.01  47 2.01
 175  0.350  0.625  0.607-  47 1.96  78 1.98  48 1.98
 176  0.650  0.625  0.607-  47 1.96   8 1.98  38 1.98
 177  0.249  0.750  0.672-  48 1.87  49 2.09  59 2.10
 178  0.251  0.750  0.756-  49 1.83  59 1.84
 179  0.594  0.626  0.719-  50 1.94  80 1.95   9 2.04
 180  0.405  0.627  0.717-  50 1.94  80 1.95  49 2.04
 181  0.250  0.000  0.245-  51 1.96  61 1.96
 182  0.250  0.000  0.328-  51 1.96  61 1.96  54 1.99
 183  0.598  0.875  0.287-  42 1.96  52 1.96  11 1.99
 184  0.402  0.875  0.287-  42 1.96  52 1.96  51 1.99
 185  0.500  0.000  0.352-  53 1.96  63 1.96  52 1.99
 186  0.500  0.000  0.435-  53 1.96  63 1.96  56 1.99
 187  0.348  0.875  0.393-  44 1.96  54 1.96  53 1.99
 188  0.652  0.875  0.393-   4 1.96  14 1.96  53 1.99
 189  0.250  0.000  0.458-  55 1.96  65 1.96  54 1.99
 190  0.250  0.000  0.542-  55 1.96  65 1.96  58 2.11
 191  0.598  0.875  0.500-  46 1.96  56 1.96  15 1.99
 192  0.402  0.875  0.500-  46 1.96  56 1.96  55 1.99
 193  0.500  1.000  0.565-  67 1.90  57 1.90  56 2.00
 194  0.500  0.000  0.649-  60 1.82  67 2.02  57 2.02
 195  0.350  0.875  0.607-  57 1.96  48 1.98  58 1.98
 196  0.650  0.875  0.607-  57 1.96  18 1.98   8 1.98
 197  0.250  1.000  0.672-  58 1.87  59 2.10  69 2.10
 198  0.250  0.000  0.756-  59 1.83  69 1.83
 199  0.594  0.875  0.719-  60 1.95  50 1.95  19 2.03
 200  0.406  0.875  0.719-  60 1.95  50 1.95  59 2.03
 201  0.250  0.250  0.245-  61 1.96  71 1.96
 202  0.250  0.250  0.328-  61 1.96  71 1.96  64 1.99
 203  0.598  0.125  0.287-  52 1.96  62 1.96  21 1.99
 204  0.402  0.125  0.287-  52 1.96  62 1.96  61 1.99
 205  0.500  0.250  0.352-  63 1.96  73 1.96  62 1.99
 206  0.500  0.250  0.435-  63 1.96  73 1.96  66 1.99
 207  0.348  0.125  0.393-  54 1.96  64 1.96  63 1.99
 208  0.652  0.125  0.393-  14 1.96  24 1.96  63 1.99
 209  0.250  0.250  0.458-  65 1.96  75 1.96  64 1.99
 210  0.250  0.250  0.542-  65 1.96  75 1.96  68 2.11
 211  0.598  0.125  0.500-  56 1.96  66 1.96  25 1.99
 212  0.402  0.125  0.500-  56 1.96  66 1.96  65 1.99
 213  0.500  0.251  0.565-  67 1.90  77 1.92  66 2.01
 214  0.500  0.249  0.649-  70 1.81  67 2.01  77 2.01
 215  0.350  0.125  0.607-  67 1.96  68 1.98  58 1.98
 216  0.650  0.125  0.607-  67 1.96  18 1.98  28 1.98
 217  0.249  0.250  0.672-  68 1.87  79 2.09  69 2.10
 218  0.251  0.250  0.756-  79 1.83  69 1.84
 219  0.594  0.125  0.719-  60 1.95  70 1.95  29 2.03
 220  0.406  0.125  0.719-  60 1.95  70 1.95  69 2.03
 221  0.250  0.500  0.245-  41 1.96  71 1.96
 222  0.250  0.500  0.328-  41 1.96  71 1.96  74 1.99
 223  0.598  0.375  0.287-  62 1.96  72 1.96  31 1.99
 224  0.402  0.375  0.287-  62 1.96  72 1.96  71 1.99
 225  0.500  0.500  0.352-  43 1.96  73 1.96  72 1.99
 226  0.500  0.500  0.435-  43 1.96  73 1.96  76 1.99
 227  0.348  0.375  0.393-  64 1.96  74 1.96  73 1.99
 228  0.652  0.375  0.393-  24 1.96  34 1.96  73 1.99
 229  0.250  0.500  0.458-  45 1.96  75 1.96  74 1.99
 230  0.250  0.500  0.542-  45 1.96  75 1.96  78 2.11
 231  0.598  0.375  0.500-  66 1.96  76 1.96  35 1.99
 232  0.402  0.375  0.500-  66 1.96  76 1.96  75 1.99
 233  0.500  0.500  0.566-  47 1.90  77 1.90  76 2.01
 234  0.500  0.500  0.650-  80 1.85  47 2.01  77 2.01
 235  0.350  0.375  0.607-  77 1.96  78 1.98  68 1.98
 236  0.650  0.375  0.607-  77 1.96  28 1.98  38 1.98
 237  0.248  0.500  0.672-  78 1.87  79 2.09  49 2.09
 238  0.254  0.500  0.755-  79 1.84  49 1.84
 239  0.594  0.374  0.719-  70 1.94  80 1.95  39 2.04
 240  0.405  0.373  0.717-  70 1.94  80 1.95  79 2.04
 

IMPORTANT INFORMATION: All symmetrisations will be switched off!
NOSYMM: (Re-)initialisation of all symmetry stuff for point group C_1.


----------------------------------------------------------------------------------------

                                     Primitive cell                                     

  volume of cell :    4737.1524

  direct lattice vectors                    reciprocal lattice vectors
    13.061127704  0.000000000  0.000000000     0.076563067  0.000000000  0.000000000
     0.000000000 11.845298948  0.000000000     0.000000000  0.084421677  0.000000000
     0.000000000  0.000000000 30.618975621     0.000000000  0.000000000  0.032659486

  length of vectors
    13.061127704 11.845298948 30.618975621     0.076563067  0.084421677  0.032659486

  position of ions in fractional coordinates (direct lattice)
     0.750000000  0.625000000  0.286715143
     0.000000000  0.750000000  0.286715143
     0.000000000  0.625000000  0.393357571
     0.750000000  0.750000000  0.393357571
     0.750000000  0.625000000  0.500000000
     0.000000000  0.750000000  0.500000000
     0.000027548  0.625025336  0.604450387
     0.750022723  0.749965086  0.610702906
     0.749758820  0.625056871  0.720352708
     0.999968190  0.750179161  0.708641345
     0.750000000  0.875000000  0.286715143
     0.000000000  0.000000000  0.286715143
     0.000000000  0.875000000  0.393357571
     0.750000000  0.000000000  0.393357571
     0.750000000  0.875000000  0.500000000
     0.000000000  0.000000000  0.500000000
     0.999908607  0.875024860  0.604494416
     0.749942208  0.000000008  0.610710158
     0.749834210  0.875062410  0.720386643
     0.000234136  0.000000001  0.708641751
     0.750000000  0.125000000  0.286715143
     0.000000000  0.250000000  0.286715143
     0.000000000  0.125000000  0.393357571
     0.750000000  0.250000000  0.393357571
     0.750000000  0.125000000  0.500000000
     0.000000000  0.250000000  0.500000000
     0.999908664  0.124975140  0.604494413
     0.750022854  0.250034951  0.610702906
     0.749834221  0.124937582  0.720386640
     0.999968205  0.249820844  0.708641342
     0.750000000  0.375000000  0.286715143
     0.000000000  0.500000000  0.286715143
     0.000000000  0.375000000  0.393357571
     0.750000000  0.500000000  0.393357571
     0.750000000  0.375000000  0.500000000
     0.000000000  0.500000000  0.500000000
     0.000027669  0.374974670  0.604450385
     0.750116614  0.500000014  0.610759278
     0.749758832  0.374943128  0.720352706
     0.999430546  0.500000004  0.708617869
     0.250000000  0.625000000  0.286715143
     0.500000000  0.750000000  0.286715143
     0.500000000  0.625000000  0.393357571
     0.250000000  0.750000000  0.393357571
     0.250000000  0.625000000  0.500000000
     0.500000000  0.750000000  0.500000000
     0.500029807  0.624070893  0.605140566
     0.249943485  0.750124170  0.610547268
     0.249226001  0.625400004  0.719830523
     0.500245892  0.750163476  0.708131423
     0.250000000  0.875000000  0.286715143
     0.500000000  0.000000000  0.286715143
     0.500000000  0.875000000  0.393357571
     0.250000000  0.000000000  0.393357571
     0.250000000  0.875000000  0.500000000
     0.500000000  0.000000000  0.500000000
     0.500119505  0.874577051  0.604027267
     0.250067593  0.000000010  0.610721633
     0.250372036  0.875075900  0.720412229
     0.500047289  0.999999996  0.708177380
     0.250000000  0.125000000  0.286715143
     0.500000000  0.250000000  0.286715143
     0.500000000  0.125000000  0.393357571
     0.250000000  0.250000000  0.393357571
     0.250000000  0.125000000  0.500000000
     0.500000000  0.250000000  0.500000000
     0.500119634  0.125422944  0.604027266
     0.249943612  0.249875822  0.610547260
     0.250372028  0.124924135  0.720412224
     0.500245903  0.249836512  0.708131421
     0.250000000  0.375000000  0.286715143
     0.500000000  0.500000000  0.286715143
     0.500000000  0.375000000  0.393357571
     0.250000000  0.500000000  0.393357571
     0.250000000  0.375000000  0.500000000
     0.500000000  0.500000000  0.500000000
     0.500029880  0.375929096  0.605140577
     0.249816279  0.500000005  0.610532230
     0.249225998  0.374600023  0.719830508
     0.499149969  0.499999985  0.710534809
     0.750000000  0.750000000  0.244946144
     0.750000000  0.750000000  0.328484141
     0.097918341  0.625000000  0.286715143
     0.902081659  0.625000000  0.286715143
     0.000000000  0.750000000  0.351588572
     0.000000000  0.750000000  0.435126570
     0.847918341  0.625000000  0.393357571
     0.152081659  0.625000000  0.393357571
     0.750000000  0.750000000  0.458231001
     0.750000000  0.750000000  0.541768999
     0.097918341  0.625000000  0.500000000
     0.902081659  0.625000000  0.500000000
     0.999956670  0.750087068  0.565493913
     0.000165716  0.749928963  0.649297535
     0.850160746  0.625079532  0.607182738
     0.149792094  0.625151684  0.607000072
     0.750301427  0.750168586  0.671796770
     0.749830314  0.749999077  0.755689874
     0.093825525  0.624719834  0.719427489
     0.906050127  0.625067711  0.719192380
     0.750000000  0.000000000  0.244946144
     0.750000000  0.000000000  0.328484141
     0.097918341  0.875000000  0.286715143
     0.902081659  0.875000000  0.286715143
     0.000000000  0.000000000  0.351588572
     0.000000000  0.000000000  0.435126570
     0.847918341  0.875000000  0.393357571
     0.152081659  0.875000000  0.393357571
     0.750000000  0.000000000  0.458231001
     0.750000000  0.000000000  0.541768999
     0.097918341  0.875000000  0.500000000
     0.902081659  0.875000000  0.500000000
     0.999973858  0.999999998  0.565505519
     0.000161841  0.000000006  0.649296732
     0.850189207  0.875027042  0.607234006
     0.149911503  0.875152959  0.607176817
     0.750143905  0.000000008  0.671802484
     0.750331233  0.999999999  0.755709338
     0.093999994  0.874923533  0.719227899
     0.906215170  0.874957957  0.719087959
     0.750000000  0.250000000  0.244946144
     0.750000000  0.250000000  0.328484141
     0.097918341  0.125000000  0.286715143
     0.902081659  0.125000000  0.286715143
     0.000000000  0.250000000  0.351588572
     0.000000000  0.250000000  0.435126570
     0.847918341  0.125000000  0.393357571
     0.152081659  0.125000000  0.393357571
     0.750000000  0.250000000  0.458231001
     0.750000000  0.250000000  0.541768999
     0.097918341  0.125000000  0.500000000
     0.902081659  0.125000000  0.500000000
     0.999956668  0.249912936  0.565493912
     0.000165715  0.250071041  0.649297533
     0.850189211  0.124972966  0.607234004
     0.149911505  0.124847043  0.607176813
     0.750301444  0.249831417  0.671796767
     0.749830309  0.250000922  0.755689871
     0.093999995  0.125076471  0.719227899
     0.906215173  0.125042046  0.719087962
     0.750000000  0.500000000  0.244946144
     0.750000000  0.500000000  0.328484141
     0.097918341  0.375000000  0.286715143
     0.902081659  0.375000000  0.286715143
     0.000000000  0.500000000  0.351588572
     0.000000000  0.500000000  0.435126570
     0.847918341  0.375000000  0.393357571
     0.152081659  0.375000000  0.393357571
     0.750000000  0.500000000  0.458231001
     0.750000000  0.500000000  0.541768999
     0.097918341  0.375000000  0.500000000
     0.902081659  0.375000000  0.500000000
     0.999924710  0.500000005  0.565483107
     0.000047928  0.500000001  0.649272993
     0.850160745  0.374920489  0.607182739
     0.149792092  0.374848320  0.607000067
     0.750711343  0.500000009  0.671839022
     0.749136265  0.499999997  0.755650007
     0.093825522  0.375280171  0.719427485
     0.906050129  0.374932293  0.719192379
     0.250000000  0.750000000  0.244946144
     0.250000000  0.750000000  0.328484141
     0.597918341  0.625000000  0.286715143
     0.402081659  0.625000000  0.286715143
     0.500000000  0.750000000  0.351588572
     0.500000000  0.750000000  0.435126570
     0.347918341  0.625000000  0.393357571
     0.652081659  0.625000000  0.393357571
     0.250000000  0.750000000  0.458231001
     0.250000000  0.750000000  0.541768999
     0.597918341  0.625000000  0.500000000
     0.402081659  0.625000000  0.500000000
     0.499947262  0.749171730  0.565487629
     0.500426655  0.750844513  0.648883350
     0.349878943  0.624979593  0.607468676
     0.650117788  0.624932278  0.607387505
     0.248948959  0.750330195  0.671746916
     0.250639719  0.749512736  0.755621892
     0.593954752  0.625917714  0.718515375
     0.405061129  0.626989170  0.717372742
     0.250000000  0.000000000  0.244946144
     0.250000000  0.000000000  0.328484141
     0.597918341  0.875000000  0.286715143
     0.402081659  0.875000000  0.286715143
     0.500000000  0.000000000  0.351588572
     0.500000000  0.000000000  0.435126570
     0.347918341  0.875000000  0.393357571
     0.652081659  0.875000000  0.393357571
     0.250000000  0.000000000  0.458231001
     0.250000000  0.000000000  0.541768999
     0.597918341  0.875000000  0.500000000
     0.402081659  0.875000000  0.500000000
     0.499982457  0.999999997  0.565251956
     0.499965588  0.000000001  0.648895195
     0.349936901  0.874950813  0.607132578
     0.650092148  0.875055300  0.607069697
     0.250056179  0.999999997  0.671906078
     0.249927013  0.000000013  0.755762164
     0.594074755  0.875467403  0.718926300
     0.406070650  0.875150209  0.718963591
     0.250000000  0.250000000  0.244946144
     0.250000000  0.250000000  0.328484141
     0.597918341  0.125000000  0.286715143
     0.402081659  0.125000000  0.286715143
     0.500000000  0.250000000  0.351588572
     0.500000000  0.250000000  0.435126570
     0.347918341  0.125000000  0.393357571
     0.652081659  0.125000000  0.393357571
     0.250000000  0.250000000  0.458231001
     0.250000000  0.250000000  0.541768999
     0.597918341  0.125000000  0.500000000
     0.402081659  0.125000000  0.500000000
     0.499947261  0.250828279  0.565487631
     0.500426657  0.249155472  0.648883346
     0.349936900  0.125049183  0.607132579
     0.650092145  0.124944717  0.607069693
     0.248948954  0.249669801  0.671746908
     0.250639732  0.250487284  0.755621882
     0.594074758  0.124532594  0.718926293
     0.406070651  0.124849797  0.718963589
     0.250000000  0.500000000  0.244946144
     0.250000000  0.500000000  0.328484141
     0.597918341  0.375000000  0.286715143
     0.402081659  0.375000000  0.286715143
     0.500000000  0.500000000  0.351588572
     0.500000000  0.500000000  0.435126570
     0.347918341  0.375000000  0.393357571
     0.652081659  0.375000000  0.393357571
     0.250000000  0.500000000  0.458231001
     0.250000000  0.500000000  0.541768999
     0.597918341  0.375000000  0.500000000
     0.402081659  0.375000000  0.500000000
     0.499955897  0.499999990  0.565718168
     0.500160283  0.500000016  0.650042993
     0.349878947  0.375020416  0.607468681
     0.650117793  0.375067729  0.607387511
     0.248065470  0.500000005  0.671612318
     0.253940985  0.499999998  0.755422617
     0.593954752  0.374082287  0.718515363
     0.405061125  0.373010829  0.717372717

  ion indices of the primitive-cell ions
   primitive index   ion index
                 1           1
                 2           2
                 3           3
                 4           4
                 5           5
                 6           6
                 7           7
                 8           8
                 9           9
                10          10
                11          11
                12          12
                13          13
                14          14
                15          15
                16          16
                17          17
                18          18
                19          19
                20          20
                21          21
                22          22
                23          23
                24          24
                25          25
                26          26
                27          27
                28          28
                29          29
                30          30
                31          31
                32          32
                33          33
                34          34
                35          35
                36          36
                37          37
                38          38
                39          39
                40          40
                41          41
                42          42
                43          43
                44          44
                45          45
                46          46
                47          47
                48          48
                49          49
                50          50
                51          51
                52          52
                53          53
                54          54
                55          55
                56          56
                57          57
                58          58
                59          59
                60          60
                61          61
                62          62
                63          63
                64          64
                65          65
                66          66
                67          67
                68          68
                69          69
                70          70
                71          71
                72          72
                73          73
                74          74
                75          75
                76          76
                77          77
                78          78
                79          79
                80          80
                81          81
                82          82
                83          83
                84          84
                85          85
                86          86
                87          87
                88          88
                89          89
                90          90
                91          91
                92          92
                93          93
                94          94
                95          95
                96          96
                97          97
                98          98
                99          99
               100         100
               101         101
               102         102
               103         103
               104         104
               105         105
               106         106
               107         107
               108         108
               109         109
               110         110
               111         111
               112         112
               113         113
               114         114
               115         115
               116         116
               117         117
               118         118
               119         119
               120         120
               121         121
               122         122
               123         123
               124         124
               125         125
               126         126
               127         127
               128         128
               129         129
               130         130
               131         131
               132         132
               133         133
               134         134
               135         135
               136         136
               137         137
               138         138
               139         139
               140         140
               141         141
               142         142
               143         143
               144         144
               145         145
               146         146
               147         147
               148         148
               149         149
               150         150
               151         151
               152         152
               153         153
               154         154
               155         155
               156         156
               157         157
               158         158
               159         159
               160         160
               161         161
               162         162
               163         163
               164         164
               165         165
               166         166
               167         167
               168         168
               169         169
               170         170
               171         171
               172         172
               173         173
               174         174
               175         175
               176         176
               177         177
               178         178
               179         179
               180         180
               181         181
               182         182
               183         183
               184         184
               185         185
               186         186
               187         187
               188         188
               189         189
               190         190
               191         191
               192         192
               193         193
               194         194
               195         195
               196         196
               197         197
               198         198
               199         199
               200         200
               201         201
               202         202
               203         203
               204         204
               205         205
               206         206
               207         207
               208         208
               209         209
               210         210
               211         211
               212         212
               213         213
               214         214
               215         215
               216         216
               217         217
               218         218
               219         219
               220         220
               221         221
               222         222
               223         223
               224         224
               225         225
               226         226
               227         227
               228         228
               229         229
               230         230
               231         231
               232         232
               233         233
               234         234
               235         235
               236         236
               237         237
               238         238
               239         239
               240         240

----------------------------------------------------------------------------------------

 
 
 KPOINTS: pymatgen v2020.8.13 with grid density = 

Automatic generation of k-mesh.
 Grid dimensions read from file:
 generate k-points for:    2    2    1

 Generating k-lattice:

  Cartesian coordinates                     Fractional coordinates (reciprocal lattice)
     0.038281534  0.000000000  0.000000000     0.500000000  0.000000000  0.000000000
     0.000000000  0.042210838  0.000000000     0.000000000  0.500000000  0.000000000
     0.000000000  0.000000000  0.032659486     0.000000000  0.000000000  1.000000000

  Length of vectors
     0.038281534  0.042210838  0.032659486

  Shift w.r.t. Gamma in fractional coordinates (k-lattice)
     0.000000000  0.000000000  0.000000000

 
 Subroutine IBZKPT returns following result:
 ===========================================
 
 Found      4 irreducible k-points:
 
 Following reciprocal coordinates:
            Coordinates               Weight
  0.000000  0.000000  0.000000      1.000000
  0.500000  0.000000  0.000000      1.000000
  0.000000  0.500000  0.000000      1.000000
  0.500000  0.500000  0.000000      1.000000
 
 Following cartesian coordinates:
            Coordinates               Weight
  0.000000  0.000000  0.000000      1.000000
  0.038282  0.000000  0.000000      1.000000
  0.000000  0.042211  0.000000      1.000000
  0.038282  0.042211  0.000000      1.000000
 


--------------------------------------------------------------------------------------------------------




 Dimension of arrays:
   k-points           NKPTS =      4   k-points in BZ     NKDIM =      4   number of bands    NBANDS=   1064
   number of dos      NEDOS =    301   number of ions     NIONS =    240
   non local maximal  LDIM  =      6   non local SUM 2l+1 LMDIM =     18
   total plane-waves  NPLWV = ******
   max r-space proj   IRMAX =      1   max aug-charges    IRDMAX=  21440
   dimension x,y,z NGX =   108 NGY =   96 NGZ =  250
   dimension x,y,z NGXF=   216 NGYF=  192 NGZF=  500
   support grid    NGXF=   216 NGYF=  192 NGZF=  500
   ions per type =              80 160
   NGX,Y,Z   is equivalent  to a cutoff of  13.75, 13.47, 13.57 a.u.
   NGXF,Y,Z  is equivalent  to a cutoff of  27.49, 26.95, 27.15 a.u.

 SYSTEM =  TiO2                                    
 POSCAR =  Ti  O                                   

--------------------------------------------------------------------------------------------------------


  energy-cutoff  :      600.00
  volume of cell :     4737.15
      direct lattice vectors                 reciprocal lattice vectors
    13.061127704  0.000000000  0.000000000     0.076563067  0.000000000  0.000000000
     0.000000000 11.845298948  0.000000000     0.000000000  0.084421677  0.000000000
     0.000000000  0.000000000 30.618975621     0.000000000  0.000000000  0.032659486

  length of vectors
    13.061127704 11.845298948 30.618975621     0.076563067  0.084421677  0.032659486


 
 k-points in units of 2pi/SCALE and weight: pymatgen v2020.8.13 with grid density = 
   0.00000000  0.00000000  0.00000000       0.250
   0.03828153  0.00000000  0.00000000       0.250
   0.00000000  0.04221084  0.00000000       0.250
   0.03828153  0.04221084  0.00000000       0.250
 
 k-points in reciprocal lattice and weights: pymatgen v2020.8.13 with grid density = 
   0.00000000  0.00000000  0.00000000       0.250
   0.50000000  0.00000000  0.00000000       0.250
   0.00000000  0.50000000  0.00000000       0.250
   0.50000000  0.50000000  0.00000000       0.250
 
 position of ions in fractional coordinates (direct lattice) 
   0.75000000  0.62500000  0.28671514
   0.00000000  0.75000000  0.28671514
   0.00000000  0.62500000  0.39335757
   0.75000000  0.75000000  0.39335757
   0.75000000  0.62500000  0.50000000
   0.00000000  0.75000000  0.50000000
   0.00002755  0.62502534  0.60445039
   0.75002272  0.74996509  0.61070291
   0.74975882  0.62505687  0.72035271
   0.99996819  0.75017916  0.70864134
   0.75000000  0.87500000  0.28671514
   0.00000000  0.00000000  0.28671514
   0.00000000  0.87500000  0.39335757
   0.75000000  0.00000000  0.39335757
   0.75000000  0.87500000  0.50000000
   0.00000000  0.00000000  0.50000000
   0.99990861  0.87502486  0.60449442
   0.74994221  0.00000001  0.61071016
   0.74983421  0.87506241  0.72038664
   0.00023414  0.00000000  0.70864175
   0.75000000  0.12500000  0.28671514
   0.00000000  0.25000000  0.28671514
   0.00000000  0.12500000  0.39335757
   0.75000000  0.25000000  0.39335757
   0.75000000  0.12500000  0.50000000
   0.00000000  0.25000000  0.50000000
   0.99990866  0.12497514  0.60449441
   0.75002285  0.25003495  0.61070291
   0.74983422  0.12493758  0.72038664
   0.99996821  0.24982084  0.70864134
   0.75000000  0.37500000  0.28671514
   0.00000000  0.50000000  0.28671514
   0.00000000  0.37500000  0.39335757
   0.75000000  0.50000000  0.39335757
   0.75000000  0.37500000  0.50000000
   0.00000000  0.50000000  0.50000000
   0.00002767  0.37497467  0.60445039
   0.75011661  0.50000001  0.61075928
   0.74975883  0.37494313  0.72035271
   0.99943055  0.50000000  0.70861787
   0.25000000  0.62500000  0.28671514
   0.50000000  0.75000000  0.28671514
   0.50000000  0.62500000  0.39335757
   0.25000000  0.75000000  0.39335757
   0.25000000  0.62500000  0.50000000
   0.50000000  0.75000000  0.50000000
   0.50002981  0.62407089  0.60514057
   0.24994348  0.75012417  0.61054727
   0.24922600  0.62540000  0.71983052
   0.50024589  0.75016348  0.70813142
   0.25000000  0.87500000  0.28671514
   0.50000000  0.00000000  0.28671514
   0.50000000  0.87500000  0.39335757
   0.25000000  0.00000000  0.39335757
   0.25000000  0.87500000  0.50000000
   0.50000000  0.00000000  0.50000000
   0.50011950  0.87457705  0.60402727
   0.25006759  0.00000001  0.61072163
   0.25037204  0.87507590  0.72041223
   0.50004729  1.00000000  0.70817738
   0.25000000  0.12500000  0.28671514
   0.50000000  0.25000000  0.28671514
   0.50000000  0.12500000  0.39335757
   0.25000000  0.25000000  0.39335757
   0.25000000  0.12500000  0.50000000
   0.50000000  0.25000000  0.50000000
   0.50011963  0.12542294  0.60402727
   0.24994361  0.24987582  0.61054726
   0.25037203  0.12492413  0.72041222
   0.50024590  0.24983651  0.70813142
   0.25000000  0.37500000  0.28671514
   0.50000000  0.50000000  0.28671514
   0.50000000  0.37500000  0.39335757
   0.25000000  0.50000000  0.39335757
   0.25000000  0.37500000  0.50000000
   0.50000000  0.50000000  0.50000000
   0.50002988  0.37592910  0.60514058
   0.24981628  0.50000000  0.61053223
   0.24922600  0.37460002  0.71983051
   0.49914997  0.49999999  0.71053481
   0.75000000  0.75000000  0.24494614
   0.75000000  0.75000000  0.32848414
   0.09791834  0.62500000  0.28671514
   0.90208166  0.62500000  0.28671514
   0.00000000  0.75000000  0.35158857
   0.00000000  0.75000000  0.43512657
   0.84791834  0.62500000  0.39335757
   0.15208166  0.62500000  0.39335757
   0.75000000  0.75000000  0.45823100
   0.75000000  0.75000000  0.54176900
   0.09791834  0.62500000  0.50000000
   0.90208166  0.62500000  0.50000000
   0.99995667  0.75008707  0.56549391
   0.00016572  0.74992896  0.64929753
   0.85016075  0.62507953  0.60718274
   0.14979209  0.62515168  0.60700007
   0.75030143  0.75016859  0.67179677
   0.74983031  0.74999908  0.75568987
   0.09382552  0.62471983  0.71942749
   0.90605013  0.62506771  0.71919238
   0.75000000  0.00000000  0.24494614
   0.75000000  0.00000000  0.32848414
   0.09791834  0.87500000  0.28671514
   0.90208166  0.87500000  0.28671514
   0.00000000  0.00000000  0.35158857
   0.00000000  0.00000000  0.43512657
   0.84791834  0.87500000  0.39335757
   0.15208166  0.87500000  0.39335757
   0.75000000  0.00000000  0.45823100
   0.75000000  0.00000000  0.54176900
   0.09791834  0.87500000  0.50000000
   0.90208166  0.87500000  0.50000000
   0.99997386  1.00000000  0.56550552
   0.00016184  0.00000001  0.64929673
   0.85018921  0.87502704  0.60723401
   0.14991150  0.87515296  0.60717682
   0.75014391  0.00000001  0.67180248
   0.75033123  1.00000000  0.75570934
   0.09399999  0.87492353  0.71922790
   0.90621517  0.87495796  0.71908796
   0.75000000  0.25000000  0.24494614
   0.75000000  0.25000000  0.32848414
   0.09791834  0.12500000  0.28671514
   0.90208166  0.12500000  0.28671514
   0.00000000  0.25000000  0.35158857
   0.00000000  0.25000000  0.43512657
   0.84791834  0.12500000  0.39335757
   0.15208166  0.12500000  0.39335757
   0.75000000  0.25000000  0.45823100
   0.75000000  0.25000000  0.54176900
   0.09791834  0.12500000  0.50000000
   0.90208166  0.12500000  0.50000000
   0.99995667  0.24991294  0.56549391
   0.00016572  0.25007104  0.64929753
   0.85018921  0.12497297  0.60723400
   0.14991151  0.12484704  0.60717681
   0.75030144  0.24983142  0.67179677
   0.74983031  0.25000092  0.75568987
   0.09400000  0.12507647  0.71922790
   0.90621517  0.12504205  0.71908796
   0.75000000  0.50000000  0.24494614
   0.75000000  0.50000000  0.32848414
   0.09791834  0.37500000  0.28671514
   0.90208166  0.37500000  0.28671514
   0.00000000  0.50000000  0.35158857
   0.00000000  0.50000000  0.43512657
   0.84791834  0.37500000  0.39335757
   0.15208166  0.37500000  0.39335757
   0.75000000  0.50000000  0.45823100
   0.75000000  0.50000000  0.54176900
   0.09791834  0.37500000  0.50000000
   0.90208166  0.37500000  0.50000000
   0.99992471  0.50000000  0.56548311
   0.00004793  0.50000000  0.64927299
   0.85016075  0.37492049  0.60718274
   0.14979209  0.37484832  0.60700007
   0.75071134  0.50000001  0.67183902
   0.74913627  0.50000000  0.75565001
   0.09382552  0.37528017  0.71942749
   0.90605013  0.37493229  0.71919238
   0.25000000  0.75000000  0.24494614
   0.25000000  0.75000000  0.32848414
   0.59791834  0.62500000  0.28671514
   0.40208166  0.62500000  0.28671514
   0.50000000  0.75000000  0.35158857
   0.50000000  0.75000000  0.43512657
   0.34791834  0.62500000  0.39335757
   0.65208166  0.62500000  0.39335757
   0.25000000  0.75000000  0.45823100
   0.25000000  0.75000000  0.54176900
   0.59791834  0.62500000  0.50000000
   0.40208166  0.62500000  0.50000000
   0.49994726  0.74917173  0.56548763
   0.50042665  0.75084451  0.64888335
   0.34987894  0.62497959  0.60746868
   0.65011779  0.62493228  0.60738751
   0.24894896  0.75033019  0.67174692
   0.25063972  0.74951274  0.75562189
   0.59395475  0.62591771  0.71851537
   0.40506113  0.62698917  0.71737274
   0.25000000  0.00000000  0.24494614
   0.25000000  0.00000000  0.32848414
   0.59791834  0.87500000  0.28671514
   0.40208166  0.87500000  0.28671514
   0.50000000  0.00000000  0.35158857
   0.50000000  0.00000000  0.43512657
   0.34791834  0.87500000  0.39335757
   0.65208166  0.87500000  0.39335757
   0.25000000  0.00000000  0.45823100
   0.25000000  0.00000000  0.54176900
   0.59791834  0.87500000  0.50000000
   0.40208166  0.87500000  0.50000000
   0.49998246  1.00000000  0.56525196
   0.49996559  0.00000000  0.64889519
   0.34993690  0.87495081  0.60713258
   0.65009215  0.87505530  0.60706970
   0.25005618  1.00000000  0.67190608
   0.24992701  0.00000001  0.75576216
   0.59407476  0.87546740  0.71892630
   0.40607065  0.87515021  0.71896359
   0.25000000  0.25000000  0.24494614
   0.25000000  0.25000000  0.32848414
   0.59791834  0.12500000  0.28671514
   0.40208166  0.12500000  0.28671514
   0.50000000  0.25000000  0.35158857
   0.50000000  0.25000000  0.43512657
   0.34791834  0.12500000  0.39335757
   0.65208166  0.12500000  0.39335757
   0.25000000  0.25000000  0.45823100
   0.25000000  0.25000000  0.54176900
   0.59791834  0.12500000  0.50000000
   0.40208166  0.12500000  0.50000000
   0.49994726  0.25082828  0.56548763
   0.50042666  0.24915547  0.64888335
   0.34993690  0.12504918  0.60713258
   0.65009215  0.12494472  0.60706969
   0.24894895  0.24966980  0.67174691
   0.25063973  0.25048728  0.75562188
   0.59407476  0.12453259  0.71892629
   0.40607065  0.12484980  0.71896359
   0.25000000  0.50000000  0.24494614
   0.25000000  0.50000000  0.32848414
   0.59791834  0.37500000  0.28671514
   0.40208166  0.37500000  0.28671514
   0.50000000  0.50000000  0.35158857
   0.50000000  0.50000000  0.43512657
   0.34791834  0.37500000  0.39335757
   0.65208166  0.37500000  0.39335757
   0.25000000  0.50000000  0.45823100
   0.25000000  0.50000000  0.54176900
   0.59791834  0.37500000  0.50000000
   0.40208166  0.37500000  0.50000000
   0.49995590  0.49999999  0.56571817
   0.50016028  0.50000002  0.65004299
   0.34987895  0.37502042  0.60746868
   0.65011779  0.37506773  0.60738751
   0.24806547  0.50000001  0.67161232
   0.25394099  0.50000000  0.75542262
   0.59395475  0.37408229  0.71851536
   0.40506112  0.37301083  0.71737272
 
 position of ions in cartesian coordinates  (Angst):
   9.79584578  7.40331184  8.77892396
   0.00000000  8.88397421  8.77892396
   0.00000000  7.40331184 12.04420588
   9.79584578  8.88397421 12.04420588
   9.79584578  7.40331184 15.30948781
   0.00000000  8.88397421 15.30948781
   0.00035981  7.40361196 18.50765166
   9.79614257  8.88356064 18.69909738
   9.79269569  7.40398549 22.05646202
  13.06071223  8.88609642 21.69787206
   9.79584578 10.36463658  8.77892396
   0.00000000  0.00000000  8.77892396
   0.00000000 10.36463658 12.04420588
   9.79584578  0.00000000 12.04420588
   9.79584578 10.36463658 15.30948781
   0.00000000  0.00000000 15.30948781
  13.05993400 10.36493105 18.50899980
   9.79509096  0.00000010 18.69931944
   9.79368038 10.36537585 22.05750106
   0.00305809  0.00000001 21.69788450
   9.79584578  1.48066237  8.77892396
   0.00000000  2.96132474  8.77892396
   0.00000000  1.48066237 12.04420588
   9.79584578  2.96132474 12.04420588
   9.79584578  1.48066237 15.30948781
   0.00000000  2.96132474 15.30948781
  13.05993475  1.48036790 18.50899970
   9.79614427  2.96173874 18.69909738
   9.79368052  1.47992300 22.05750096
  13.06071243  2.95920258 21.69787197
   9.79584578  4.44198711  8.77892396
   0.00000000  5.92264947  8.77892396
   0.00000000  4.44198711 12.04420588
   9.79584578  5.92264947 12.04420588
   9.79584578  4.44198711 15.30948781
   0.00000000  5.92264947 15.30948781
   0.00036139  4.44168707 18.50765162
   9.79736889  5.92264965 18.70082343
   9.79269586  4.44131344 22.05646193
  13.05369000  5.92264952 21.69715325
   3.26528193  7.40331184  8.77892396
   6.53056385  8.88397421  8.77892396
   6.53056385  7.40331184 12.04420588
   3.26528193  8.88397421 12.04420588
   3.26528193  7.40331184 15.30948781
   6.53056385  8.88397421 15.30948781
   6.53095317  7.39230629 18.52878424
   3.26454378  8.88544504 18.69433192
   3.25517262  7.40805001 22.04047325
   6.53377548  8.88591063 21.68225877
   3.26528193 10.36463658  8.77892396
   6.53056385  0.00000000  8.77892396
   6.53056385 10.36463658 12.04420588
   3.26528193  0.00000000 12.04420588
   3.26528193 10.36463658 15.30948781
   6.53056385  0.00000000 15.30948781
   6.53212472 10.35962662 18.49469618
   3.26616477  0.00000012 18.69967081
   3.27014113 10.36553564 22.05828449
   6.53118150 11.84529890 21.68366595
   3.26528193  1.48066237  8.77892396
   6.53056385  2.96132474  8.77892396
   6.53056385  1.48066237 12.04420588
   3.26528193  2.96132474 12.04420588
   3.26528193  1.48066237 15.30948781
   6.53056385  2.96132474 15.30948781
   6.53212641  1.48567227 18.49469614
   3.26454543  2.95985381 18.69433166
   3.27014104  1.47976372 22.05828433
   6.53377562  2.95938818 21.68225870
   3.26528193  4.44198711  8.77892396
   6.53056385  5.92264947  8.77892396
   6.53056385  4.44198711 12.04420588
   3.26528193  5.92264947 12.04420588
   3.26528193  4.44198711 15.30948781
   6.53056385  5.92264947 15.30948781
   6.53095412  4.45299252 18.52878456
   3.26288232  5.92264953 18.69387146
   3.25517259  4.43724925 22.04047278
   6.51946149  5.92264930 21.75584799
   9.79584578  8.88397421  7.50000000
   9.79584578  8.88397421 10.05784792
   1.27892396  7.40331184  8.77892396
  11.78220374  7.40331184  8.77892396
   0.00000000  8.88397421 10.76528193
   0.00000000  8.88397421 13.32312984
  11.07476974  7.40331184 12.04420588
   1.98635797  7.40331184 12.04420588
   9.79584578  8.88397421 14.03056385
   9.79584578  8.88397421 16.58841177
   1.27892396  7.40331184 15.30948781
  11.78220374  7.40331184 15.30948781
  13.06056177  8.88500556 17.31484434
   0.00216443  8.88313276 19.88082538
  11.10405807  7.40425392 18.59131346
   1.95645367  7.40510858 18.58572040
   9.79978276  8.88597116 20.56972892
   9.79362949  8.88396328 23.13844984
   1.22546716  7.39999320 22.02813273
  11.83403642  7.40411389 22.02093394
   9.79584578  0.00000000  7.50000000
   9.79584578  0.00000000 10.05784792
   1.27892396 10.36463658  8.77892396
  11.78220374 10.36463658  8.77892396
   0.00000000  0.00000000 10.76528193
   0.00000000  0.00000000 13.32312984
  11.07476974 10.36463658 12.04420588
   1.98635797 10.36463658 12.04420588
   9.79584578  0.00000000 14.03056385
   9.79584578  0.00000000 16.58841177
   1.27892396 10.36463658 15.30948781
  11.78220374 10.36463658 15.30948781
  13.06078627 11.84529892 17.31519970
   0.00211382  0.00000007 19.88080080
  11.10442980 10.36495690 18.59288324
   1.95801328 10.36644842 18.59113214
   9.79772534  0.00000010 20.56990388
   9.80017205 11.84529894 23.13904580
   1.22774592 10.36373081 22.02202150
  11.83619207 10.36413857 22.01773670
   9.79584578  2.96132474  7.50000000
   9.79584578  2.96132474 10.05784792
   1.27892396  1.48066237  8.77892396
  11.78220374  1.48066237  8.77892396
   0.00000000  2.96132474 10.76528193
   0.00000000  2.96132474 13.32312984
  11.07476974  1.48066237 12.04420588
   1.98635797  1.48066237 12.04420588
   9.79584578  2.96132474 14.03056385
   9.79584578  2.96132474 16.58841177
   1.27892396  1.48066237 15.30948781
  11.78220374  1.48066237 15.30948781
  13.06056174  2.96029344 17.31484431
   0.00216443  2.96216624 19.88082532
  11.10442986  1.48034214 18.59288316
   1.95801332  1.47885055 18.59113203
   9.79978298  2.95932782 20.56972884
   9.79362942  2.96133566 23.13844973
   1.22774594  1.48156819 22.02202150
  11.83619211  1.48116042 22.01773678
   9.79584578  5.92264947  7.50000000
   9.79584578  5.92264947 10.05784792
   1.27892396  4.44198711  8.77892396
  11.78220374  4.44198711  8.77892396
   0.00000000  5.92264947 10.76528193
   0.00000000  5.92264947 13.32312984
  11.07476974  4.44198711 12.04420588
   1.98635797  4.44198711 12.04420588
   9.79584578  5.92264947 14.03056385
   9.79584578  5.92264947 16.58841177
   1.27892396  4.44198711 15.30948781
  11.78220374  4.44198711 15.30948781
  13.06014433  5.92264953 17.31451347
   0.00062599  5.92264948 19.88007395
  11.10405806  4.44104528 18.59131350
   1.95645364  4.44019040 18.58572026
   9.80513673  5.92264958 20.57102263
   9.78456443  5.92264943 23.13722914
   1.22546713  4.44530581 22.02813263
  11.83403644  4.44118509 22.02093391
   3.26528193  8.88397421  7.50000000
   3.26528193  8.88397421 10.05784792
   7.80948781  7.40331184  8.77892396
   5.25163989  7.40331184  8.77892396
   6.53056385  8.88397421 10.76528193
   6.53056385  8.88397421 13.32312984
   4.54420588  7.40331184 12.04420588
   8.51692182  7.40331184 12.04420588
   3.26528193  8.88397421 14.03056385
   3.26528193  8.88397421 16.58841177
   7.80948781  7.40331184 15.30948781
   5.25163989  7.40331184 15.30948781
   6.52987504  8.87416311 17.31465192
   6.53613644  8.89397772 19.86814347
   4.56981356  7.40307011 18.60006859
   8.49127145  7.40250966 18.59758322
   3.25155415  8.88788547 20.56820244
   3.27363737  8.87820243 23.13636828
   7.75771886  7.41418244 22.00020474
   5.29055513  7.42687416 21.96521851
   3.26528193  0.00000000  7.50000000
   3.26528193  0.00000000 10.05784792
   7.80948781 10.36463658  8.77892396
   5.25163989 10.36463658  8.77892396
   6.53056385  0.00000000 10.76528193
   6.53056385  0.00000000 13.32312984
   4.54420588 10.36463658 12.04420588
   8.51692182 10.36463658 12.04420588
   3.26528193  0.00000000 14.03056385
   3.26528193  0.00000000 16.58841177
   7.80948781 10.36463658 15.30948781
   5.25163989 10.36463658 15.30948781
   6.53033473 11.84529891 17.30743585
   6.53011439  0.00000002 19.86850615
   4.57057055 10.36405395 18.58977759
   8.49093656 10.36529162 18.58785226
   3.26601568 11.84529891 20.57307581
   3.26432864  0.00000015 23.14066328
   7.75928625 10.37017311 22.01278685
   5.30374062 10.36641585 22.01392867
   3.26528193  2.96132474  7.50000000
   3.26528193  2.96132474 10.05784792
   7.80948781  1.48066237  8.77892396
   5.25163989  1.48066237  8.77892396
   6.53056385  2.96132474 10.76528193
   6.53056385  2.96132474 13.32312984
   4.54420588  1.48066237 12.04420588
   8.51692182  1.48066237 12.04420588
   3.26528193  2.96132474 14.03056385
   3.26528193  2.96132474 16.58841177
   7.80948781  1.48066237 15.30948781
   5.25163989  1.48066237 15.30948781
   6.52987502  2.97113595 17.31465199
   6.53613648  2.95132105 19.86814336
   4.57057054  1.48124496 18.58977764
   8.49093653  1.48000753 18.58785211
   3.25155408  2.95741344 20.56820219
   3.27363755  2.96709676 23.13636799
   7.75928628  1.47512580 22.01278665
   5.30374062  1.47888317 22.01392860
   3.26528193  5.92264947  7.50000000
   3.26528193  5.92264947 10.05784792
   7.80948781  4.44198711  8.77892396
   5.25163989  4.44198711  8.77892396
   6.53056385  5.92264947 10.76528193
   6.53056385  5.92264947 13.32312984
   4.54420588  4.44198711 12.04420588
   8.51692182  4.44198711 12.04420588
   3.26528193  5.92264947 14.03056385
   3.26528193  5.92264947 16.58841177
   7.80948781  4.44198711 15.30948781
   5.25163989  4.44198711 15.30948781
   6.52998782  5.92264935 17.32171081
   6.53265733  5.92264967 19.90365057
   4.56981361  4.44222894 18.60006872
   8.49127152  4.44278937 18.59758338
   3.24001478  5.92264954 20.56408120
   3.31675563  5.92264944 23.13026668
   7.75771887  4.43111652 22.00020439
   5.29055508  4.41842479 21.96521773
 


--------------------------------------------------------------------------------------------------------

--------------------------------------- Iteration      FINAL  ---------------------------------------


--------------------OUTCAR has been truncated-------------------------


--------------------OUTCAR has been truncated-------------------------


--------------------OUTCAR has been truncated-------------------------


--------------------OUTCAR has been truncated-------------------------


--------------------OUTCAR has been truncated-------------------------


--------------------OUTCAR has been truncated-------------------------


--------------------OUTCAR has been truncated-------------------------


--------------------OUTCAR has been truncated-------------------------


--------------------OUTCAR has been truncated-------------------------


--------------------OUTCAR has been truncated-------------------------


  FORCE on cell =-STRESS in cart. coord.  units (eV):
  Direction    XX          YY          ZZ          XY          YZ          ZX
  --------------------------------------------------------------------------------------
  Alpha Z  4617.99219  4617.99219  4617.99219
  Ewald  974596.62659992528.63190************    -0.00002    -0.00011    10.26529
  Hartree************************************    -0.00003    -0.00007     5.03215
  E(xc)   -8815.00918 -8789.09763 -8814.93490    -0.00000    -0.00000     0.03451
  Local  ************************************     0.00008     0.00020   -15.37663
  n-local -5410.72342 -5333.49343 -5453.55876     0.00000     0.00001     0.14883
  augment  5302.13213  5279.79309  5306.28050    -0.00001    -0.00000     0.06224
  Kinetic 28700.41537 28235.70129 28735.56098     0.00001    -0.00003    -0.41109
  Fock        0.00000     0.00000     0.00000     0.00000     0.00000     0.00000
  -------------------------------------------------------------------------------------
  Total     136.48158   119.67364    83.55500     0.00003    -0.00001    -0.24470
  in kB      46.16016    40.47545    28.25958     0.00001    -0.00000    -0.08276
  external pressure =       38.30 kB  Pullay stress =        0.00 kB


 VOLUME and BASIS-vectors are now :
 -----------------------------------------------------------------------------
  energy-cutoff  :      600.00
  volume of cell :     4737.15
      direct lattice vectors                 reciprocal lattice vectors
    13.061127704  0.000000000  0.000000000     0.076563067  0.000000000  0.000000000
     0.000000000 11.845298948  0.000000000     0.000000000  0.084421677  0.000000000
     0.000000000  0.000000000 30.618975621     0.000000000  0.000000000  0.032659486

  length of vectors
    13.061127704 11.845298948 30.618975621     0.076563067  0.084421677  0.032659486


 FORCES acting on ions:
    Electron-Ion                     Ewald-Force                    Non-Local-Force
 -----------------------------------------------------------------------------------------------
   0.217E-01 0.154E-01 0.377E+04   -.219E-01 -.153E-01 -.377E+04   0.630E-04 -.723E-05 0.400E+00
   0.107E-01 0.130E-01 0.395E+04   -.111E-01 -.129E-01 -.394E+04   0.891E-04 -.397E-05 -.368E+01
   0.648E-01 0.284E-01 0.191E+04   -.671E-01 -.283E-01 -.191E+04   0.386E-03 0.544E-04 -.444E-01
   0.771E-01 0.123E+00 0.191E+04   -.780E-01 -.122E+00 -.191E+04   0.190E-03 -.793E-04 0.196E+00
   0.775E+00 0.427E+00 -.196E+02   -.780E+00 -.430E+00 0.204E+02   0.985E-03 0.123E-03 -.124E+00
   0.269E+00 0.322E-01 -.747E+01   -.275E+00 -.274E-01 0.643E+01   0.176E-02 -.189E-02 0.336E+00
   0.121E+01 0.122E+00 -.188E+04   -.119E+01 -.118E+00 0.188E+04   -.263E-02 -.372E-02 0.913E-01
   -.381E-01 0.188E+00 -.195E+04   0.666E-01 -.170E+00 0.195E+04   -.790E-02 -.295E-02 -.131E+00
   -.398E+00 0.105E+01 -.376E+04   0.564E+00 -.101E+01 0.376E+04   -.295E-01 -.596E-02 -.279E+00
   -.360E+00 0.198E+01 -.378E+04   0.388E+00 -.199E+01 0.378E+04   0.640E-02 -.292E-02 0.919E+00
   0.115E-01 0.154E-01 0.377E+04   -.120E-01 -.153E-01 -.377E+04   0.139E-03 -.421E-05 0.400E+00
   0.953E-02 0.909E-06 0.395E+04   -.995E-02 -.156E-06 -.394E+04   0.889E-04 0.144E-05 -.368E+01
   0.475E-01 0.269E-01 0.191E+04   -.495E-01 -.270E-01 -.191E+04   0.280E-03 0.608E-04 -.445E-01
   0.377E-02 0.577E-05 0.191E+04   -.544E-02 -.615E-06 -.191E+04   0.412E-03 -.578E-06 0.196E+00
   -.133E+00 0.412E+00 -.189E+02   0.132E+00 -.408E+00 0.197E+02   0.441E-03 -.184E-03 -.124E+00
   0.135E+00 0.106E-04 -.768E+01   -.138E+00 -.635E-05 0.665E+01   0.654E-03 -.379E-05 0.335E+00
   0.525E-01 0.109E+00 -.189E+04   -.330E-01 -.105E+00 0.189E+04   -.278E-02 -.384E-02 0.922E-01
   -.742E+00 0.214E-06 -.195E+04   0.751E+00 -.426E-05 0.195E+04   0.589E-02 0.170E-05 -.126E+00
   -.720E+00 0.443E+00 -.376E+04   0.732E+00 -.420E+00 0.376E+04   0.179E-01 -.953E-03 -.291E+00
   0.200E+00 -.443E-05 -.378E+04   -.179E+00 -.293E-05 0.378E+04   -.160E-02 0.245E-06 0.939E+00
   0.116E-01 -.154E-01 0.377E+04   -.120E-01 0.153E-01 -.377E+04   0.147E-03 0.129E-04 0.400E+00
   0.107E-01 -.130E-01 0.395E+04   -.111E-01 0.129E-01 -.394E+04   0.864E-04 0.944E-05 -.368E+01
   0.475E-01 -.269E-01 0.191E+04   -.495E-01 0.270E-01 -.191E+04   0.279E-03 -.585E-04 -.445E-01
   0.771E-01 -.123E+00 0.191E+04   -.780E-01 0.122E+00 -.191E+04   0.196E-03 0.840E-04 0.196E+00
   -.133E+00 -.412E+00 -.189E+02   0.132E+00 0.408E+00 0.197E+02   0.443E-03 0.184E-03 -.124E+00
   0.269E+00 -.322E-01 -.747E+01   -.275E+00 0.274E-01 0.643E+01   0.176E-02 0.189E-02 0.336E+00
   0.526E-01 -.109E+00 -.189E+04   -.332E-01 0.105E+00 0.189E+04   -.278E-02 0.384E-02 0.922E-01
   -.378E-01 -.188E+00 -.195E+04   0.664E-01 0.170E+00 0.195E+04   -.789E-02 0.295E-02 -.131E+00
   -.720E+00 -.443E+00 -.376E+04   0.732E+00 0.420E+00 0.376E+04   0.179E-01 0.948E-03 -.291E+00
   -.360E+00 -.198E+01 -.378E+04   0.388E+00 0.199E+01 0.378E+04   0.640E-02 0.291E-02 0.919E+00
   0.217E-01 -.154E-01 0.377E+04   -.219E-01 0.153E-01 -.377E+04   0.683E-04 0.896E-05 0.400E+00
   0.118E-01 0.115E-05 0.395E+04   -.123E-01 0.154E-06 -.394E+04   0.857E-04 0.587E-05 -.368E+01
   0.648E-01 -.284E-01 0.191E+04   -.671E-01 0.283E-01 -.191E+04   0.385E-03 -.537E-04 -.444E-01
   0.149E+00 -.715E-06 0.191E+04   -.149E+00 0.423E-06 -.191E+04   -.611E-04 -.982E-07 0.196E+00
   0.775E+00 -.427E+00 -.196E+02   -.780E+00 0.430E+00 0.204E+02   0.983E-03 -.123E-03 -.124E+00
   0.372E+00 -.115E-05 -.730E+01   -.381E+00 0.337E-05 0.626E+01   0.265E-02 0.337E-05 0.335E+00
   0.121E+01 -.122E+00 -.188E+04   -.119E+01 0.118E+00 0.188E+04   -.264E-02 0.372E-02 0.913E-01
   0.591E+00 0.746E-05 -.195E+04   -.556E+00 -.894E-05 0.195E+04   -.446E-02 -.923E-06 -.138E+00
[...]
      9.79368      1.47992     22.05750         0.027763     -0.022200      0.031334
     13.06071      2.95920     21.69787         0.032911      0.006043      0.291223
      9.79585      4.44199      8.77892        -0.000188     -0.000058     -3.575501
      0.00000      5.92265      8.77892        -0.000422      0.000007      2.447537
      0.00000      4.44199     12.04421        -0.001967     -0.000130      0.526240
      9.79585      5.92265     12.04421        -0.000167     -0.000000     -0.720383
      9.79585      4.44199     15.30949        -0.004604      0.002999      0.677482
      0.00000      5.92265     15.30949        -0.006600      0.000006     -0.710113
      0.00036      4.44169     18.50765         0.016992     -0.000179      0.035753
      9.79737      5.92265     18.70082         0.029105     -0.000002     -0.055714
      9.79270      4.44131     22.05646         0.134054     -0.040931      0.021476
     13.05369      5.92265     21.69715         0.044968     -0.000019      0.291138
      3.26528      7.40331      8.77892         0.000163      0.000251     -3.576380
      6.53056      8.88397      8.77892         0.000354      0.000338      2.448137
      6.53056      7.40331     12.04421         0.001872      0.006922      0.525999
      3.26528      8.88397     12.04421         0.000736      0.001193     -0.726437
      3.26528      7.40331     15.30949         0.005178      0.004612      0.651153
      6.53056      8.88397     15.30949         0.003896     -0.013341     -0.672627
      6.53095      7.39231     18.52878        -0.017629      0.090395     -0.059521
      3.26454      8.88545     18.69433        -0.020193      0.008914      0.000003
      3.25517      7.40805     22.04047        -0.082644     -0.152066      0.236888
      6.53378      8.88591     21.68226        -0.046309      0.205260      0.274359
      3.26528     10.36464      8.77892         0.000341      0.000303     -3.576118
      6.53056      0.00000      8.77892         0.000321     -0.000008      2.448631
      6.53056     10.36464     12.04421         0.001635      0.003394      0.531281
      3.26528      0.00000     12.04421         0.001274     -0.000005     -0.725018
      3.26528     10.36464     15.30949         0.001940      0.021564      0.668128
      6.53056      0.00000     15.30949         0.001958     -0.000008     -0.754760
      6.53212     10.35963     18.49470        -0.015114      0.040091      0.010032
      3.26616      0.00000     18.69967        -0.011669      0.000008      0.000084
      3.27014     10.36554     22.05828        -0.022796     -0.045053      0.088516
      6.53118     11.84530     21.68367        -0.026697     -0.000001      0.285095
      3.26528      1.48066      8.77892         0.000317     -0.000304     -3.576087
      6.53056      2.96132      8.77892         0.000359     -0.000340      2.448138
      6.53056      1.48066     12.04421         0.001642     -0.003405      0.531276
      3.26528      2.96132     12.04421         0.000739     -0.001194     -0.726434
      3.26528      1.48066     15.30949         0.001932     -0.021573      0.668129
      6.53056      2.96132     15.30949         0.003892      0.013343     -0.672626
      6.53213      1.48567     18.49470        -0.015115     -0.040092      0.010030
      3.26455      2.95985     18.69433        -0.020187     -0.008921     -0.000002
      3.27014      1.47976     22.05828        -0.022800      0.045052      0.088490
      6.53378      2.95939     21.68226        -0.046306     -0.205247      0.274369
      3.26528      4.44199      8.77892         0.000175     -0.000251     -3.576383
      6.53056      5.92265      8.77892         0.000379      0.000014      2.447814
      6.53056      4.44199     12.04421         0.001874     -0.006917      0.526004
      3.26528      5.92265     12.04421         0.000228     -0.000001     -0.727890
      3.26528      4.44199     15.30949         0.005171     -0.004604      0.651155
      6.53056      5.92265     15.30949         0.005931      0.000003     -0.684753
      6.53095      4.45299     18.52878        -0.017626     -0.090388     -0.059528
      3.26288      5.92265     18.69387        -0.028631      0.000010      0.007810
      3.25517      4.43725     22.04047        -0.082649      0.152070      0.236909
      6.51946      5.92265     21.75585        -0.093652      0.000002     -0.654090
      9.79585      8.88397      7.50000         0.000054     -0.000086      1.529494
      9.79585      8.88397     10.05785         0.000091     -0.000102      1.780411
      1.27892      7.40331      8.77892        -1.734229     -0.000035     -0.823983
     11.78220      7.40331      8.77892         1.734747     -0.000027     -0.824071
      0.00000      8.88397     10.76528         0.000240     -0.000075     -1.428647
      0.00000      8.88397     13.32313         0.000453     -0.000064     -0.030706
     11.07477      7.40331     12.04421         0.525723     -0.000099      0.051623
      1.98636      7.40331     12.04421        -0.523697     -0.000373      0.052451
      9.79585      8.88397     14.03056         0.000450     -0.000245     -0.195747
      9.79585      8.88397     16.58841         0.000837     -0.003997      0.142104
      1.27892      7.40331     15.30949        -0.370734     -0.000290      0.096932
     11.78220      7.40331     15.30949         0.380513      0.000632      0.094390
     13.06056      8.88501     17.31484        -0.002211     -0.000761     -0.129849
      0.00216      8.88313     19.88083        -0.002219     -0.000227     -0.005212
     11.10406      7.40425     18.59131         0.050316     -0.003708     -0.008919
      1.95645      7.40511     18.58572        -0.069030     -0.001250     -0.016594
      9.79978      8.88597     20.56973        -0.015127     -0.015876      0.014908
      9.79363      8.88396     23.13845        -0.011164     -0.029702      0.505360
      1.22547      7.39999     22.02813         0.054511      0.004086      0.111220
     11.83404      7.40411     22.02093        -0.140221     -0.000381      0.121201
      9.79585      0.00000      7.50000         0.000061     -0.000014      1.529493
      9.79585      0.00000     10.05785         0.000146     -0.000002      1.780274
      1.27892     10.36464      8.77892        -1.734279     -0.000035     -0.824001
     11.78220     10.36464      8.77892         1.734760     -0.000024     -0.824070
      0.00000      0.00000     10.76528         0.000221      0.000006     -1.428658
      0.00000      0.00000     13.32313         0.000405      0.000001     -0.030267
     11.07477     10.36464     12.04421         0.525739     -0.000131      0.051682
      1.98636     10.36464     12.04421        -0.523933     -0.000398      0.052337
      9.79585      0.00000     14.03056        -0.000069     -0.000001     -0.195521
      9.79585      0.00000     16.58841         0.007925     -0.000002      0.128877
      1.27892     10.36464     15.30949        -0.374140     -0.001032      0.095023
     11.78220     10.36464     15.30949         0.379342      0.000270      0.093821
     13.06079     11.84530     17.31520        -0.001889      0.000002     -0.132009
      0.00211      0.00000     19.88080        -0.002021     -0.000006     -0.004574
     11.10443     10.36496     18.59288         0.054906     -0.004258     -0.010385
      1.95801     10.36645     18.59113        -0.073436     -0.001589     -0.016613
      9.79773      0.00000     20.56990        -0.003619      0.000003      0.003339
      9.80017     11.84530     23.13905        -0.003823      0.000003      0.509041
      1.22775     10.36373     22.02202         0.081404      0.001984      0.114075
     11.83619     10.36414     22.01774        -0.121558      0.000607      0.119895
      9.79585      2.96132      7.50000         0.000051      0.000064      1.529497
      9.79585      2.96132     10.05785         0.000095      0.000098      1.780418
      1.27892      1.48066      8.77892        -1.734279      0.000025     -0.824008
     11.78220      1.48066      8.77892         1.734743      0.000014     -0.824063
      0.00000      2.96132     10.76528         0.000227      0.000063     -1.428636
      0.00000      2.96132     13.32313         0.000454      0.000064     -0.030704
     11.07477      1.48066     12.04421         0.525738      0.000128      0.051682
      1.98636      1.48066     12.04421        -0.523934      0.000395      0.052343
      9.79585      2.96132     14.03056         0.000455      0.000241     -0.195740
      9.79585      2.96132     16.58841         0.000838      0.003998      0.142111
      1.27892      1.48066     15.30949        -0.374142      0.001034      0.095024
     11.78220      1.48066     15.30949         0.379343     -0.000267      0.093818
     13.06056      2.96029     17.31484        -0.002211      0.000764     -0.129855
      0.00216      2.96217     19.88083        -0.002224      0.000242     -0.005198
     11.10443      1.48034     18.59288         0.054905      0.004259     -0.010380
      1.95801      1.47885     18.59113        -0.073435      0.001587     -0.016610
      9.79978      2.95933     20.56973        -0.015123      0.015882      0.014902
      9.79363      2.96134     23.13845        -0.011170      0.029701      0.505352
      1.22775      1.48157     22.02202         0.081409     -0.001986      0.114071
     11.83619      1.48116     22.01774        -0.121572     -0.000616      0.119890
      9.79585      5.92265      7.50000         0.000052      0.000002      1.529469
      9.79585      5.92265     10.05785         0.000058     -0.000007      1.780451
      1.27892      4.44199      8.77892        -1.734218      0.000041     -0.823993
     11.78220      4.44199      8.77892         1.734741      0.000031     -0.824065
      0.00000      5.92265     10.76528         0.000234      0.000005     -1.428636
      0.00000      5.92265     13.32313         0.000534      0.000002     -0.030808
     11.07477      4.44199     12.04421         0.525727      0.000102      0.051622
      1.98636      4.44199     12.04421        -0.523698      0.000372      0.052453
      9.79585      5.92265     14.03056         0.001193     -0.000001     -0.196274
      9.79585      5.92265     16.58841        -0.001990      0.000005      0.149237
      1.27892      4.44199     15.30949        -0.370734      0.000289      0.096930
     11.78220      4.44199     15.30949         0.380511     -0.000637      0.094391
     13.06014      5.92265     17.31451        -0.002823      0.000001     -0.128729
      0.00063      5.92265     19.88007        -0.002028     -0.000009     -0.006172
     11.10406      4.44105     18.59131         0.050327      0.003707     -0.008911
      1.95645      4.44019     18.58572        -0.069035      0.001254     -0.016586
      9.80514      5.92265     20.57102        -0.017378      0.000002      0.017481
      9.78456      5.92265     23.13723        -0.031601      0.000001      0.521560
      1.22547      4.44531     22.02813         0.054502     -0.004078      0.111216
     11.83404      4.44119     22.02093        -0.140207      0.000388      0.121190
      3.26528      8.88397      7.50000        -0.000083     -0.000150      1.529867
      3.26528      8.88397     10.05785        -0.000107     -0.000233      1.781979
      7.80949      7.40331      8.77892        -1.734552     -0.000220     -0.824080
      5.25164      7.40331      8.77892         1.733988     -0.000237     -0.824028
      6.53056      8.88397     10.76528        -0.000247     -0.001567     -1.430060
      6.53056      8.88397     13.32313        -0.000578     -0.003615     -0.038546
      4.54421      7.40331     12.04421         0.523283     -0.000713      0.052444
      8.51692      7.40331     12.04421        -0.525389     -0.000426      0.051661
      3.26528      8.88397     14.03056        -0.000432     -0.005445     -0.187273
      3.26528      8.88397     16.58841         0.002308     -0.006226      0.136718
      7.80949      7.40331     15.30949        -0.378241     -0.017300      0.091412
      5.25164      7.40331     15.30949         0.367046     -0.017924      0.091757
      6.52988      8.87416     17.31465         0.001905     -0.031748     -0.098820
      6.53614      8.89398     19.86814         0.005062     -0.021491      0.054217
      4.56981      7.40307     18.60007         0.117901     -0.005499     -0.009933
      8.49127      7.40251     18.59758        -0.097193     -0.007420     -0.007411
      3.25155      8.88789     20.56820         0.012093      0.011321     -0.050156
      3.27364      8.87820     23.13637        -0.011208      0.061420      0.456787
      7.75772      7.41418     22.00020         0.011718     -0.180922      0.280489
      5.29056      7.42687     21.96522         0.117959     -0.237265      0.285364
      3.26528      0.00000      7.50000        -0.000089     -0.000011      1.529821
      3.26528      0.00000     10.05785        -0.000188      0.000002      1.781441
      7.80949     10.36464      8.77892        -1.734472     -0.000200     -0.824128
      5.25164     10.36464      8.77892         1.733943     -0.000210     -0.824069
      6.53056      0.00000     10.76528        -0.000248     -0.000006     -1.431438
      6.53056      0.00000     13.32313        -0.000417     -0.000004     -0.048564
      4.54421     10.36464     12.04421         0.521992     -0.000537      0.052071
      8.51692     10.36464     12.04421        -0.523883     -0.000278      0.051420
      3.26528      0.00000     14.03056        -0.000217      0.000007     -0.190115
      3.26528      0.00000     16.58841         0.001295      0.000006      0.123162
      7.80949     10.36464     15.30949        -0.374208     -0.008194      0.096219
      5.25164     10.36464     15.30949         0.368460     -0.008818      0.095524
      6.53033     11.84530     17.30744         0.001361     -0.000003     -0.111345
      6.53011      0.00000     19.86851         0.002972     -0.000007      0.010159
      4.57057     10.36405     18.58978         0.097349     -0.003486     -0.013468
      8.49094     10.36529     18.58785        -0.078740     -0.006130     -0.009892
      3.26602     11.84530     20.57308         0.002088      0.000001     -0.040187
      3.26433      0.00000     23.14066         0.002944     -0.000013      0.507659
      7.75929     10.37017     22.01279         0.084991     -0.035927      0.109130
      5.30374     10.36642     22.01393        -0.041795     -0.029380      0.094844
      3.26528      2.96132      7.50000        -0.000081      0.000153      1.529859
      3.26528      2.96132     10.05785        -0.000116      0.000231      1.781969
      7.80949      1.48066      8.77892        -1.734456      0.000201     -0.824139
      5.25164      1.48066      8.77892         1.733952      0.000203     -0.824075
      6.53056      2.96132     10.76528        -0.000243      0.001567     -1.430056
      6.53056      2.96132     13.32313        -0.000579      0.003618     -0.038541
      4.54421      1.48066     12.04421         0.521988      0.000534      0.052073
      8.51692      1.48066     12.04421        -0.523876      0.000274      0.051423
      3.26528      2.96132     14.03056        -0.000434      0.005441     -0.187264
      3.26528      2.96132     16.58841         0.002308      0.006214      0.136716
      7.80949      1.48066     15.30949        -0.374209      0.008200      0.096222
      5.25164      1.48066     15.30949         0.368459      0.008823      0.095527
      6.52988      2.97114     17.31465         0.001906      0.031749     -0.098823
      6.53614      2.95132     19.86814         0.005052      0.021489      0.054208
      4.57057      1.48124     18.58978         0.097341      0.003475     -0.013468
      8.49094      1.48001     18.58785        -0.078739      0.006125     -0.009891
      3.25155      2.95741     20.56820         0.012088     -0.011330     -0.050156
      3.27364      2.96710     23.13637        -0.011201     -0.061418      0.456797
      7.75929      1.47513     22.01279         0.084988      0.035928      0.109129
      5.30374      1.47888     22.01393        -0.041785      0.029372      0.094842
      3.26528      5.92265      7.50000        -0.000072      0.000018      1.529815
      3.26528      5.92265     10.05785        -0.000087     -0.000000      1.782316
      7.80949      4.44199      8.77892        -1.734543      0.000218     -0.824077
      5.25164      4.44199      8.77892         1.733967      0.000229     -0.824044
      6.53056      5.92265     10.76528        -0.000248      0.000008     -1.428182
      6.53056      5.92265     13.32313        -0.000671      0.000004     -0.013729
      4.54421      4.44199     12.04421         0.523279      0.000720      0.052450
      8.51692      4.44199     12.04421        -0.525386      0.000427      0.051661
      3.26528      5.92265     14.03056        -0.001256     -0.000002     -0.185199
      3.26528      5.92265     16.58841         0.006088     -0.000001      0.134071
      7.80949      4.44199     15.30949        -0.378238      0.017298      0.091412
      5.25164      4.44199     15.30949         0.367052      0.017921      0.091760
      6.52999      5.92265     17.32171         0.001489     -0.000003     -0.079747
      6.53266      5.92265     19.90365         0.013645      0.000002      0.312272
      4.56981      4.44223     18.60007         0.117901      0.005498     -0.009935
      8.49127      4.44279     18.59758        -0.097194      0.007419     -0.007417
      3.24001      5.92265     20.56408         0.013383     -0.000001     -0.069662
      3.31676      5.92265     23.13027        -0.069413     -0.000000      0.298961
      7.75772      4.43112     22.00020         0.011727      0.180925      0.280495
      5.29056      4.41842     21.96522         0.117950      0.237260      0.285374
 -----------------------------------------------------------------------------------
    total drift:                                0.002510      0.000013     -0.042059


--------------------------------------------------------------------------------------------------------



  FREE ENERGIE OF THE ION-ELECTRON SYSTEM (eV)
  ---------------------------------------------------
  free  energy   TOTEN  =     -1563.65088052 eV

  energy  without entropy=    -1563.65088052  energy(sigma->0) =    -1563.65088052
 


--------------------------------------------------------------------------------------------------------


    POTLOK:  cpu time      0.7370: real time      0.7401


--------------------------------------------------------------------------------------------------------


     LOOP+:  cpu time   1666.6961: real time   1674.9129
    4ORBIT:  cpu time      0.0000: real time      0.0000

 total amount of memory used by VASP MPI-rank0   634271. kBytes
=======================================================================

   base      :      30000. kBytes
   nonl-proj :     395326. kBytes
   fftplans  :      41495. kBytes
   grid      :      57314. kBytes
   one-center:       1866. kBytes
   wavefun   :     108270. kBytes
 
  
  
 General timing and accounting informations for this job:
 ========================================================
  
                  Total CPU time used (sec):     1709.999
                            User time (sec):     1704.519
                          System time (sec):        5.481
                         Elapsed time (sec):     1719.110
  
                   Maximum memory used (kb):     1286148.
                   Average memory used (kb):          N/A
  
                          Minor page faults:       133182
                          Major page faults:          107
                 Voluntary context switches:         3080
