 vasp.6.3.0 20Jan22 (build Apr  1 2022 16:44:48) complex                         
 executed on        HPECrayEX_GCC date 2023.04.10  23:03:48
 running 1024 mpi-ranks, with    1 threads/rank
 distrk:  each k-point on 1024 cores,    1 groups
 distr:  one band on NCORE=   8 cores,  128 groups


--------------------------------------------------------------------------------------------------------


 INCAR:
   SYSTEM = TiO2
   ISMEAR = 0
   SIGMA = 0.05
   EDIFF = 1E-7
   ALGO = ALL
   ISTART = 0
   IBRION = 2
   NSW = 1000
   ISYM = 0
   ISIF = 2
   EDIFFG = -0.01
   DIPOL = 0.5 0.5 0.5
   IDIPOL = 3
   LDIPOL = .TRUE.
   GGA = RE
   IVDW = 13
   VDW_S8 = 1.7468
   VDW_A1 = 0.5363
   VDW_A2 = 3.0726
   ENCUT = 600
   PREC = Accurate
   LASPH = .TRUE.
   LREAL = .FALSE.
   ISPIN = 1
   NELM = 200
   NELMIN = 8
   NCORE = 8
   KPAR = 1
   LWAVE = .FALSE.
   LCHARG = .FALSE.

 POTCAR:    PAW_PBE C 08Apr2002                   
 POTCAR:    PAW_PBE H 15Jun2001                   
 POTCAR:    PAW_PBE Ti_pv 07Sep2000               
 POTCAR:    PAW_PBE O 08Apr2002                   
 POTCAR:    PAW_PBE C 08Apr2002                   
   SHA256 =  253f7b50bb8d59471dbedb8285d89021f4a42ed1a2c5d38a03a736e69125dd95 C/POTCAR              
   COPYR  = (c) Copyright 08Apr2002 Georg Kresse                                                    
   COPYR  = This file is part of the software VASP. Any use, copying, and all other rights are regul
   COPYR  = If you do not have a valid VASP license, you may not use, copy or distribute this file. 
   VRHFIN =C: s2p2                                                                                  
   LEXCH  = PE                                                                                      
   EATOM  =   147.1560 eV,   10.8157 Ry                                                             
                                                                                                    
   TITEL  = PAW_PBE C 08Apr2002                                                                     
   LULTRA =        F    use ultrasoft PP ?                                                          
   IUNSCR =        1    unscreen: 0-lin 1-nonlin 2-no                                               
   RPACOR =    1.200    partial core radius                                                         
   POMASS =   12.011; ZVAL   =    4.000    mass and valenz                                          
   RCORE  =    1.500    outmost cutoff radius                                                       
   RWIGS  =    1.630; RWIGS  =    0.863    wigner-seitz radius (au A)                               
   ENMAX  =  400.000; ENMIN  =  300.000 eV                                                          
   ICORE  =        2    local potential                                                             
   LCOR   =        T    correct aug charges                                                         
   LPAW   =        T    paw PP                                                                      
   EAUG   =  644.873                                                                                
   DEXC   =    0.000                                                                                
   RMAX   =    1.529    core radius for proj-oper                                                   
   RAUG   =    1.300    factor for augmentation sphere                                              
   RDEP   =    1.501    radius for radial grids                                                     
   RDEPT  =    1.300    core radius for aug-charge                                                  
                                                                                                    
   Atomic configuration                                                                             
    4 entries                                                                                       
     n  l   j            E        occ.                                                              
     1  0  0.50      -273.3789   2.0000                                                             
     2  0  0.50       -13.7508   2.0000                                                             
     2  1  0.50        -5.2854   2.0000                                                             
     3  2  1.50        -5.4423   0.0000                                                             
   Description                                                                                      
     l       E           TYP  RCUT    TYP  RCUT                                                     
     0    -13.7508458     23  1.200                                                                 
     0     -8.2022199     23  1.200                                                                 
     1     -5.2854383     23  1.500                                                                 
     1     34.0145650     23  1.500                                                                 
     2     -5.4423304      7  1.500                                                                 
  local pseudopotential read in
  partial core-charges read in
  partial kinetic energy density read in
  atomic valenz-charges read in
  non local Contribution for L=           0  read in
    real space projection operators read in
  non local Contribution for L=           0  read in
    real space projection operators read in
  non local Contribution for L=           1  read in
    real space projection operators read in
  non local Contribution for L=           1  read in
    real space projection operators read in
    PAW grid and wavefunctions read in

   number of l-projection  operators is LMAX  =           4
   number of lm-projection operators is LMMAX =           8

 POTCAR:    PAW_PBE H 15Jun2001                   
   SHA256 =  030f79b5d3ab3cf0e668861823c8fb652ff669f3e15e46930bd03bfd63a607b6 H/POTCAR              
   COPYR  = (c) Copyright 15Jun2001 Georg Kresse                                                    
   COPYR  = This file is part of the software VASP. Any use, copying, and all other rights are regul
   COPYR  = If you do not have a valid VASP license, you may not use, copy or distribute this file. 
   VRHFIN =H: ultrasoft test                                                                        
   LEXCH  = PE                                                                                      
   EATOM  =    12.4884 eV,    0.9179 Ry                                                             
                                                                                                    
   TITEL  = PAW_PBE H 15Jun2001                                                                     
   LULTRA =        F    use ultrasoft PP ?                                                          
   IUNSCR =        0    unscreen: 0-lin 1-nonlin 2-no                                               
   RPACOR =    0.000    partial core radius                                                         
   POMASS =    1.000; ZVAL   =    1.000    mass and valenz                                          
   RCORE  =    1.100    outmost cutoff radius                                                       
   RWIGS  =    0.700; RWIGS  =    0.370    wigner-seitz radius (au A)                               
   ENMAX  =  250.000; ENMIN  =  200.000 eV                                                          
   RCLOC  =    0.701    cutoff for local pot                                                        
   LCOR   =        T    correct aug charges                                                         
   LPAW   =        T    paw PP                                                                      
   EAUG   =  400.000                                                                                
   RMAX   =    1.123    core radius for proj-oper                                                   
   RAUG   =    1.200    factor for augmentation sphere                                              
   RDEP   =    1.112    radius for radial grids                                                     
   RDEPT  =    0.926    core radius for aug-charge                                                  
                                                                                                    
   Atomic configuration                                                                             
    2 entries                                                                                       
     n  l   j            E        occ.                                                              
     1  0  0.50        -6.4927   1.0000                                                             
     2  1  0.50        -3.4015   0.0000                                                             
   Description                                                                                      
     l       E           TYP  RCUT    TYP  RCUT                                                     
     0     -6.4927494     23  1.100                                                                 
     0      6.8029130     23  1.100                                                                 
     1     -4.0817478     23  1.100                                                                 
  local pseudopotential read in
  atomic valenz-charges read in
  non local Contribution for L=           0  read in
    real space projection operators read in
  non local Contribution for L=           0  read in
    real space projection operators read in
  non local Contribution for L=           1  read in
    real space projection operators read in
    PAW grid and wavefunctions read in

   number of l-projection  operators is LMAX  =           3
   number of lm-projection operators is LMMAX =           5

 POTCAR:    PAW_PBE Ti_pv 07Sep2000               
   SHA256 =  f757a1b2c6d082f4c628fa3d987464a8763bf92e53844ac0500b0e2ddc9ce5c0 Ti_pv/POTCAR          
   COPYR  = (c) Copyright 07Sep2000 Georg Kresse                                                    
   COPYR  = This file is part of the software VASP. Any use, copying, and all other rights are regul
   COPYR  = If you do not have a valid VASP license, you may not use, copy or distribute this file. 
   VRHFIN =Ti: d3 s1                                                                                
   LEXCH  = PE                                                                                      
   EATOM  =  1042.5995 eV,   76.6289 Ry                                                             
                                                                                                    
   TITEL  = PAW_PBE Ti_pv 07Sep2000                                                                 
   LULTRA =        F    use ultrasoft PP ?                                                          
   IUNSCR =        1    unscreen: 0-lin 1-nonlin 2-no                                               
   RPACOR =    2.200    partial core radius                                                         
   POMASS =   47.880; ZVAL   =   10.000    mass and valenz                                          
   RCORE  =    2.500    outmost cutoff radius                                                       
   RWIGS  =    2.500; RWIGS  =    1.323    wigner-seitz radius (au A)                               
   ENMAX  =  222.335; ENMIN  =  166.751 eV                                                          
   RCLOC  =    1.701    cutoff for local pot                                                        
   LCOR   =        T    correct aug charges                                                         
   LPAW   =        T    paw PP                                                                      
   EAUG   =  482.848                                                                                
   DEXC   =    0.000                                                                                
   RMAX   =    2.564    core radius for proj-oper                                                   
   RAUG   =    1.300    factor for augmentation sphere                                              
   RDEP   =    2.538    radius for radial grids                                                     
   RDEPT  =    1.952    core radius for aug-charge                                                  
                                                                                                    
   Atomic configuration                                                                             
    8 entries                                                                                       
     n  l   j            E        occ.                                                              
     1  0  0.50     -4865.3608   2.0000                                                             
     2  0  0.50      -533.1368   2.0000                                                             
     2  1  1.50      -440.5031   6.0000                                                             
     3  0  0.50       -59.3186   2.0000                                                             
     3  1  1.50       -35.7012   6.0000                                                             
     3  2  2.50        -1.9157   3.0000                                                             
     4  0  0.50        -3.7291   1.0000                                                             
     4  3  2.50        -1.3606   0.0000                                                             
   Description                                                                                      
     l       E           TYP  RCUT    TYP  RCUT                                                     
     1    -35.7012140     23  2.300                                                                 
     1     -1.3605826     23  2.300                                                                 
     2     -1.9156996     23  2.500                                                                 
     2     -0.4063033     23  2.500                                                                 
     0     -3.7290856     23  2.500                                                                 
     0     20.4087390     23  2.500                                                                 
  local pseudopotential read in
  partial core-charges read in
  partial kinetic energy density read in
  atomic valenz-charges read in
  non local Contribution for L=           1  read in
    real space projection operators read in
  non local Contribution for L=           1  read in
    real space projection operators read in
  non local Contribution for L=           2  read in
    real space projection operators read in
  non local Contribution for L=           2  read in
    real space projection operators read in
  non local Contribution for L=           0  read in
    real space projection operators read in
  non local Contribution for L=           0  read in
    real space projection operators read in
    PAW grid and wavefunctions read in

   number of l-projection  operators is LMAX  =           6
   number of lm-projection operators is LMMAX =          18

 POTCAR:    PAW_PBE O 08Apr2002                   
   SHA256 =  818f92134a0a090dccd8ba1447fa70422a3b330e708bb4f08108d8ae51209ddf O/POTCAR              
   COPYR  = (c) Copyright 08Apr2002 Georg Kresse                                                    
   COPYR  = This file is part of the software VASP. Any use, copying, and all other rights are regul
   COPYR  = If you do not have a valid VASP license, you may not use, copy or distribute this file. 
   VRHFIN =O: s2p4                                                                                  
   LEXCH  = PE                                                                                      
   EATOM  =   432.3788 eV,   31.7789 Ry                                                             
                                                                                                    
   TITEL  = PAW_PBE O 08Apr2002                                                                     
   LULTRA =        F    use ultrasoft PP ?                                                          
   IUNSCR =        1    unscreen: 0-lin 1-nonlin 2-no                                               
   RPACOR =    1.200    partial core radius                                                         
   POMASS =   16.000; ZVAL   =    6.000    mass and valenz                                          
   RCORE  =    1.520    outmost cutoff radius                                                       
   RWIGS  =    1.550; RWIGS  =    0.820    wigner-seitz radius (au A)                               
   ENMAX  =  400.000; ENMIN  =  300.000 eV                                                          
   ICORE  =        2    local potential                                                             
   LCOR   =        T    correct aug charges                                                         
   LPAW   =        T    paw PP                                                                      
   EAUG   =  605.392                                                                                
   DEXC   =    0.000                                                                                
   RMAX   =    1.553    core radius for proj-oper                                                   
   RAUG   =    1.300    factor for augmentation sphere                                              
   RDEP   =    1.550    radius for radial grids                                                     
   RDEPT  =    1.329    core radius for aug-charge                                                  
                                                                                                    
   Atomic configuration                                                                             
    4 entries                                                                                       
     n  l   j            E        occ.                                                              
     1  0  0.50      -514.6923   2.0000                                                             
     2  0  0.50       -23.9615   2.0000                                                             
     2  1  0.50        -9.0305   4.0000                                                             
     3  2  1.50        -9.5241   0.0000                                                             
   Description                                                                                      
     l       E           TYP  RCUT    TYP  RCUT                                                     
     0    -23.9615318     23  1.200                                                                 
     0     -9.5240782     23  1.200                                                                 
     1     -9.0304911     23  1.520                                                                 
     1      8.1634956     23  1.520                                                                 
     2     -9.5240782      7  1.500                                                                 
  local pseudopotential read in
  partial core-charges read in
  partial kinetic energy density read in
  kinetic energy density of atom read in
  atomic valenz-charges read in
  non local Contribution for L=           0  read in
    real space projection operators read in
  non local Contribution for L=           0  read in
    real space projection operators read in
  non local Contribution for L=           1  read in
    real space projection operators read in
  non local Contribution for L=           1  read in
    real space projection operators read in
    PAW grid and wavefunctions read in

   number of l-projection  operators is LMAX  =           4
   number of lm-projection operators is LMMAX =           8

 -----------------------------------------------------------------------------
|                                                                             |
|               ----> ADVICE to this user running VASP <----                  |
|                                                                             |
|     You have a (more or less) 'large supercell' and for larger cells it     |
|     might be more efficient to use real-space projection operators.         |
|     Therefore, try LREAL= Auto in the INCAR file.                           |
|     Mind: For very accurate calculation, you might also keep the            |
|     reciprocal projection scheme (i.e. LREAL=.FALSE.).                      |
|                                                                             |
 -----------------------------------------------------------------------------

 -----------------------------------------------------------------------------
|                                                                             |
|               ----> ADVICE to this user running VASP <----                  |
|                                                                             |
|     You enforced a specific xc type in the INCAR file but a different       |
|     type was found in the POTCAR file.                                      |
|     I HOPE YOU KNOW WHAT YOU ARE DOING!                                     |
|                                                                             |
 -----------------------------------------------------------------------------

  PAW_PBE C 08Apr2002                   :
 energy of atom  1       EATOM= -147.1560
 kinetic energy error for atom=    0.0057 (will be added to EATOM!!)
  PAW_PBE H 15Jun2001                   :
 energy of atom  2       EATOM=  -12.4884
 kinetic energy error for atom=    0.0004 (will be added to EATOM!!)
  PAW_PBE Ti_pv 07Sep2000               :
 energy of atom  3       EATOM=-1042.5995
 kinetic energy error for atom=    0.0007 (will be added to EATOM!!)
  PAW_PBE O 08Apr2002                   :
 energy of atom  4       EATOM= -432.3788
 kinetic energy error for atom=    0.0168 (will be added to EATOM!!)


 POSCAR:  C  H Ti  O
  positions in direct lattice
  No initial velocities read in
 -----------------------------------------------------------------------------
|                                                                             |
|           W    W    AA    RRRRR   N    N  II  N    N   GGGG   !!!           |
|           W    W   A  A   R    R  NN   N  II  NN   N  G    G  !!!           |
|           W    W  A    A  R    R  N N  N  II  N N  N  G       !!!           |
|           W WW W  AAAAAA  RRRRR   N  N N  II  N  N N  G  GGG   !            |
|           WW  WW  A    A  R   R   N   NN  II  N   NN  G    G                |
|           W    W  A    A  R    R  N    N  II  N    N   GGGG   !!!           |
|                                                                             |
|     Specifying the vdW parameters                                           |
|     VDW_S8 = 1.747                                                          |
|     VDW_A1 = 0.536                                                          |
|     VDW_A2 = 3.073                                                          |
|     in the INCAR file will overwrite the defaults for revpbe. Please        |
|     make sure that is what you intended.                                    |
|                                                                             |
 -----------------------------------------------------------------------------

 exchange correlation table for  LEXCH =       40
   RHO(1)=    0.500       N(1)  =     2000
   RHO(2)=  100.500       N(2)  =     4000



--------------------------------------------------------------------------------------------------------


 ion  position               nearest neighbor table
   1  0.500  0.500  0.812-   3 1.10   2 1.10   5 1.10   4 1.10
   2  0.496  0.576  0.833-   1 1.10
   3  0.504  0.424  0.833-   1 1.10
   4  0.571  0.504  0.793-   1 1.10
   5  0.430  0.496  0.793-   1 1.10
   6  0.750  0.625  0.287-  87 1.95 147 1.95 146 1.95  86 1.95  89 1.98 168 1.98  16 2.96  36 2.96

   7  0.000  0.750  0.287-  88 1.95  89 1.95 108 1.95 109 1.95  90 1.98  37 2.96  17 2.96
   8  0.000  0.625  0.394-  90 1.95 150 1.95  91 1.95 151 1.95  92 1.98  93 1.98  18 2.96  38 2.96

   9  0.750  0.750  0.394-  92 1.95 112 1.95 173 1.95 193 1.95  94 1.98  87 1.98  19 2.96  39 2.96

  10  0.750  0.625  0.500-  94 1.95  95 1.95 154 1.95 155 1.95  97 1.98 176 1.98  20 2.96  40 2.96

  11  0.000  0.750  0.500-  96 1.95  97 1.95 116 1.95 117 1.95  91 1.98  98 2.00  21 2.96  41 2.96

  12  1.000  0.625  0.604-  98 1.89 158 1.89 100 1.95 101 1.95  99 2.02 159 2.02  22 2.96  42 2.96

  13  0.750  0.750  0.611- 102 1.86 181 1.97 201 1.97 120 1.97 100 1.97  95 2.11  23 2.96  43 2.96

  14  0.750  0.625  0.720- 103 1.83 163 1.83 105 2.03 184 2.03 102 2.10 162 2.10  24 2.96  44 2.96

  15  0.000  0.750  0.708-  99 1.81 104 1.95 124 1.95 105 1.95 125 1.95  25 2.96  45 2.96
  16  0.750  0.875  0.287-  87 1.95 107 1.95 106 1.95  86 1.95 109 1.98 188 1.98   6 2.96  26 2.96

  17  0.000  0.000  0.287- 108 1.95 109 1.95 128 1.95 129 1.95 110 1.98  27 2.96   7 2.96
  18  0.000  0.875  0.394-  90 1.95 110 1.95  91 1.95 111 1.95 112 1.98 113 1.98   8 2.96  28 2.96

  19  0.750  0.000  0.394- 112 1.95 132 1.95 193 1.95 213 1.95 114 1.98 107 1.98   9 2.96  29 2.96

  20  0.750  0.875  0.500-  94 1.95  95 1.95 114 1.95 115 1.95 117 1.98 196 1.98  10 2.96  30 2.96

  21  0.000  0.000  0.500- 116 1.95 117 1.95 136 1.95 137 1.95 111 1.98 118 2.00  11 2.96  31 2.96

  22  1.000  0.875  0.604- 118 1.89  98 1.89 120 1.95 121 1.95 119 2.02  99 2.02  32 2.96  12 2.96

  23  0.750  0.000  0.611- 122 1.86 140 1.97 120 1.97 201 1.97 221 1.97 115 2.11  13 2.96  33 2.96

  24  0.750  0.875  0.720- 123 1.83 103 1.83 125 2.03 204 2.03 122 2.10 102 2.10  14 2.96  34 2.96

  25  0.000  0.000  0.708- 119 1.81 144 1.95 124 1.95 125 1.95 145 1.95  35 2.96  15 2.96
  26  0.750  0.125  0.287- 107 1.95 127 1.95 126 1.95 106 1.95 129 1.98 208 1.98  16 2.96  36 2.96

  27  0.000  0.250  0.287- 128 1.95 129 1.95 148 1.95 149 1.95 130 1.98  37 2.96  17 2.96
  28  0.000  0.125  0.394- 110 1.95 130 1.95 111 1.95 131 1.95 132 1.98 133 1.98  18 2.96  38 2.96

  29  0.750  0.250  0.394- 132 1.95 152 1.95 213 1.95 233 1.95 134 1.98 127 1.98  19 2.96  39 2.96

  30  0.750  0.125  0.500- 114 1.95 115 1.95 134 1.95 135 1.95 137 1.98 216 1.98  20 2.96  40 2.96

  31  0.000  0.250  0.500- 136 1.95 137 1.95 156 1.95 157 1.95 131 1.98 138 2.00  21 2.96  41 2.96

  32  0.000  0.125  0.604- 118 1.89 138 1.89 141 1.95 140 1.95 139 2.02 119 2.02  42 2.96  22 2.96

  33  0.750  0.250  0.611- 142 1.86 160 1.97 140 1.97 241 1.97 221 1.97 135 2.11  43 2.96  23 2.96

  34  0.750  0.125  0.720- 143 1.83 123 1.83 145 2.03 224 2.03 142 2.10 122 2.10  44 2.96  24 2.96

  35  1.000  0.250  0.708- 139 1.81 145 1.95 165 1.95 144 1.95 164 1.95  25 2.96  45 2.96
  36  0.750  0.375  0.287- 127 1.95 147 1.95 146 1.95 126 1.95 149 1.98 228 1.98   6 2.96  26 2.96

  37  0.000  0.500  0.287-  88 1.95  89 1.95 148 1.95 149 1.95 150 1.98  27 2.96   7 2.96
  38  0.000  0.375  0.394- 130 1.95 150 1.95 131 1.95 151 1.95 152 1.98 153 1.98   8 2.96  28 2.96

  39  0.750  0.500  0.394-  92 1.95 152 1.95 173 1.95 233 1.95 147 1.98 154 1.98   9 2.96  29 2.96

  40  0.750  0.375  0.500- 134 1.95 135 1.95 154 1.95 155 1.95 157 1.98 236 1.98  10 2.96  30 2.96

  41  0.000  0.500  0.500-  96 1.95  97 1.95 156 1.95 157 1.95 151 1.98 158 2.00  11 2.96  31 2.96

  42  0.000  0.375  0.604- 138 1.89 158 1.89 161 1.95 160 1.95 139 2.02 159 2.02  32 2.96  12 2.96

  43  0.750  0.500  0.611- 162 1.86 160 1.97 241 1.97 100 1.97 181 1.97 155 2.11  33 2.96  13 2.96

  44  0.750  0.375  0.720- 143 1.83 163 1.83 244 2.03 165 2.03 162 2.10 142 2.10  34 2.96  14 2.96

  45  0.000  0.500  0.708- 159 1.81 164 1.95 165 1.95 104 1.95 105 1.95  35 2.96  15 2.96
  46  0.250  0.625  0.287- 167 1.95 227 1.95 226 1.95 166 1.95  88 1.98 169 1.98  56 2.96  76 2.96

  47  0.500  0.750  0.287- 168 1.95 169 1.95 188 1.95 189 1.95 170 1.98  77 2.96  57 2.96
  48  0.500  0.625  0.394- 170 1.95 230 1.95 171 1.95 231 1.95 172 1.98 173 1.98  58 2.96  78 2.96

  49  0.250  0.750  0.394-  93 1.95 113 1.95 172 1.95 192 1.95 174 1.98 167 1.98  59 2.96  79 2.96

  50  0.250  0.625  0.500- 174 1.95 175 1.95 234 1.95 235 1.95  96 1.98 177 1.98  60 2.96  80 2.96

  51  0.500  0.750  0.500- 176 1.95 177 1.95 196 1.95 197 1.95 171 1.98 178 2.00  61 2.96  81 2.96

  52  0.500  0.625  0.604- 178 1.89 238 1.89 180 1.95 181 1.95 239 2.02 179 2.02  82 2.96  62 2.96

  53  0.250  0.750  0.611- 182 1.86 101 1.97 121 1.97 180 1.97 200 1.97 175 2.11  83 2.96  63 2.96

  54  0.250  0.625  0.720- 243 1.83 183 1.83 185 2.03 104 2.03 182 2.10 242 2.10  64 2.96  84 2.96

  55  0.500  0.750  0.708- 179 1.81 205 1.95 204 1.95 184 1.95 185 1.95  65 2.96  85 2.96
  56  0.250  0.875  0.287- 167 1.95 187 1.95 186 1.95 166 1.95 108 1.98 189 1.98  46 2.96  66 2.96

  57  0.500  0.000  0.287- 188 1.95 189 1.95 208 1.95 209 1.95 190 1.98  67 2.96  47 2.96
  58  0.500  0.875  0.394- 170 1.95 190 1.95 171 1.95 191 1.95 192 1.98 193 1.98  48 2.96  68 2.96

  59  0.250  0.000  0.394- 113 1.95 133 1.95 192 1.95 212 1.95 194 1.98 187 1.98  49 2.96  69 2.96

  60  0.250  0.875  0.500- 174 1.95 175 1.95 194 1.95 195 1.95 116 1.98 197 1.98  50 2.96  70 2.96

  61  0.500  0.000  0.500- 196 1.95 197 1.95 216 1.95 217 1.95 191 1.98 198 2.00  51 2.96  71 2.96

  62  0.500  0.875  0.604- 178 1.89 198 1.89 200 1.95 201 1.95 199 2.02 179 2.02  72 2.96  52 2.96

  63  0.250  0.000  0.611- 202 1.86 220 1.97 200 1.97 141 1.97 121 1.97 195 2.11  73 2.96  53 2.96

  64  0.250  0.875  0.720- 203 1.83 183 1.83 205 2.03 124 2.03 182 2.10 202 2.10  54 2.96  74 2.96

  65  0.500  0.000  0.708- 199 1.81 204 1.95 224 1.95 225 1.95 205 1.95  55 2.96  75 2.96
  66  0.250  0.125  0.287- 187 1.95 207 1.95 206 1.95 186 1.95 128 1.98 209 1.98  56 2.96  76 2.96

  67  0.500  0.250  0.287- 208 1.95 209 1.95 228 1.95 229 1.95 210 1.98  77 2.96  57 2.96
  68  0.500  0.125  0.394- 190 1.95 210 1.95 191 1.95 211 1.95 212 1.98 213 1.98  58 2.96  78 2.96

  69  0.250  0.250  0.394- 133 1.95 153 1.95 212 1.95 232 1.95 214 1.98 207 1.98  59 2.96  79 2.96

  70  0.250  0.125  0.500- 194 1.95 195 1.95 214 1.95 215 1.95 136 1.98 217 1.98  60 2.96  80 2.96

  71  0.500  0.250  0.500- 216 1.95 217 1.95 236 1.95 237 1.95 211 1.98 218 2.00  61 2.96  81 2.96

  72  0.500  0.125  0.604- 198 1.89 218 1.89 221 1.95 220 1.95 219 2.02 199 2.02  82 2.96  62 2.96

  73  0.250  0.250  0.611- 222 1.86 220 1.97 240 1.97 141 1.97 161 1.97 215 2.11  63 2.96  83 2.96

  74  0.250  0.125  0.720- 223 1.83 203 1.83 225 2.03 144 2.03 202 2.10 222 2.10  84 2.96  64 2.96

  75  0.500  0.250  0.708- 219 1.81 244 1.95 224 1.95 245 1.95 225 1.95  65 2.96  85 2.96
  76  0.250  0.375  0.287- 207 1.95 227 1.95 226 1.95 206 1.95 148 1.98 229 1.98  46 2.96  66 2.96

  77  0.500  0.500  0.287- 168 1.95 169 1.95 228 1.95 229 1.95 230 1.98  67 2.96  47 2.96
  78  0.500  0.375  0.394- 210 1.95 230 1.95 211 1.95 231 1.95 232 1.98 233 1.98  48 2.96  68 2.96

  79  0.250  0.500  0.394-  93 1.95 153 1.95 172 1.95 232 1.95 227 1.98 234 1.98  49 2.96  69 2.96

  80  0.250  0.375  0.500- 214 1.95 215 1.95 234 1.95 235 1.95 156 1.98 237 1.98  50 2.96  70 2.96

  81  0.500  0.500  0.500- 176 1.95 177 1.95 236 1.95 237 1.95 231 1.98 238 2.00  51 2.96  71 2.96

  82  0.500  0.375  0.604- 218 1.89 238 1.89 241 1.95 240 1.95 219 2.02 239 2.02  72 2.96  52 2.96

  83  0.250  0.500  0.611- 242 1.86 101 1.97 180 1.97 161 1.97 240 1.97 235 2.11  53 2.96  73 2.96

  84  0.250  0.375  0.720- 223 1.83 243 1.83 245 2.03 164 2.03 222 2.10 242 2.10  74 2.96  54 2.96

  85  0.500  0.500  0.708- 239 1.81 184 1.95 244 1.95 185 1.95 245 1.95  75 2.96  55 2.96
  86  0.750  0.750  0.245-   6 1.95  16 1.95
  87  0.750  0.750  0.329-   6 1.95  16 1.95   9 1.98
  88  0.098  0.625  0.287-   7 1.95  37 1.95  46 1.98
  89  0.902  0.625  0.287-   7 1.95  37 1.95   6 1.98
  90  0.000  0.750  0.352-   8 1.95  18 1.95   7 1.98
  91  0.000  0.750  0.435-   8 1.95  18 1.95  11 1.98
  92  0.848  0.625  0.394-   9 1.95  39 1.95   8 1.98
  93  0.152  0.625  0.394-  49 1.95  79 1.95   8 1.98
  94  0.750  0.750  0.458-  10 1.95  20 1.95   9 1.98
  95  0.750  0.750  0.542-  10 1.95  20 1.95  13 2.11
  96  0.098  0.625  0.500-  11 1.95  41 1.95  50 1.98
  97  0.902  0.625  0.500-  11 1.95  41 1.95  10 1.98
  98  1.000  0.750  0.565-  12 1.89  22 1.89  11 2.00
  99  0.000  0.750  0.649-  15 1.81  22 2.02  12 2.02
 100  0.850  0.625  0.607-  12 1.95  43 1.97  13 1.97
 101  0.150  0.625  0.607-  12 1.95  53 1.97  83 1.97
 102  0.750  0.750  0.672-  13 1.86  24 2.10  14 2.10
 103  0.750  0.750  0.756-  14 1.83  24 1.83
 104  0.094  0.625  0.719-  15 1.95  45 1.95  54 2.03
 105  0.906  0.625  0.719-  15 1.95  45 1.95  14 2.03
 106  0.750  0.000  0.245-  16 1.95  26 1.95
 107  0.750  0.000  0.329-  16 1.95  26 1.95  19 1.98
 108  0.098  0.875  0.287-   7 1.95  17 1.95  56 1.98
 109  0.902  0.875  0.287-   7 1.95  17 1.95  16 1.98
 110  0.000  0.000  0.352-  18 1.95  28 1.95  17 1.98
 111  0.000  0.000  0.435-  18 1.95  28 1.95  21 1.98
 112  0.848  0.875  0.394-   9 1.95  19 1.95  18 1.98
 113  0.152  0.875  0.394-  49 1.95  59 1.95  18 1.98
 114  0.750  0.000  0.458-  20 1.95  30 1.95  19 1.98
 115  0.750  0.000  0.542-  20 1.95  30 1.95  23 2.11
 116  0.098  0.875  0.500-  11 1.95  21 1.95  60 1.98
 117  0.902  0.875  0.500-  11 1.95  21 1.95  20 1.98
 118  1.000  0.000  0.565-  32 1.89  22 1.89  21 2.00
 119  0.000  1.000  0.649-  25 1.81  22 2.02  32 2.02
 120  0.850  0.875  0.607-  22 1.95  23 1.97  13 1.97
 121  0.150  0.875  0.607-  22 1.95  53 1.97  63 1.97
 122  0.750  0.000  0.672-  23 1.86  34 2.10  24 2.10
 123  0.750  1.000  0.756-  24 1.83  34 1.83
 124  0.094  0.875  0.719-  25 1.95  15 1.95  64 2.03
 125  0.906  0.875  0.719-  25 1.95  15 1.95  24 2.03
 126  0.750  0.250  0.245-  26 1.95  36 1.95
 127  0.750  0.250  0.329-  26 1.95  36 1.95  29 1.98
 128  0.098  0.125  0.287-  17 1.95  27 1.95  66 1.98
 129  0.902  0.125  0.287-  17 1.95  27 1.95  26 1.98
 130  0.000  0.250  0.352-  28 1.95  38 1.95  27 1.98
 131  0.000  0.250  0.435-  28 1.95  38 1.95  31 1.98
 132  0.848  0.125  0.394-  19 1.95  29 1.95  28 1.98
 133  0.152  0.125  0.394-  59 1.95  69 1.95  28 1.98
 134  0.750  0.250  0.458-  30 1.95  40 1.95  29 1.98
 135  0.750  0.250  0.542-  30 1.95  40 1.95  33 2.11
 136  0.098  0.125  0.500-  21 1.95  31 1.95  70 1.98
 137  0.902  0.125  0.500-  21 1.95  31 1.95  30 1.98
 138  1.000  0.250  0.565-  42 1.89  32 1.89  31 2.00
 139  1.000  0.250  0.649-  35 1.81  32 2.02  42 2.02
 140  0.850  0.125  0.607-  32 1.95  33 1.97  23 1.97
 141  0.150  0.125  0.607-  32 1.95  63 1.97  73 1.97
 142  0.750  0.250  0.672-  33 1.86  34 2.10  44 2.10
 143  0.750  0.250  0.756-  44 1.83  34 1.83
 144  0.094  0.125  0.719-  25 1.95  35 1.95  74 2.03
 145  0.906  0.125  0.719-  35 1.95  25 1.95  34 2.03
 146  0.750  0.500  0.245-   6 1.95  36 1.95
 147  0.750  0.500  0.329-   6 1.95  36 1.95  39 1.98
 148  0.098  0.375  0.287-  27 1.95  37 1.95  76 1.98
 149  0.902  0.375  0.287-  27 1.95  37 1.95  36 1.98
 150  0.000  0.500  0.352-   8 1.95  38 1.95  37 1.98
 151  0.000  0.500  0.435-   8 1.95  38 1.95  41 1.98
 152  0.848  0.375  0.394-  29 1.95  39 1.95  38 1.98
 153  0.152  0.375  0.394-  69 1.95  79 1.95  38 1.98
 154  0.750  0.500  0.458-  10 1.95  40 1.95  39 1.98
 155  0.750  0.500  0.542-  10 1.95  40 1.95  43 2.11
 156  0.098  0.375  0.500-  31 1.95  41 1.95  80 1.98
 157  0.902  0.375  0.500-  31 1.95  41 1.95  40 1.98
 158  1.000  0.500  0.565-  42 1.89  12 1.89  41 2.00
 159  0.000  0.500  0.649-  45 1.81  12 2.02  42 2.02
 160  0.850  0.375  0.607-  42 1.95  33 1.97  43 1.97
 161  0.150  0.375  0.607-  42 1.95  83 1.97  73 1.97
 162  0.750  0.500  0.672-  43 1.86  44 2.10  14 2.10
 163  0.750  0.500  0.756-  14 1.83  44 1.83
 164  0.094  0.375  0.719-  45 1.95  35 1.95  84 2.03
 165  0.906  0.375  0.719-  35 1.95  45 1.95  44 2.03
 166  0.250  0.750  0.245-  46 1.95  56 1.95
 167  0.250  0.750  0.329-  46 1.95  56 1.95  49 1.98
 168  0.598  0.625  0.287-  47 1.95  77 1.95   6 1.98
 169  0.402  0.625  0.287-  47 1.95  77 1.95  46 1.98
 170  0.500  0.750  0.352-  48 1.95  58 1.95  47 1.98
 171  0.500  0.750  0.435-  48 1.95  58 1.95  51 1.98
 172  0.348  0.625  0.394-  49 1.95  79 1.95  48 1.98
 173  0.652  0.625  0.394-   9 1.95  39 1.95  48 1.98
 174  0.250  0.750  0.458-  50 1.95  60 1.95  49 1.98
 175  0.250  0.750  0.542-  50 1.95  60 1.95  53 2.11
 176  0.598  0.625  0.500-  51 1.95  81 1.95  10 1.98
 177  0.402  0.625  0.500-  51 1.95  81 1.95  50 1.98
 178  0.500  0.750  0.565-  52 1.89  62 1.89  51 2.00
 179  0.500  0.750  0.649-  55 1.81  62 2.02  52 2.02
 180  0.350  0.625  0.607-  52 1.95  83 1.97  53 1.97
 181  0.650  0.625  0.607-  52 1.95  13 1.97  43 1.97
 182  0.250  0.750  0.672-  53 1.86  54 2.10  64 2.10
 183  0.250  0.750  0.756-  64 1.83  54 1.83
 184  0.594  0.625  0.719-  85 1.95  55 1.95  14 2.03
 185  0.406  0.625  0.719-  85 1.95  55 1.95  54 2.03
 186  0.250  0.000  0.245-  56 1.95  66 1.95
 187  0.250  0.000  0.329-  56 1.95  66 1.95  59 1.98
 188  0.598  0.875  0.287-  47 1.95  57 1.95  16 1.98
 189  0.402  0.875  0.287-  47 1.95  57 1.95  56 1.98
 190  0.500  0.000  0.352-  58 1.95  68 1.95  57 1.98
 191  0.500  0.000  0.435-  58 1.95  68 1.95  61 1.98
 192  0.348  0.875  0.394-  49 1.95  59 1.95  58 1.98
 193  0.652  0.875  0.394-   9 1.95  19 1.95  58 1.98
 194  0.250  0.000  0.458-  60 1.95  70 1.95  59 1.98
 195  0.250  0.000  0.542-  60 1.95  70 1.95  63 2.11
 196  0.598  0.875  0.500-  51 1.95  61 1.95  20 1.98
 197  0.402  0.875  0.500-  51 1.95  61 1.95  60 1.98
 198  0.500  0.000  0.565-  72 1.89  62 1.89  61 2.00
 199  0.500  0.000  0.649-  65 1.81  62 2.02  72 2.02
 200  0.350  0.875  0.607-  62 1.95  63 1.97  53 1.97
 201  0.650  0.875  0.607-  62 1.95  13 1.97  23 1.97
 202  0.250  0.000  0.672-  63 1.86  64 2.10  74 2.10
 203  0.250  1.000  0.756-  64 1.83  74 1.83
 204  0.594  0.875  0.719-  65 1.95  55 1.95  24 2.03
 205  0.406  0.875  0.719-  55 1.95  65 1.95  64 2.03
 206  0.250  0.250  0.245-  66 1.95  76 1.95
 207  0.250  0.250  0.329-  66 1.95  76 1.95  69 1.98
 208  0.598  0.125  0.287-  57 1.95  67 1.95  26 1.98
 209  0.402  0.125  0.287-  57 1.95  67 1.95  66 1.98
 210  0.500  0.250  0.352-  68 1.95  78 1.95  67 1.98
 211  0.500  0.250  0.435-  68 1.95  78 1.95  71 1.98
 212  0.348  0.125  0.394-  59 1.95  69 1.95  68 1.98
 213  0.652  0.125  0.394-  19 1.95  29 1.95  68 1.98
 214  0.250  0.250  0.458-  70 1.95  80 1.95  69 1.98
 215  0.250  0.250  0.542-  70 1.95  80 1.95  73 2.11
 216  0.598  0.125  0.500-  61 1.95  71 1.95  30 1.98
 217  0.402  0.125  0.500-  61 1.95  71 1.95  70 1.98
 218  0.500  0.250  0.565-  82 1.89  72 1.89  71 2.00
 219  0.500  0.250  0.649-  75 1.81  72 2.02  82 2.02
 220  0.350  0.125  0.607-  72 1.95  73 1.97  63 1.97
 221  0.650  0.125  0.607-  72 1.95  23 1.97  33 1.97
 222  0.250  0.250  0.672-  73 1.86  84 2.10  74 2.10
 223  0.250  0.250  0.756-  74 1.83  84 1.83
 224  0.594  0.125  0.719-  65 1.95  75 1.95  34 2.03
 225  0.406  0.125  0.719-  65 1.95  75 1.95  74 2.03
 226  0.250  0.500  0.245-  46 1.95  76 1.95
 227  0.250  0.500  0.329-  46 1.95  76 1.95  79 1.98
 228  0.598  0.375  0.287-  67 1.95  77 1.95  36 1.98
 229  0.402  0.375  0.287-  67 1.95  77 1.95  76 1.98
 230  0.500  0.500  0.352-  48 1.95  78 1.95  77 1.98
 231  0.500  0.500  0.435-  48 1.95  78 1.95  81 1.98
 232  0.348  0.375  0.394-  69 1.95  79 1.95  78 1.98
 233  0.652  0.375  0.394-  29 1.95  39 1.95  78 1.98
 234  0.250  0.500  0.458-  50 1.95  80 1.95  79 1.98
 235  0.250  0.500  0.542-  50 1.95  80 1.95  83 2.11
 236  0.598  0.375  0.500-  71 1.95  81 1.95  40 1.98
 237  0.402  0.375  0.500-  71 1.95  81 1.95  80 1.98
 238  0.500  0.500  0.565-  82 1.89  52 1.89  81 2.00
 239  0.500  0.500  0.649-  85 1.81  52 2.02  82 2.02
 240  0.350  0.375  0.607-  82 1.95  73 1.97  83 1.97
 241  0.650  0.375  0.607-  82 1.95  43 1.97  33 1.97
 242  0.250  0.500  0.672-  83 1.86  54 2.10  84 2.10
 243  0.250  0.500  0.756-  54 1.83  84 1.83
 244  0.594  0.375  0.719-  75 1.95  85 1.95  44 2.03
 245  0.406  0.375  0.719-  75 1.95  85 1.95  84 2.03


IMPORTANT INFORMATION: All symmetrisations will be switched off!
NOSYMM: (Re-)initialisation of all symmetry stuff for point group C_1.


----------------------------------------------------------------------------------------

                                     Primitive cell                                     

  volume of cell :    4700.2961

  direct lattice vectors                    reciprocal lattice vectors
    13.003980404  0.000000000  0.000000000     0.076899531  0.000000000  0.000000000
     0.000000000 11.830378115  0.000000000     0.000000000  0.084528152  0.000000000
     0.000000000  0.000000000 30.552748813     0.000000000  0.000000000  0.032730279

  length of vectors
    13.003980404 11.830378115 30.552748813     0.076899531  0.084528152  0.032730279

  position of ions in fractional coordinates (direct lattice)
     0.500065889  0.499995884  0.812499318
     0.495959939  0.575714045  0.833131531
     0.504186380  0.424294279  0.833134113
     0.570550079  0.504425007  0.792779832
     0.429575349  0.495566906  0.792787647
     0.750000000  0.625000000  0.287188045
     0.000000000  0.750000000  0.287188045
     0.000000000  0.625000000  0.393594023
     0.750000000  0.750000000  0.393594023
     0.750000000  0.625000000  0.500000000
     0.000000000  0.750000000  0.500000000
     0.999999955  0.625000002  0.604130556
     0.749999964  0.750000003  0.610777676
     0.750000006  0.625000015  0.720488722
     0.000000007  0.749999999  0.708137356
     0.750000000  0.875000000  0.287188045
     0.000000000  0.000000000  0.287188045
     0.000000000  0.875000000  0.393594023
     0.750000000  0.000000000  0.393594023
     0.750000000  0.875000000  0.500000000
     0.000000000  0.000000000  0.500000000
     0.999999988  0.875000010  0.604130566
     0.750000007  0.000000005  0.610777698
     0.750000008  0.875000003  0.720488715
     0.000000013  0.000000002  0.708137369
     0.750000000  0.125000000  0.287188045
     0.000000000  0.250000000  0.287188045
     0.000000000  0.125000000  0.393594023
     0.750000000  0.250000000  0.393594023
     0.750000000  0.125000000  0.500000000
     0.000000000  0.250000000  0.500000000
     0.000000025  0.125000008  0.604130562
     0.750000035  0.250000018  0.610777675
     0.750000000  0.125000012  0.720488716
     0.999999975  0.249999992  0.708137360
     0.750000000  0.375000000  0.287188045
     0.000000000  0.500000000  0.287188045
     0.000000000  0.375000000  0.393594023
     0.750000000  0.500000000  0.393594023
     0.750000000  0.375000000  0.500000000
     0.000000000  0.500000000  0.500000000
     0.000000044  0.374999984  0.604130557
     0.749999994  0.499999982  0.610777696
     0.749999991  0.374999994  0.720488723
     0.000000003  0.499999993  0.708137373
     0.250000000  0.625000000  0.287188045
     0.500000000  0.750000000  0.287188045
     0.500000000  0.625000000  0.393594023
     0.250000000  0.750000000  0.393594023
     0.250000000  0.625000000  0.500000000
     0.500000000  0.750000000  0.500000000
     0.499999991  0.624999998  0.604130558
     0.249999964  0.749999998  0.610777689
     0.250000005  0.625000004  0.720488721
     0.500000001  0.750000008  0.708137359
     0.250000000  0.875000000  0.287188045
     0.500000000  0.000000000  0.287188045
     0.500000000  0.875000000  0.393594023
     0.250000000  0.000000000  0.393594023
     0.250000000  0.875000000  0.500000000
     0.500000000  0.000000000  0.500000000
     0.499999981  0.875000006  0.604130559
     0.250000024  0.000000006  0.610777702
     0.250000006  0.874999995  0.720488725
     0.500000016  0.000000006  0.708137361
     0.250000000  0.125000000  0.287188045
     0.500000000  0.250000000  0.287188045
     0.500000000  0.125000000  0.393594023
     0.250000000  0.250000000  0.393594023
     0.250000000  0.125000000  0.500000000
     0.500000000  0.250000000  0.500000000
     0.500000066  0.125000007  0.604130562
     0.250000056  0.249999978  0.610777679
     0.250000005  0.125000009  0.720488725
     0.499999997  0.250000004  0.708137360
     0.250000000  0.375000000  0.287188045
     0.500000000  0.500000000  0.287188045
     0.500000000  0.375000000  0.393594023
     0.250000000  0.500000000  0.393594023
     0.250000000  0.375000000  0.500000000
     0.500000000  0.500000000  0.500000000
     0.500000002  0.374999994  0.604130555
     0.249999994  0.500000006  0.610777694
     0.249999999  0.374999993  0.720488726
     0.500000007  0.500000003  0.708137364
     0.750000000  0.750000000  0.245477094
     0.750000000  0.750000000  0.328898996
     0.097999548  0.625000000  0.287188045
     0.902000452  0.625000000  0.287188045
     0.000000000  0.750000000  0.351883072
     0.000000000  0.750000000  0.435304973
     0.847999548  0.625000000  0.393594023
     0.152000452  0.625000000  0.393594023
     0.750000000  0.750000000  0.458289049
     0.750000000  0.750000000  0.541710951
     0.097999548  0.625000000  0.500000000
     0.902000452  0.625000000  0.500000000
     0.999999995  0.750000000  0.565347944
     0.000000011  0.750000011  0.648994554
     0.850197911  0.624999999  0.607139179
     0.149802087  0.624999997  0.607139172
     0.750000000  0.750000009  0.671650641
     0.749999995  0.750000000  0.755932776
     0.094073980  0.625000012  0.718728066
     0.905926026  0.625000008  0.718728074
     0.750000000  0.000000000  0.245477094
     0.750000000  0.000000000  0.328898996
     0.097999548  0.875000000  0.287188045
     0.902000452  0.875000000  0.287188045
     0.000000000  0.000000000  0.351883072
     0.000000000  0.000000000  0.435304973
     0.847999548  0.875000000  0.393594023
     0.152000452  0.875000000  0.393594023
     0.750000000  0.000000000  0.458289049
     0.750000000  0.000000000  0.541710951
     0.097999548  0.875000000  0.500000000
     0.902000452  0.875000000  0.500000000
     0.999999994  0.000000015  0.565347942
     0.000000012  0.999999998  0.648994553
     0.850197908  0.875000008  0.607139180
     0.149802090  0.875000006  0.607139173
     0.749999996  0.000000014  0.671650649
     0.749999997  0.999999995  0.755932766
     0.094073980  0.874999998  0.718728062
     0.905926022  0.875000011  0.718728065
     0.750000000  0.250000000  0.245477094
     0.750000000  0.250000000  0.328898996
     0.097999548  0.125000000  0.287188045
     0.902000452  0.125000000  0.287188045
     0.000000000  0.250000000  0.351883072
     0.000000000  0.250000000  0.435304973
     0.847999548  0.125000000  0.393594023
     0.152000452  0.125000000  0.393594023
     0.750000000  0.250000000  0.458289049
     0.750000000  0.250000000  0.541710951
     0.097999548  0.125000000  0.500000000
     0.902000452  0.125000000  0.500000000
     0.999999995  0.250000003  0.565347938
     0.999999993  0.249999995  0.648994555
     0.850197908  0.124999998  0.607139189
     0.149802089  0.125000002  0.607139173
     0.750000002  0.249999979  0.671650641
     0.749999993  0.250000005  0.755932774
     0.094073972  0.125000002  0.718728067
     0.905926018  0.124999990  0.718728070
     0.750000000  0.500000000  0.245477094
     0.750000000  0.500000000  0.328898996
     0.097999548  0.375000000  0.287188045
     0.902000452  0.375000000  0.287188045
     0.000000000  0.500000000  0.351883072
     0.000000000  0.500000000  0.435304973
     0.847999548  0.375000000  0.393594023
     0.152000452  0.375000000  0.393594023
     0.750000000  0.500000000  0.458289049
     0.750000000  0.500000000  0.541710951
     0.097999548  0.375000000  0.500000000
     0.902000452  0.375000000  0.500000000
     0.999999990  0.499999991  0.565347942
     0.000000000  0.499999997  0.648994560
     0.850197905  0.374999998  0.607139186
     0.149802085  0.374999996  0.607139168
     0.749999992  0.500000000  0.671650646
     0.749999994  0.500000007  0.755932771
     0.094073975  0.374999992  0.718728069
     0.905926019  0.374999992  0.718728078
     0.250000000  0.750000000  0.245477094
     0.250000000  0.750000000  0.328898996
     0.597999548  0.625000000  0.287188045
     0.402000452  0.625000000  0.287188045
     0.500000000  0.750000000  0.351883072
     0.500000000  0.750000000  0.435304973
     0.347999548  0.625000000  0.393594023
     0.652000452  0.625000000  0.393594023
     0.250000000  0.750000000  0.458289049
     0.250000000  0.750000000  0.541710951
     0.597999548  0.625000000  0.500000000
     0.402000452  0.625000000  0.500000000
     0.499999991  0.749999996  0.565347942
     0.499999988  0.750000010  0.648994556
     0.350197913  0.625000001  0.607139180
     0.649802078  0.625000002  0.607139168
     0.250000006  0.749999997  0.671650651
     0.250000001  0.750000005  0.755932780
     0.594073974  0.624999998  0.718728070
     0.405926020  0.625000002  0.718728064
     0.250000000  0.000000000  0.245477094
     0.250000000  0.000000000  0.328898996
     0.597999548  0.875000000  0.287188045
     0.402000452  0.875000000  0.287188045
     0.500000000  0.000000000  0.351883072
     0.500000000  0.000000000  0.435304973
     0.347999548  0.875000000  0.393594023
     0.652000452  0.875000000  0.393594023
     0.250000000  0.000000000  0.458289049
     0.250000000  0.000000000  0.541710951
     0.597999548  0.875000000  0.500000000
     0.402000452  0.875000000  0.500000000
     0.499999991  0.000000015  0.565347941
     0.500000001  0.000000000  0.648994554
     0.350197916  0.875000002  0.607139184
     0.649802077  0.875000010  0.607139175
     0.249999996  0.000000002  0.671650654
     0.249999997  0.999999994  0.755932773
     0.594073991  0.875000005  0.718728058
     0.405926032  0.875000009  0.718728068
     0.250000000  0.250000000  0.245477094
     0.250000000  0.250000000  0.328898996
     0.597999548  0.125000000  0.287188045
     0.402000452  0.125000000  0.287188045
     0.500000000  0.250000000  0.351883072
     0.500000000  0.250000000  0.435304973
     0.347999548  0.125000000  0.393594023
     0.652000452  0.125000000  0.393594023
     0.250000000  0.250000000  0.458289049
     0.250000000  0.250000000  0.541710951
     0.597999548  0.125000000  0.500000000
     0.402000452  0.125000000  0.500000000
     0.499999988  0.249999995  0.565347939
     0.499999996  0.249999999  0.648994558
     0.350197909  0.125000000  0.607139185
     0.649802071  0.124999998  0.607139174
     0.249999996  0.250000008  0.671650649
     0.249999998  0.249999995  0.755932780
     0.594073980  0.125000014  0.718728066
     0.405926022  0.124999989  0.718728064
     0.250000000  0.500000000  0.245477094
     0.250000000  0.500000000  0.328898996
     0.597999548  0.375000000  0.287188045
     0.402000452  0.375000000  0.287188045
     0.500000000  0.500000000  0.351883072
     0.500000000  0.500000000  0.435304973
     0.347999548  0.375000000  0.393594023
     0.652000452  0.375000000  0.393594023
     0.250000000  0.500000000  0.458289049
     0.250000000  0.500000000  0.541710951
     0.597999548  0.375000000  0.500000000
     0.402000452  0.375000000  0.500000000
     0.499999995  0.499999996  0.565347940
     0.500000004  0.499999996  0.648994558
     0.350197920  0.374999994  0.607139181
     0.649802075  0.374999993  0.607139172
     0.249999993  0.499999995  0.671650649
     0.249999997  0.500000011  0.755932774
     0.594073977  0.374999992  0.718728066
     0.405926019  0.375000002  0.718728071

  ion indices of the primitive-cell ions
   primitive index   ion index
                 1           1
                 2           2
                 3           3
                 4           4
                 5           5
                 6           6
                 7           7
                 8           8
                 9           9
                10          10
                11          11
                12          12
                13          13
                14          14
                15          15
                16          16
                17          17
                18          18
                19          19
                20          20
                21          21
                22          22
                23          23
                24          24
                25          25
                26          26
                27          27
                28          28
                29          29
                30          30
                31          31
                32          32
                33          33
                34          34
                35          35
                36          36
                37          37
                38          38
                39          39
                40          40
                41          41
                42          42
                43          43
                44          44
                45          45
                46          46
                47          47
                48          48
                49          49
                50          50
                51          51
                52          52
                53          53
                54          54
                55          55
                56          56
                57          57
                58          58
                59          59
                60          60
                61          61
                62          62
                63          63
                64          64
                65          65
                66          66
                67          67
                68          68
                69          69
                70          70
                71          71
                72          72
                73          73
                74          74
                75          75
                76          76
                77          77
                78          78
                79          79
                80          80
                81          81
                82          82
                83          83
                84          84
                85          85
                86          86
                87          87
                88          88
                89          89
                90          90
                91          91
                92          92
                93          93
                94          94
                95          95
                96          96
                97          97
                98          98
                99          99
               100         100
               101         101
               102         102
               103         103
               104         104
               105         105
               106         106
               107         107
               108         108
               109         109
               110         110
               111         111
               112         112
               113         113
               114         114
               115         115
               116         116
               117         117
               118         118
               119         119
               120         120
               121         121
               122         122
               123         123
               124         124
               125         125
               126         126
               127         127
               128         128
               129         129
               130         130
               131         131
               132         132
               133         133
               134         134
               135         135
               136         136
               137         137
               138         138
               139         139
               140         140
               141         141
               142         142
               143         143
               144         144
               145         145
               146         146
               147         147
               148         148
               149         149
               150         150
               151         151
               152         152
               153         153
               154         154
               155         155
               156         156
               157         157
               158         158
               159         159
               160         160
               161         161
               162         162
               163         163
               164         164
               165         165
               166         166
               167         167
               168         168
               169         169
               170         170
               171         171
               172         172
               173         173
               174         174
               175         175
               176         176
               177         177
               178         178
               179         179
               180         180
               181         181
               182         182
               183         183
               184         184
               185         185
               186         186
               187         187
               188         188
               189         189
               190         190
               191         191
               192         192
               193         193
               194         194
               195         195
               196         196
               197         197
               198         198
               199         199
               200         200
               201         201
               202         202
               203         203
               204         204
               205         205
               206         206
               207         207
               208         208
               209         209
               210         210
               211         211
               212         212
               213         213
               214         214
               215         215
               216         216
               217         217
               218         218
               219         219
               220         220
               221         221
               222         222
               223         223
               224         224
               225         225
               226         226
               227         227
               228         228
               229         229
               230         230
               231         231
               232         232
               233         233
               234         234
               235         235
               236         236
               237         237
               238         238
               239         239
               240         240
               241         241
               242         242
               243         243
               244         244
               245         245

----------------------------------------------------------------------------------------



 KPOINTS: pymatgen v2020.8.13 with grid density = 

Automatic generation of k-mesh.
 Grid dimensions read from file:
 generate k-points for:    2    2    1

 Generating k-lattice:

  Cartesian coordinates                     Fractional coordinates (reciprocal lattice)
     0.038449766  0.000000000  0.000000000     0.500000000  0.000000000  0.000000000
     0.000000000  0.042264076  0.000000000     0.000000000  0.500000000  0.000000000
     0.000000000  0.000000000  0.032730279     0.000000000  0.000000000  1.000000000

  Length of vectors
     0.038449766  0.042264076  0.032730279

  Shift w.r.t. Gamma in fractional coordinates (k-lattice)
     0.000000000  0.000000000  0.000000000

 
 Subroutine IBZKPT returns following result:
 ===========================================
 
 Found      4 irreducible k-points:
 
 Following reciprocal coordinates:
            Coordinates               Weight
  0.000000  0.000000  0.000000      1.000000
  0.500000  0.000000  0.000000      1.000000
  0.000000  0.500000  0.000000      1.000000
  0.500000  0.500000  0.000000      1.000000
 
 Following cartesian coordinates:
            Coordinates               Weight
  0.000000  0.000000  0.000000      1.000000
  0.038450  0.000000  0.000000      1.000000
  0.000000  0.042264  0.000000      1.000000
  0.038450  0.042264  0.000000      1.000000
 


--------------------------------------------------------------------------------------------------------




 Dimension of arrays:
   k-points           NKPTS =      4   k-points in BZ     NKDIM =      4   number of bands    NBANDS=   1152
   number of dos      NEDOS =    301   number of ions     NIONS =    245
   non local maximal  LDIM  =      6   non local SUM 2l+1 LMDIM =     18
   total plane-waves  NPLWV = ******
   max r-space proj   IRMAX =      1   max aug-charges    IRDMAX=  21607
   dimension x,y,z NGX =   108 NGY =   96 NGZ =  250
   dimension x,y,z NGXF=   216 NGYF=  192 NGZF=  500
   support grid    NGXF=   216 NGYF=  192 NGZF=  500
   ions per type =               1   4  80 160
   NGX,Y,Z   is equivalent  to a cutoff of  13.81, 13.49, 13.60 a.u.
   NGXF,Y,Z  is equivalent  to a cutoff of  27.61, 26.98, 27.21 a.u.

 SYSTEM =  TiO2                                    
 POSCAR =   C  H Ti  O                             

--------------------------------------------------------------------------------------------------------


  energy-cutoff  :      600.00
  volume of cell :     4700.30
      direct lattice vectors                 reciprocal lattice vectors
    13.003980404  0.000000000  0.000000000     0.076899531  0.000000000  0.000000000
     0.000000000 11.830378115  0.000000000     0.000000000  0.084528152  0.000000000
     0.000000000  0.000000000 30.552748813     0.000000000  0.000000000  0.032730279

  length of vectors
    13.003980404 11.830378115 30.552748813     0.076899531  0.084528152  0.032730279



 k-points in units of 2pi/SCALE and weight: pymatgen v2020.8.13 with grid density = 
   0.00000000  0.00000000  0.00000000       0.250
   0.03844977  0.00000000  0.00000000       0.250
   0.00000000  0.04226408  0.00000000       0.250
   0.03844977  0.04226408  0.00000000       0.250

 k-points in reciprocal lattice and weights: pymatgen v2020.8.13 with grid density = 
   0.00000000  0.00000000  0.00000000       0.250
   0.50000000  0.00000000  0.00000000       0.250
   0.00000000  0.50000000  0.00000000       0.250
   0.50000000  0.50000000  0.00000000       0.250

 position of ions in fractional coordinates (direct lattice) 
   0.50006589  0.49999588  0.81249932
   0.49595994  0.57571405  0.83313153
   0.50418638  0.42429428  0.83313411
   0.57055008  0.50442501  0.79277983
   0.42957535  0.49556691  0.79278765
   0.75000000  0.62500000  0.28718805
   0.00000000  0.75000000  0.28718805
   0.00000000  0.62500000  0.39359402
   0.75000000  0.75000000  0.39359402
   0.75000000  0.62500000  0.50000000
   0.00000000  0.75000000  0.50000000
   0.99999996  0.62500000  0.60413056
   0.74999996  0.75000000  0.61077768
   0.75000001  0.62500002  0.72048872
   0.00000001  0.75000000  0.70813736
   0.75000000  0.87500000  0.28718805
   0.00000000  0.00000000  0.28718805
   0.00000000  0.87500000  0.39359402
   0.75000000  0.00000000  0.39359402
   0.75000000  0.87500000  0.50000000
   0.00000000  0.00000000  0.50000000
   0.99999999  0.87500001  0.60413057
   0.75000001  0.00000000  0.61077770
   0.75000001  0.87500000  0.72048872
   0.00000001  0.00000000  0.70813737
   0.75000000  0.12500000  0.28718805
   0.00000000  0.25000000  0.28718805
   0.00000000  0.12500000  0.39359402
   0.75000000  0.25000000  0.39359402
   0.75000000  0.12500000  0.50000000
   0.00000000  0.25000000  0.50000000
   0.00000002  0.12500001  0.60413056
   0.75000003  0.25000002  0.61077767
   0.75000000  0.12500001  0.72048872
   0.99999998  0.24999999  0.70813736
   0.75000000  0.37500000  0.28718805
   0.00000000  0.50000000  0.28718805
   0.00000000  0.37500000  0.39359402
   0.75000000  0.50000000  0.39359402
   0.75000000  0.37500000  0.50000000
   0.00000000  0.50000000  0.50000000
   0.00000004  0.37499998  0.60413056
   0.74999999  0.49999998  0.61077770
   0.74999999  0.37499999  0.72048872
   0.00000000  0.49999999  0.70813737
   0.25000000  0.62500000  0.28718805
   0.50000000  0.75000000  0.28718805
   0.50000000  0.62500000  0.39359402
   0.25000000  0.75000000  0.39359402
   0.25000000  0.62500000  0.50000000
   0.50000000  0.75000000  0.50000000
   0.49999999  0.62500000  0.60413056
   0.24999996  0.75000000  0.61077769
   0.25000001  0.62500000  0.72048872
   0.50000000  0.75000001  0.70813736
   0.25000000  0.87500000  0.28718805
   0.50000000  0.00000000  0.28718805
   0.50000000  0.87500000  0.39359402
   0.25000000  0.00000000  0.39359402
   0.25000000  0.87500000  0.50000000
   0.50000000  0.00000000  0.50000000
   0.49999998  0.87500001  0.60413056
   0.25000002  0.00000001  0.61077770
   0.25000001  0.87499999  0.72048872
   0.50000002  0.00000001  0.70813736
   0.25000000  0.12500000  0.28718805
   0.50000000  0.25000000  0.28718805
   0.50000000  0.12500000  0.39359402
   0.25000000  0.25000000  0.39359402
   0.25000000  0.12500000  0.50000000
   0.50000000  0.25000000  0.50000000
   0.50000007  0.12500001  0.60413056
   0.25000006  0.24999998  0.61077768
   0.25000000  0.12500001  0.72048872
   0.50000000  0.25000000  0.70813736
   0.25000000  0.37500000  0.28718805
   0.50000000  0.50000000  0.28718805
   0.50000000  0.37500000  0.39359402
   0.25000000  0.50000000  0.39359402
   0.25000000  0.37500000  0.50000000
   0.50000000  0.50000000  0.50000000
   0.50000000  0.37499999  0.60413056
   0.24999999  0.50000001  0.61077769
   0.25000000  0.37499999  0.72048873
   0.50000001  0.50000000  0.70813736
   0.75000000  0.75000000  0.24547709
   0.75000000  0.75000000  0.32889900
   0.09799955  0.62500000  0.28718805
   0.90200045  0.62500000  0.28718805
   0.00000000  0.75000000  0.35188307
   0.00000000  0.75000000  0.43530497
   0.84799955  0.62500000  0.39359402
   0.15200045  0.62500000  0.39359402
   0.75000000  0.75000000  0.45828905
   0.75000000  0.75000000  0.54171095
   0.09799955  0.62500000  0.50000000
   0.90200045  0.62500000  0.50000000
   1.00000000  0.75000000  0.56534794
   0.00000001  0.75000001  0.64899455
   0.85019791  0.62500000  0.60713918
   0.14980209  0.62500000  0.60713917
   0.75000000  0.75000001  0.67165064
   0.75000000  0.75000000  0.75593278
   0.09407398  0.62500001  0.71872807
   0.90592603  0.62500001  0.71872807
   0.75000000  0.00000000  0.24547709
   0.75000000  0.00000000  0.32889900
   0.09799955  0.87500000  0.28718805
   0.90200045  0.87500000  0.28718805
   0.00000000  0.00000000  0.35188307
   0.00000000  0.00000000  0.43530497
   0.84799955  0.87500000  0.39359402
   0.15200045  0.87500000  0.39359402
   0.75000000  0.00000000  0.45828905
   0.75000000  0.00000000  0.54171095
   0.09799955  0.87500000  0.50000000
   0.90200045  0.87500000  0.50000000
   0.99999999  0.00000001  0.56534794
   0.00000001  1.00000000  0.64899455
   0.85019791  0.87500001  0.60713918
   0.14980209  0.87500001  0.60713917
   0.75000000  0.00000001  0.67165065
   0.75000000  0.99999999  0.75593277
   0.09407398  0.87500000  0.71872806
   0.90592602  0.87500001  0.71872807
   0.75000000  0.25000000  0.24547709
   0.75000000  0.25000000  0.32889900
   0.09799955  0.12500000  0.28718805
   0.90200045  0.12500000  0.28718805
   0.00000000  0.25000000  0.35188307
   0.00000000  0.25000000  0.43530497
   0.84799955  0.12500000  0.39359402
   0.15200045  0.12500000  0.39359402
   0.75000000  0.25000000  0.45828905
   0.75000000  0.25000000  0.54171095
   0.09799955  0.12500000  0.50000000
   0.90200045  0.12500000  0.50000000
   1.00000000  0.25000000  0.56534794
   0.99999999  0.25000000  0.64899456
   0.85019791  0.12500000  0.60713919
   0.14980209  0.12500000  0.60713917
   0.75000000  0.24999998  0.67165064
   0.74999999  0.25000001  0.75593277
   0.09407397  0.12500000  0.71872807
   0.90592602  0.12499999  0.71872807
   0.75000000  0.50000000  0.24547709
   0.75000000  0.50000000  0.32889900
   0.09799955  0.37500000  0.28718805
   0.90200045  0.37500000  0.28718805
   0.00000000  0.50000000  0.35188307
   0.00000000  0.50000000  0.43530497
   0.84799955  0.37500000  0.39359402
   0.15200045  0.37500000  0.39359402
   0.75000000  0.50000000  0.45828905
   0.75000000  0.50000000  0.54171095
   0.09799955  0.37500000  0.50000000
   0.90200045  0.37500000  0.50000000
   0.99999999  0.49999999  0.56534794
   0.00000000  0.50000000  0.64899456
   0.85019790  0.37500000  0.60713919
   0.14980208  0.37500000  0.60713917
   0.74999999  0.50000000  0.67165065
   0.74999999  0.50000001  0.75593277
   0.09407397  0.37499999  0.71872807
   0.90592602  0.37499999  0.71872808
   0.25000000  0.75000000  0.24547709
   0.25000000  0.75000000  0.32889900
   0.59799955  0.62500000  0.28718805
   0.40200045  0.62500000  0.28718805
   0.50000000  0.75000000  0.35188307
   0.50000000  0.75000000  0.43530497
   0.34799955  0.62500000  0.39359402
   0.65200045  0.62500000  0.39359402
   0.25000000  0.75000000  0.45828905
   0.25000000  0.75000000  0.54171095
   0.59799955  0.62500000  0.50000000
   0.40200045  0.62500000  0.50000000
   0.49999999  0.75000000  0.56534794
   0.49999999  0.75000001  0.64899456
   0.35019791  0.62500000  0.60713918
   0.64980208  0.62500000  0.60713917
   0.25000001  0.75000000  0.67165065
   0.25000000  0.75000000  0.75593278
   0.59407397  0.62500000  0.71872807
   0.40592602  0.62500000  0.71872806
   0.25000000  0.00000000  0.24547709
   0.25000000  0.00000000  0.32889900
   0.59799955  0.87500000  0.28718805
   0.40200045  0.87500000  0.28718805
   0.50000000  0.00000000  0.35188307
   0.50000000  0.00000000  0.43530497
   0.34799955  0.87500000  0.39359402
   0.65200045  0.87500000  0.39359402
   0.25000000  0.00000000  0.45828905
   0.25000000  0.00000000  0.54171095
   0.59799955  0.87500000  0.50000000
   0.40200045  0.87500000  0.50000000
   0.49999999  0.00000002  0.56534794
   0.50000000  0.00000000  0.64899455
   0.35019792  0.87500000  0.60713918
   0.64980208  0.87500001  0.60713918
   0.25000000  0.00000000  0.67165065
   0.25000000  0.99999999  0.75593277
   0.59407399  0.87500001  0.71872806
   0.40592603  0.87500001  0.71872807
   0.25000000  0.25000000  0.24547709
   0.25000000  0.25000000  0.32889900
   0.59799955  0.12500000  0.28718805
   0.40200045  0.12500000  0.28718805
   0.50000000  0.25000000  0.35188307
   0.50000000  0.25000000  0.43530497
   0.34799955  0.12500000  0.39359402
   0.65200045  0.12500000  0.39359402
   0.25000000  0.25000000  0.45828905
   0.25000000  0.25000000  0.54171095
   0.59799955  0.12500000  0.50000000
   0.40200045  0.12500000  0.50000000
   0.49999999  0.25000000  0.56534794
   0.50000000  0.25000000  0.64899456
   0.35019791  0.12500000  0.60713919
   0.64980207  0.12500000  0.60713917
   0.25000000  0.25000001  0.67165065
   0.25000000  0.25000000  0.75593278
   0.59407398  0.12500001  0.71872807
   0.40592602  0.12499999  0.71872806
   0.25000000  0.50000000  0.24547709
   0.25000000  0.50000000  0.32889900
   0.59799955  0.37500000  0.28718805
   0.40200045  0.37500000  0.28718805
   0.50000000  0.50000000  0.35188307
   0.50000000  0.50000000  0.43530497
   0.34799955  0.37500000  0.39359402
   0.65200045  0.37500000  0.39359402
   0.25000000  0.50000000  0.45828905
   0.25000000  0.50000000  0.54171095
   0.59799955  0.37500000  0.50000000
   0.40200045  0.37500000  0.50000000
   0.49999999  0.50000000  0.56534794
   0.50000000  0.50000000  0.64899456
   0.35019792  0.37499999  0.60713918
   0.64980207  0.37499999  0.60713917
   0.24999999  0.49999999  0.67165065
   0.25000000  0.50000001  0.75593277
   0.59407398  0.37499999  0.71872807
   0.40592602  0.37500000  0.71872807

 position of ions in cartesian coordinates  (Angst):
   6.50284702  5.91514036 24.82408758
   6.44945333  6.81091484 25.45445839
   6.55642981  5.01956176 25.45453727
   7.41942205  5.96753856 24.22160308
   5.58618942  5.86274388 24.22184183
   9.75298530  7.39398632  8.77438420
   0.00000000  8.87278359  8.77438420
   0.00000000  7.39398632 12.02537931
   9.75298530  8.87278359 12.02537931
   9.75298530  7.39398632 15.27637441
   0.00000000  8.87278359 15.27637441
  13.00397982  7.39398634 18.45784913
   9.75298483  8.87278362 18.66093692
   9.75298537  7.39398650 22.01291094
   0.00000009  8.87278357 21.63554277
   9.75298530 10.35158085  8.77438420
   0.00000000  0.00000000  8.77438420
   0.00000000 10.35158085 12.02537931
   9.75298530  0.00000000 12.02537931
   9.75298530 10.35158085 15.27637441
   0.00000000  0.00000000 15.27637441
  13.00398024 10.35158096 18.45784944
   9.75298540  0.00000005 18.66093758
   9.75298540 10.35158089 22.01291075
   0.00000017  0.00000002 21.63554316
   9.75298530  1.47879726  8.77438420
   0.00000000  2.95759453  8.77438420
   0.00000000  1.47879726 12.02537931
   9.75298530  2.95759453 12.02537931
   9.75298530  1.47879726 15.27637441
   0.00000000  2.95759453 15.27637441
   0.00000032  1.47879736 18.45784931
   9.75298575  2.95759474 18.66093687
   9.75298530  1.47879740 22.01291076
  13.00398008  2.95759444 21.63554289
   9.75298530  4.43639179  8.77438420
   0.00000000  5.91518906  8.77438420
   0.00000000  4.43639179 12.02537931
   9.75298530  5.91518906 12.02537931
   9.75298530  4.43639179 15.27637441
   0.00000000  5.91518906 15.27637441
   0.00000058  4.43639161 18.45784917
   9.75298523  5.91518884 18.66093753
   9.75298518  4.43639172 22.01291097
   0.00000004  5.91518897 21.63554327
   3.25099510  7.39398632  8.77438420
   6.50199020  8.87278359  8.77438420
   6.50199020  7.39398632 12.02537931
   3.25099510  8.87278359 12.02537931
   3.25099510  7.39398632 15.27637441
   6.50199020  8.87278359 15.27637441
   6.50199009  7.39398629 18.45784918
   3.25099463  8.87278356 18.66093732
   3.25099517  7.39398636 22.01291093
   6.50199022  8.87278368 21.63554286
   3.25099510 10.35158085  8.77438420
   6.50199020  0.00000000  8.77438420
   6.50199020 10.35158085 12.02537931
   3.25099510  0.00000000 12.02537931
   3.25099510 10.35158085 15.27637441
   6.50199020  0.00000000 15.27637441
   6.50198996 10.35158092 18.45784921
   3.25099541  0.00000008 18.66093771
   3.25099518 10.35158079 22.01291102
   6.50199041  0.00000007 21.63554293
   3.25099510  1.47879726  8.77438420
   6.50199020  2.95759453  8.77438420
   6.50199020  1.47879726 12.02537931
   3.25099510  2.95759453 12.02537931
   3.25099510  1.47879726 15.27637441
   6.50199020  2.95759453 15.27637441
   6.50199106  1.47879734 18.45784931
   3.25099583  2.95759426 18.66093700
   3.25099516  1.47879737 22.01291102
   6.50199016  2.95759458 21.63554289
   3.25099510  4.43639179  8.77438420
   6.50199020  5.91518906  8.77438420
   6.50199020  4.43639179 12.02537931
   3.25099510  5.91518906 12.02537931
   3.25099510  4.43639179 15.27637441
   6.50199020  5.91518906 15.27637441
   6.50199023  4.43639172 18.45784911
   3.25099502  5.91518913 18.66093745
   3.25099509  4.43639170 22.01291105
   6.50199029  5.91518909 21.63554300
   9.75298530  8.87278359  7.50000000
   9.75298530  8.87278359 10.04876841
   1.27438420  7.39398632  8.77438420
  11.72959620  7.39398632  8.77438420
   0.00000000  8.87278359 10.75099510
   0.00000000  8.87278359 13.29976351
  11.02736951  7.39398632 12.02537931
   1.97661090  7.39398632 12.02537931
   9.75298530  8.87278359 14.00199020
   9.75298530  8.87278359 16.55075861
   1.27438420  7.39398632 15.27637441
  11.72959620  7.39398632 15.27637441
  13.00398034  8.87278359 17.27293372
   0.00000014  8.87278371 19.82856759
  11.05595697  7.39398631 18.54977084
   1.94802341  7.39398628 18.54977063
   9.75298530  8.87278369 20.52077333
   9.75298524  8.87278358 23.09582422
   1.22333620  7.39398646 21.95911806
  11.78064429  7.39398642 21.95911831
   9.75298530  0.00000000  7.50000000
   9.75298530  0.00000000 10.04876841
   1.27438420 10.35158085  8.77438420
  11.72959620 10.35158085  8.77438420
   0.00000000  0.00000000 10.75099510
   0.00000000  0.00000000 13.29976351
  11.02736951 10.35158085 12.02537931
   1.97661090 10.35158085 12.02537931
   9.75298530  0.00000000 14.00199020
   9.75298530  0.00000000 16.55075861
   1.27438420 10.35158085 15.27637441
  11.72959620 10.35158085 15.27637441
  13.00398033  0.00000017 17.27293368
   0.00000015 11.83037810 19.82856756
  11.05595694 10.35158095 18.54977087
   1.94802345 10.35158092 18.54977064
   9.75298525  0.00000017 20.52077357
   9.75298526 11.83037805 23.09582391
   1.22333620 10.35158083 21.95911795
  11.78064423 10.35158098 21.95911804
   9.75298530  2.95759453  7.50000000
   9.75298530  2.95759453 10.04876841
   1.27438420  1.47879726  8.77438420
  11.72959620  1.47879726  8.77438420
   0.00000000  2.95759453 10.75099510
   0.00000000  2.95759453 13.29976351
  11.02736951  1.47879726 12.02537931
   1.97661090  1.47879726 12.02537931
   9.75298530  2.95759453 14.00199020
   9.75298530  2.95759453 16.55075861
   1.27438420  1.47879726 15.27637441
  11.72959620  1.47879726 15.27637441
  13.00398034  2.95759457 17.27293355
  13.00398031  2.95759447 19.82856762
  11.05595694  1.47879725 18.54977112
   1.94802343  1.47879729 18.54977064
   9.75298533  2.95759428 20.52077333
   9.75298521  2.95759459 23.09582417
   1.22333609  1.47879729 21.95911810
  11.78064418  1.47879715 21.95911818
   9.75298530  5.91518906  7.50000000
   9.75298530  5.91518906 10.04876841
   1.27438420  4.43639179  8.77438420
  11.72959620  4.43639179  8.77438420
   0.00000000  5.91518906 10.75099510
   0.00000000  5.91518906 13.29976351
  11.02736951  4.43639179 12.02537931
   1.97661090  4.43639179 12.02537931
   9.75298530  5.91518906 14.00199020
   9.75298530  5.91518906 16.55075861
   1.27438420  4.43639179 15.27637441
  11.72959620  4.43639179 15.27637441
  13.00398027  5.91518895 17.27293365
   0.00000000  5.91518902 19.82856779
  11.05595689  4.43639177 18.54977105
   1.94802337  4.43639174 18.54977049
   9.75298520  5.91518905 20.52077349
   9.75298523  5.91518913 23.09582408
   1.22333613  4.43639170 21.95911817
  11.78064420  4.43639170 21.95911844
   3.25099510  8.87278359  7.50000000
   3.25099510  8.87278359 10.04876841
   7.77637441  7.39398632  8.77438420
   5.22760600  7.39398632  8.77438420
   6.50199020  8.87278359 10.75099510
   6.50199020  8.87278359 13.29976351
   4.52537931  7.39398632 12.02537931
   8.47860110  7.39398632 12.02537931
   3.25099510  8.87278359 14.00199020
   3.25099510  8.87278359 16.55075861
   7.77637441  7.39398632 15.27637441
   5.22760600  7.39398632 15.27637441
   6.50199009  8.87278354 17.27293367
   6.50199005  8.87278370 19.82856767
   4.55396680  7.39398633 18.54977087
   8.45001349  7.39398634 18.54977050
   3.25099517  8.87278356 20.52077365
   3.25099511  8.87278364 23.09582434
   7.72532632  7.39398630 21.95911818
   5.27865401  7.39398635 21.95911800
   3.25099510  0.00000000  7.50000000
   3.25099510  0.00000000 10.04876841
   7.77637441 10.35158085  8.77438420
   5.22760600 10.35158085  8.77438420
[...]
      9.75358      5.91515     18.65932         0.000013      0.000020     -0.001869
      9.75379      4.43532     22.00786         0.000282     -0.001327     -0.002696
      0.00001      5.91519     21.63579         0.000006     -0.000017     -0.000263
      3.25100      7.39399      8.77438        -0.000006      0.000130     -3.375890
      6.50199      8.87278      8.77438        -0.000004      0.000191      2.810229
      6.50199      7.39399     12.02538        -0.000019      0.002938      0.542688
      3.25100      8.87278     12.02538         0.000229      0.000485     -0.704365
      3.25100      7.39399     15.27637         0.002521      0.002189      0.707928
      6.50199      8.87278     15.27637        -0.000194     -0.005263     -0.734257
      6.50198      7.39030     18.46721        -0.000023      0.001310     -0.000208
      3.25072      8.87320     18.65961        -0.001285     -0.002667     -0.001529
      3.25022      7.39505     22.00788        -0.000236      0.001309     -0.002708
      6.50208      8.87248     21.63237        -0.000019      0.001061      0.000235
      3.25100     10.35158      8.77438         0.000047      0.000115     -3.375822
      6.50199      0.00000      8.77438        -0.000001     -0.000000      2.810457
      6.50199     10.35158     12.02538        -0.000018      0.001400      0.544823
      3.25100      0.00000     12.02538         0.000460     -0.000029     -0.703969
      3.25100     10.35158     15.27637         0.001088      0.006061      0.713065
      6.50199      0.00000     15.27637        -0.000007     -0.000002     -0.767131
      6.50196     10.34976     18.45381         0.000069     -0.002032     -0.000479
      3.25151     -0.00004     18.66104        -0.003045     -0.000059     -0.001056
      3.25295     10.35176     22.01311         0.000555      0.000507     -0.002071
      6.50199     -0.00000     21.63190         0.000008      0.000023      0.002075
      3.25100      1.47880      8.77438         0.000047     -0.000142     -3.375837
      6.50199      2.95759      8.77438         0.000002     -0.000191      2.810229
      6.50199      1.47880     12.02538         0.000011     -0.001403      0.544822
      3.25100      2.95759     12.02538         0.000231     -0.000486     -0.704566
      3.25100      1.47880     15.27637         0.001087     -0.007545      0.712075
      6.50199      2.95759     15.27637         0.000174      0.005262     -0.734255
      6.50201      1.48062     18.45382        -0.000077      0.002015     -0.000471
      3.25072      2.95714     18.65925        -0.001250      0.002671     -0.001540
      3.25270      1.47841     22.01297         0.000281     -0.000685     -0.002091
      6.50190      2.95790     21.63237         0.000012     -0.001094      0.000227
      3.25100      4.43639      8.77438        -0.000006     -0.000105     -3.375905
      6.50199      5.91519      8.77438        -0.000001     -0.000000      2.810006
      6.50199      4.43639     12.02538         0.000010     -0.002937      0.542687
      3.25100      5.91519     12.02538         0.000030      0.000029     -0.704911
      3.25100      4.43639     15.27637         0.002516     -0.000706      0.706887
      6.50199      5.91519     15.27637        -0.000013      0.000001     -0.731037
      6.50200      4.44008     18.46721         0.000026     -0.001293     -0.000208
      3.25040      5.91523     18.65933        -0.000017     -0.000024     -0.001876
      3.24949      4.43482     22.00679        -0.000503     -0.001484     -0.002787
      6.50202      5.91519     21.65992        -0.000020      0.000013     -0.004954
      9.75299      8.87278      7.50000        -0.000025     -0.000082      1.822987
      9.75299      8.87278     10.04877         0.000034     -0.000098      1.737949
      1.27438      7.39399      8.77438        -1.833001     -0.000021     -0.762645
     11.72960      7.39399      8.77438         1.832997     -0.000020     -0.762644
      0.00000      8.87278     10.75100        -0.000001     -0.000066     -1.351078
      0.00000      8.87278     13.29976        -0.000012     -0.000105     -0.109930
     11.02737      7.39399     12.02538         0.439680     -0.000122      0.048805
      1.97661      7.39399     12.02538        -0.439698     -0.000154      0.048794
      9.75299      8.87278     14.00199         0.000228     -0.001721     -0.116808
      9.75299      8.87278     16.55076         0.000226     -0.002248      0.021535
      1.27438      7.39399     15.27637        -0.497657     -0.000171      0.098903
     11.72960      7.39399     15.27637         0.497362     -0.000086      0.098969
      0.00000      8.87321     17.27310         0.000037     -0.000545      0.000042
      0.00007      8.87275     19.82954        -0.000009     -0.001180      0.003068
     11.05635      7.39452     18.54813         0.000897      0.000340     -0.000965
      1.94765      7.39459     18.54816        -0.000868      0.000386     -0.000903
      9.75730      8.87471     20.52001         0.000089     -0.000336      0.001889
      9.75079      8.87091     23.09448        -0.001019      0.000636      0.000978
      1.22343      7.39339     21.96173        -0.000659      0.000571      0.001149
     11.78081      7.39355     21.96140         0.000683      0.000592      0.001004
      9.75299      0.00000      7.50000        -0.000021     -0.000006      1.822994
      9.75299      0.00000     10.04877         0.000060     -0.000008      1.737730
      1.27438     10.35158      8.77438        -1.833024     -0.000021     -0.762640
     11.72960     10.35158      8.77438         1.833021     -0.000022     -0.762639
      0.00000      0.00000     10.75100        -0.000001     -0.000000     -1.351100
      0.00000      0.00000     13.29976        -0.000001     -0.000000     -0.109994
     11.02737     10.35158     12.02538         0.439728     -0.000170      0.048771
      1.97661     10.35158     12.02538        -0.439748     -0.000137      0.048760
      9.75299      0.00000     14.00199         0.000121     -0.000286     -0.117872
      9.75299      0.00000     16.55076         0.000960     -0.000213      0.014774
      1.27438     10.35158     15.27637        -0.498487     -0.000424      0.098142
     11.72960     10.35158     15.27637         0.498199     -0.000511      0.098181
      0.00000      0.00000     17.27315         0.000004     -0.000006     -0.000705
     -0.00000      0.00000     19.82959        -0.000002     -0.000004      0.005006
     11.05626     10.35224     18.54911        -0.000799     -0.000123      0.000449
      1.94780     10.35213     18.54933         0.000848     -0.000134      0.000551
      9.75304      0.00000     20.52183        -0.000722     -0.000065      0.001247
      9.75448      0.00002     23.09686        -0.000608     -0.000028     -0.000534
      1.22345     10.35133     21.96049        -0.001156      0.000237      0.000391
     11.78075     10.35126     21.96067         0.001304      0.000223      0.000705
      9.75299      2.95759      7.50000        -0.000025      0.000082      1.822979
      9.75299      2.95759     10.04877         0.000034      0.000097      1.737897
      1.27438      1.47880      8.77438        -1.833022      0.000021     -0.762639
     11.72960      1.47880      8.77438         1.833023      0.000020     -0.762640
      0.00000      2.95759     10.75100        -0.000000      0.000065     -1.351078
      0.00000      2.95759     13.29976         0.000010      0.000105     -0.109932
     11.02737      1.47880     12.02538         0.439743      0.000137      0.048762
      1.97661      1.47880     12.02538        -0.439732      0.000169      0.048769
      9.75299      2.95759     14.00199         0.000230      0.001712     -0.117187
      9.75299      2.95759     16.55076         0.000088      0.002261      0.021078
      1.27438      1.47880     15.27637        -0.498211      0.000509      0.098177
     11.72960      1.47880     15.27637         0.498473      0.000423      0.098144
      0.00000      2.95717     17.27310        -0.000030      0.000545      0.000044
     -0.00007      2.95762     19.82954         0.000009      0.001180      0.003056
     11.05619      1.47824     18.54933        -0.000848      0.000134      0.000547
      1.94773      1.47814     18.54911         0.000801      0.000120      0.000454
      9.75656      2.95608     20.52039        -0.000224      0.000344      0.001989
      9.75102      2.95943     23.09488        -0.000878     -0.000488      0.001072
      1.22324      1.47912     21.96066        -0.001297     -0.000241      0.000697
     11.78054      1.47905     21.96050         0.001171     -0.000246      0.000392
      9.75299      5.91519      7.50000        -0.000031      0.000005      1.822966
      9.75299      5.91519     10.04877         0.000021      0.000008      1.738054
      1.27438      4.43639      8.77438        -1.832999      0.000019     -0.762644
     11.72960      4.43639      8.77438         1.833000      0.000020     -0.762645
      0.00000      5.91519     10.75100        -0.000001     -0.000000     -1.351059
      0.00000      5.91519     13.29976        -0.000001     -0.000000     -0.109846
     11.02737      4.43639     12.02538         0.439693      0.000154      0.048796
      1.97661      4.43639     12.02538        -0.439685      0.000121      0.048803
      9.75299      5.91519     14.00199         0.000593      0.000298     -0.116367
      9.75299      5.91519     16.55076        -0.001381      0.000274      0.021895
      1.27438      4.43639     15.27637        -0.497384      0.000085      0.098965
     11.72960      4.43639     15.27637         0.497634      0.000173      0.098906
      0.00000      5.91519     17.27299         0.000004      0.000006      0.000777
      0.00000      5.91519     19.82913         0.000003      0.000003      0.001520
     11.05633      4.43579     18.54816         0.000862     -0.000388     -0.000911
      1.94763      4.43586     18.54813        -0.000888     -0.000339     -0.000958
      9.75961      5.91492     20.51903         0.000736     -0.000086      0.003299
      9.74213      5.91574     23.09196         0.001225      0.000061      0.003160
      1.22318      4.43683     21.96141        -0.000674     -0.000586      0.000995
     11.78057      4.43699     21.96173         0.000676     -0.000553      0.001152
      3.25100      8.87278      7.50000         0.000025     -0.000082      1.822978
      3.25100      8.87278     10.04877        -0.000034     -0.000097      1.737893
      7.77637      7.39399      8.77438        -1.832972     -0.000101     -0.762755
      5.22761      7.39399      8.77438         1.832976     -0.000102     -0.762754
      6.50199      8.87278     10.75100         0.000000     -0.000652     -1.351577
      6.50199      8.87278     13.29976         0.000015     -0.001459     -0.112477
      4.52538      7.39399     12.02538         0.439591     -0.000294      0.048782
      8.47860      7.39399     12.02538        -0.439572     -0.000261      0.048792
      3.25100      8.87278     14.00199        -0.000231     -0.001704     -0.117205
      3.25100      8.87278     16.55076        -0.000087     -0.002258      0.021077
      7.77637      7.39399     15.27637        -0.496151     -0.007234      0.097258
      5.22761      7.39399     15.27637         0.496476     -0.007303      0.097196
      6.50201      8.86885     17.27384         0.000037      0.000786     -0.000588
      6.50159      8.87727     19.82632        -0.000079      0.000960     -0.003484
      4.55307      7.39392     18.55268        -0.000863     -0.000078     -0.002350
      8.45090      7.39401     18.55283         0.000874     -0.000085     -0.002195
      3.24744      8.87429     20.52039         0.000232     -0.000341      0.002007
      3.25297      8.87095     23.09489         0.000892      0.000490      0.001090
      7.72909      7.40124     21.94268         0.000636     -0.000314     -0.002057
      5.27590      7.40069     21.94588        -0.000565     -0.000202     -0.001818
      3.25100      0.00000      7.50000         0.000020      0.000005      1.822993
      3.25100      0.00000     10.04877        -0.000061      0.000007      1.737727
      7.77637     10.35158      8.77438        -1.832953     -0.000091     -0.762723
      5.22761     10.35158      8.77438         1.832956     -0.000090     -0.762724
      6.50199      0.00000     10.75100         0.000000     -0.000000     -1.352125
      6.50199      0.00000     13.29976         0.000001      0.000000     -0.116456
      4.52538     10.35158     12.02538         0.439036     -0.000188      0.048649
      8.47860     10.35158     12.02538        -0.439016     -0.000221      0.048658
      3.25100      0.00000     14.00199        -0.000121      0.000286     -0.117885
      3.25100      0.00000     16.55076        -0.000969      0.000214      0.014781
      7.77637     10.35158     15.27637        -0.496215     -0.003447      0.099261
      5.22761     10.35158     15.27637         0.496536     -0.003375      0.099222
      6.50199      0.00000     17.27090         0.000000      0.000004     -0.001415
      6.50199      0.00000     19.82570         0.000003     -0.000006      0.004935
      4.55296     10.35169     18.54830         0.002525      0.000109      0.000380
      8.45096     10.35164     18.54835        -0.002536      0.000070      0.000464
      3.25094      0.00000     20.52183         0.000729      0.000057      0.001255
      3.24950     -0.00002     23.09686         0.000620      0.000014     -0.000529
      7.72568     10.35291     21.95964        -0.000055      0.000169     -0.002503
      5.27828     10.35309     21.95971         0.000324      0.000162     -0.002204
      3.25100      2.95759      7.50000         0.000025      0.000081      1.822986
      3.25100      2.95759     10.04877        -0.000034      0.000097      1.737946
      7.77637      1.47880      8.77438        -1.832955      0.000090     -0.762724
      5.22761      1.47880      8.77438         1.832954      0.000091     -0.762723
      6.50199      2.95759     10.75100         0.000000      0.000651     -1.351576
      6.50199      2.95759     13.29976        -0.000013      0.001458     -0.112470
      4.52538      1.47880     12.02538         0.439020      0.000220      0.048657
      8.47860      1.47880     12.02538        -0.439032      0.000188      0.048650
      3.25100      2.95759     14.00199        -0.000229      0.001711     -0.116827
      3.25100      2.95759     16.55076        -0.000224      0.002246      0.021537
      7.77637      1.47880     15.27637        -0.496523      0.003381      0.099225
      5.22761      1.47880     15.27637         0.496230      0.003449      0.099259
      6.50197      2.96153     17.27385        -0.000036     -0.000780     -0.000607
      6.50237      2.95311     19.82632         0.000085     -0.000967     -0.003502
      4.55302      1.47874     18.54835         0.002552     -0.000075      0.000463
      8.45102      1.47869     18.54830        -0.002534     -0.000108      0.000380
      3.24670      2.95567     20.52002        -0.000084      0.000329      0.001875
      3.25320      2.95946     23.09449         0.001020     -0.000642      0.000966
      7.72570      1.47729     21.95971        -0.000337     -0.000167     -0.002215
      5.27830      1.47747     21.95964         0.000081     -0.000172     -0.002512
      3.25100      5.91519      7.50000         0.000031     -0.000006      1.822965
      3.25100      5.91519     10.04877        -0.000021     -0.000009      1.738050
      7.77637      4.43639      8.77438        -1.832975      0.000101     -0.762754
      5.22761      4.43639      8.77438         1.832973      0.000100     -0.762755
      6.50199      5.91519     10.75100         0.000000     -0.000001     -1.350835
      6.50199      5.91519     13.29976         0.000001     -0.000001     -0.101952
      4.52538      4.43639     12.02538         0.439577      0.000260      0.048791
      8.47860      4.43639     12.02538        -0.439587      0.000293      0.048784
      3.25100      5.91519     14.00199        -0.000593     -0.000299     -0.116391
      3.25100      5.91519     16.55076         0.001378     -0.000276      0.021906
      7.77637      4.43639     15.27637        -0.496455      0.007299      0.097200
      5.22761      4.43639     15.27637         0.496175      0.007229      0.097255
      6.50199      5.91519     17.27737         0.000001     -0.000008     -0.003249
      6.50199      5.91519     19.84135         0.000003      0.000007      0.001078
      4.55308      4.43637     18.55283        -0.000855      0.000081     -0.002206
      8.45091      4.43645     18.55268         0.000856      0.000081     -0.002349
      3.24438      5.91546     20.51904        -0.000721      0.000097      0.003307
      3.26188      5.91464     23.09198        -0.001235     -0.000050      0.003171
      7.72812      4.42967     21.94583         0.000552      0.000213     -0.001812
      5.27493      4.42915     21.94273        -0.000612      0.000321     -0.002068
 -----------------------------------------------------------------------------------
    total drift:                                0.000028      0.000074     -0.040723


--------------------------------------------------------------------------------------------------------



  FREE ENERGIE OF THE ION-ELECTRON SYSTEM (eV)
  ---------------------------------------------------
  free  energy   TOTEN  =     -2150.32046231 eV

  energy  without entropy=    -2150.32046231  energy(sigma->0) =    -2150.32046231

 d Force = 0.1644688E-04[ 0.261E-05, 0.303E-04]  d Energy = 0.1928950E-04-0.284E-05
 d Force =-0.7778049E+01[-0.778E+01,-0.778E+01]  d Ewald  =-0.7778048E+01-0.127E-05


--------------------------------------------------------------------------------------------------------


    POTLOK:  cpu time      0.9597: real time      0.9597


--------------------------------------------------------------------------------------------------------


 Conjugate gradient step on ions:
 trial-energy change:   -0.000019  1 .order   -0.000016   -0.000030   -0.000003
  (g-gl).g = 0.373E-04      g.g   = 0.357E-04  gl.gl    = 0.539E-04
 g(Force)  = 0.357E-04   g(Stress)= 0.000E+00 ortho     =-0.106E-05
 gamma     =   0.69311
 trial     =   0.86699
 opt step  =   0.91641  (harmonic =   0.94859) maximal distance =0.00053896
 next E    = -2150.320462   (d E  =  -0.00002)


--------------------------------------------------------------------------------------------------------


  
 reached required accuracy - stopping structural energy minimisation
     LOOP+:  cpu time    262.0475: real time    262.1584
    4ORBIT:  cpu time      0.0000: real time      0.0000

 total amount of memory used by VASP MPI-rank0   221176. kBytes
=======================================================================

   base      :      30000. kBytes
   nonl-proj :     122687. kBytes
   fftplans  :      12887. kBytes
   grid      :      20395. kBytes
   one-center:        482. kBytes
   wavefun   :      34725. kBytes

  
  
 General timing and accounting informations for this job:
 ========================================================
  
                  Total CPU time used (sec):     6716.990
                            User time (sec):     6633.468
                          System time (sec):       83.522
                         Elapsed time (sec):     6750.557
  
                   Maximum memory used (kb):      570068.
                   Average memory used (kb):          N/A
  
                          Minor page faults:     12113892
                          Major page faults:           52
                 Voluntary context switches:        34183
