 vasp.6.3.0 20Jan22 (build Apr  1 2022 16:44:48) complex                         
 executed on        HPECrayEX_GCC date 2022.11.13  09:53:53
 running 1024 mpi-ranks, with    1 threads/rank
 distrk:  each k-point on 1024 cores,    1 groups
 distr:  one band on NCORE=   8 cores,  128 groups


--------------------------------------------------------------------------------------------------------


 INCAR:
   SYSTEM = MgO-rocksalt
   ISMEAR = 0
   SIGMA = 0.05
   EDIFF = 1E-6
   ALGO = ALL
   ISTART = 0
   IBRION = -1
   NSW = 0
   ISYM = 0
   DIPOL = 0.5 0.5 0.5
   IDIPOL = 3
   LDIPOL = .TRUE.
   LHFCALC = .TRUE.
   GGA = PE
   IVDW = 13
   VDW_S8 = 1.2007
   VDW_A1 = 0.4009
   VDW_A2 = 5.0293
   ENCUT = 600
   PREC = Accurate
   LASPH = .TRUE.
   LREAL = .FALSE.
   ISPIN = 1
   NELM = 200
   NELMIN = 8
   NCORE = 8
   KPAR = 1
   LWAVE = .FALSE.
   LCHARG = .FALSE.

 POTCAR:    PAW_PBE Mg_pv 13Apr2007               
 POTCAR:    PAW_PBE O 08Apr2002                   
 POTCAR:    PAW_PBE Mg_pv 13Apr2007               
   SHA256 =  f474ac0dd33840b9ae76c01d57fea79fdf77cdfbb07d5ade72c65f83c709b62b Mg_pv/POTCAR          
   COPYR  = (c) Copyright 13Apr2007 Georg Kresse                                                    
   COPYR  = This file is part of the software VASP. Any use, copying, and all other rights are regul
   COPYR  = If you do not have a valid VASP license, you may not use, copy or distribute this file. 
   VRHFIN =Mg: p6s2                                                                                 
   LEXCH  = PE                                                                                      
   EATOM  =  1056.7344 eV,   77.6678 Ry                                                             
                                                                                                    
   TITEL  = PAW_PBE Mg_pv 13Apr2007                                                                 
   LULTRA =        F    use ultrasoft PP ?                                                          
   IUNSCR =        1    unscreen: 0-lin 1-nonlin 2-no                                               
   RPACOR =    1.500    partial core radius                                                         
   POMASS =   24.305; ZVAL   =    8.000    mass and valenz                                          
   RCORE  =    2.000    outmost cutoff radius                                                       
   RWIGS  =    2.000; RWIGS  =    1.058    wigner-seitz radius (au A)                               
   ENMAX  =  403.929; ENMIN  =  302.947 eV                                                          
   RCLOC  =    1.506    cutoff for local pot                                                        
   LCOR   =        T    correct aug charges                                                         
   LPAW   =        T    paw PP                                                                      
   EAUG   =  758.780                                                                                
   DEXC   =    0.000                                                                                
   RMAX   =    2.045    core radius for proj-oper                                                   
   RAUG   =    1.300    factor for augmentation sphere                                              
   RDEP   =    2.025    radius for radial grids                                                     
   RDEPT  =    1.557    core radius for aug-charge                                                  
                                                                                                    
   Atomic configuration                                                                             
    5 entries                                                                                       
     n  l   j            E        occ.                                                              
     1  0  0.50     -1259.6230   2.0000                                                             
     2  0  0.50       -79.8442   2.0000                                                             
     2  1  1.50       -46.6121   6.0000                                                             
     3  0  0.50        -4.7055   2.0000                                                             
     3  2  1.50        -1.3606   0.0000                                                             
   Description                                                                                      
     l       E           TYP  RCUT    TYP  RCUT                                                     
     1    -46.6121073     23  1.600                                                                 
     1      2.7211652     23  1.600                                                                 
     0     -4.7054661     23  2.000                                                                 
     0     61.2262170     23  2.000                                                                 
     2     -1.3605826     23  2.000                                                                 
  local pseudopotential read in
  partial core-charges read in
  partial kinetic energy density read in
  atomic valenz-charges read in
  non local Contribution for L=           1  read in
    real space projection operators read in
  non local Contribution for L=           1  read in
    real space projection operators read in
  non local Contribution for L=           0  read in
    real space projection operators read in
  non local Contribution for L=           0  read in
    real space projection operators read in
  non local Contribution for L=           2  read in
    real space projection operators read in
    PAW grid and wavefunctions read in

   number of l-projection  operators is LMAX  =           5
   number of lm-projection operators is LMMAX =          13

 POTCAR:    PAW_PBE O 08Apr2002                   
   SHA256 =  818f92134a0a090dccd8ba1447fa70422a3b330e708bb4f08108d8ae51209ddf O/POTCAR              
   COPYR  = (c) Copyright 08Apr2002 Georg Kresse                                                    
   COPYR  = This file is part of the software VASP. Any use, copying, and all other rights are regul
   COPYR  = If you do not have a valid VASP license, you may not use, copy or distribute this file. 
   VRHFIN =O: s2p4                                                                                  
   LEXCH  = PE                                                                                      
   EATOM  =   432.3788 eV,   31.7789 Ry                                                             
                                                                                                    
   TITEL  = PAW_PBE O 08Apr2002                                                                     
   LULTRA =        F    use ultrasoft PP ?                                                          
   IUNSCR =        1    unscreen: 0-lin 1-nonlin 2-no                                               
   RPACOR =    1.200    partial core radius                                                         
   POMASS =   16.000; ZVAL   =    6.000    mass and valenz                                          
   RCORE  =    1.520    outmost cutoff radius                                                       
   RWIGS  =    1.550; RWIGS  =    0.820    wigner-seitz radius (au A)                               
   ENMAX  =  400.000; ENMIN  =  300.000 eV                                                          
   ICORE  =        2    local potential                                                             
   LCOR   =        T    correct aug charges                                                         
   LPAW   =        T    paw PP                                                                      
   EAUG   =  605.392                                                                                
   DEXC   =    0.000                                                                                
   RMAX   =    1.553    core radius for proj-oper                                                   
   RAUG   =    1.300    factor for augmentation sphere                                              
   RDEP   =    1.550    radius for radial grids                                                     
   RDEPT  =    1.329    core radius for aug-charge                                                  
                                                                                                    
   Atomic configuration                                                                             
    4 entries                                                                                       
     n  l   j            E        occ.                                                              
     1  0  0.50      -514.6923   2.0000                                                             
     2  0  0.50       -23.9615   2.0000                                                             
     2  1  0.50        -9.0305   4.0000                                                             
     3  2  1.50        -9.5241   0.0000                                                             
   Description                                                                                      
     l       E           TYP  RCUT    TYP  RCUT                                                     
     0    -23.9615318     23  1.200                                                                 
     0     -9.5240782     23  1.200                                                                 
     1     -9.0304911     23  1.520                                                                 
     1      8.1634956     23  1.520                                                                 
     2     -9.5240782      7  1.500                                                                 
  local pseudopotential read in
  partial core-charges read in
  partial kinetic energy density read in
  kinetic energy density of atom read in
  atomic valenz-charges read in
  non local Contribution for L=           0  read in
    real space projection operators read in
  non local Contribution for L=           0  read in
    real space projection operators read in
  non local Contribution for L=           1  read in
    real space projection operators read in
  non local Contribution for L=           1  read in
    real space projection operators read in
    PAW grid and wavefunctions read in

   number of l-projection  operators is LMAX  =           4
   number of lm-projection operators is LMMAX =           8

 -----------------------------------------------------------------------------
|                                                                             |
|               ----> ADVICE to this user running VASP <----                  |
|                                                                             |
|     You have a (more or less) 'large supercell' and for larger cells it     |
|     might be more efficient to use real-space projection operators.         |
|     Therefore, try LREAL= Auto in the INCAR file.                           |
|     Mind: For very accurate calculation, you might also keep the            |
|     reciprocal projection scheme (i.e. LREAL=.FALSE.).                      |
|                                                                             |
 -----------------------------------------------------------------------------

  PAW_PBE Mg_pv 13Apr2007               :
 energy of atom  1       EATOM=-1056.7344
 kinetic energy error for atom=    0.0221 (will be added to EATOM!!)
  PAW_PBE O 08Apr2002                   :
 energy of atom  2       EATOM= -432.3788
 kinetic energy error for atom=    0.0168 (will be added to EATOM!!)


 POSCAR: Mg  O
  positions in direct lattice
  No initial velocities read in
 -----------------------------------------------------------------------------
|                                                                             |
|           W    W    AA    RRRRR   N    N  II  N    N   GGGG   !!!           |
|           W    W   A  A   R    R  NN   N  II  NN   N  G    G  !!!           |
|           W    W  A    A  R    R  N N  N  II  N N  N  G       !!!           |
|           W WW W  AAAAAA  RRRRR   N  N N  II  N  N N  G  GGG   !            |
|           WW  WW  A    A  R   R   N   NN  II  N   NN  G    G                |
|           W    W  A    A  R    R  N    N  II  N    N   GGGG   !!!           |
|                                                                             |
|     Specifying the vdW parameters                                           |
|     VDW_S8 = 1.201                                                          |
|     VDW_A1 = 0.401                                                          |
|     VDW_A2 = 5.029                                                          |
|     in the INCAR file will overwrite the defaults for pbe0. Please make     |
|     sure that is what you intended.                                         |
|                                                                             |
 -----------------------------------------------------------------------------

 exchange correlation table for  LEXCH =        8
   RHO(1)=    0.500       N(1)  =     2000
   RHO(2)=  100.500       N(2)  =     4000



--------------------------------------------------------------------------------------------------------


 ion  position               nearest neighbor table
   1  0.000  0.750  0.352-  33 2.11  35 2.11  36 2.11  43 2.11  52 2.11
   2  0.250  0.000  0.352-  34 2.11  35 2.11  36 2.11  44 2.11  51 2.11
   3  0.000  0.000  0.451-  35 2.11  34 2.11  33 2.11  41 2.11  50 2.11  39 2.12
   4  0.250  0.750  0.451-  36 2.11  34 2.11  33 2.11  42 2.11  49 2.11  40 2.12
   5  1.000  0.750  0.550-  56 2.10  47 2.11  40 2.11  39 2.11  33 2.12  37 2.15
   6  0.250  0.000  0.550-  55 2.11  39 2.11  48 2.11  40 2.12  34 2.12  38 2.15
   7  0.999  1.000  0.649-  54 2.10  45 2.10  37 2.11  39 2.11  38 2.11
   8  0.249  0.753  0.648-  40 2.09  38 2.09  37 2.11  53 2.11  46 2.14
   9  0.000  0.250  0.352-  41 2.11  35 2.11  43 2.11  44 2.11  60 2.11
  10  0.250  0.500  0.352-  42 2.11  36 2.11  43 2.11  44 2.11  59 2.11
  11  0.000  0.500  0.451-  43 2.11  41 2.11  42 2.11  33 2.11  58 2.11  47 2.12
  12  0.250  0.250  0.451-  44 2.11  41 2.11  42 2.11  34 2.11  57 2.11  48 2.12
  13  1.000  0.250  0.550-  64 2.10  48 2.11  47 2.11  39 2.11  41 2.12  45 2.15
  14  0.251  0.500  0.550-  63 2.10  48 2.10  40 2.11  47 2.12  42 2.13  46 2.19
  15  0.997  0.500  0.649-  62 2.07  46 2.09  47 2.10  45 2.12  37 2.12
  16  0.250  0.247  0.648-  38 2.09  48 2.10  61 2.11  45 2.11  46 2.14
  17  0.500  0.750  0.352-  49 2.11  36 2.11  51 2.11  52 2.11  59 2.11
  18  0.750  0.000  0.352-  50 2.11  35 2.11  51 2.11  52 2.11  60 2.11
  19  0.500  0.000  0.451-  51 2.11  49 2.11  50 2.11  34 2.11  57 2.11  55 2.11
  20  0.750  0.750  0.451-  52 2.11  49 2.11  50 2.11  33 2.11  58 2.11  56 2.12
  21  0.500  0.749  0.551-  63 2.10  56 2.11  40 2.12  55 2.12  53 2.13  49 2.13
  22  0.750  1.000  0.550-  55 2.11  64 2.11  56 2.11  39 2.11  50 2.12  54 2.15
  23  0.500  0.000  0.648-  61 2.09  53 2.10  55 2.11  54 2.11  38 2.12
  24  0.750  0.751  0.649-  54 2.10  56 2.11  37 2.11  53 2.11  62 2.12
  25  0.500  0.250  0.352-  57 2.11  51 2.11  44 2.11  59 2.11  60 2.11
  26  0.750  0.500  0.352-  58 2.11  52 2.11  43 2.11  59 2.11  60 2.11
  27  0.500  0.500  0.451-  59 2.11  49 2.11  57 2.11  58 2.11  42 2.11  63 2.14
  28  0.750  0.250  0.451-  60 2.11  50 2.11  57 2.11  58 2.11  41 2.11  64 2.12
  29  0.500  0.251  0.551-  63 2.10  64 2.11  48 2.12  61 2.12  55 2.12  57 2.13
  30  0.749  0.500  0.550-  63 2.11  64 2.11  56 2.11  47 2.12  58 2.13  62 2.15
  31  0.507  0.499  0.654-  62 2.07  61 2.12  53 2.13  63 2.20  46 2.21
  32  0.750  0.249  0.649-  54 2.10  61 2.11  64 2.11  45 2.11  62 2.12
  33  0.000  0.750  0.451-   1 2.11   3 2.11   4 2.11  11 2.11  20 2.11   5 2.12
  34  0.250  0.000  0.451-   2 2.11   3 2.11   4 2.11  12 2.11  19 2.11   6 2.12
  35  0.000  0.000  0.352-   3 2.11   2 2.11   1 2.11   9 2.11  18 2.11
  36  0.250  0.750  0.352-   4 2.11   2 2.11   1 2.11  10 2.11  17 2.11
  37  1.000  0.750  0.651-   7 2.11   8 2.11  24 2.11  15 2.12   5 2.15
  38  0.250  1.000  0.651-   8 2.09  16 2.09   7 2.11  23 2.12   6 2.15
  39  0.000  1.000  0.550-   7 2.11   6 2.11   5 2.11  13 2.11  22 2.11   3 2.12
  40  0.250  0.749  0.550-   8 2.09  14 2.11   5 2.11  21 2.12   6 2.12   4 2.12
  41  0.000  0.250  0.451-   9 2.11   3 2.11  11 2.11  12 2.11  28 2.11  13 2.12
  42  0.250  0.500  0.451-  10 2.11   4 2.11  11 2.11  12 2.11  27 2.11  14 2.13
  43  0.000  0.500  0.352-  11 2.11   9 2.11  10 2.11   1 2.11  26 2.11
  44  0.250  0.250  0.352-  12 2.11   9 2.11  10 2.11   2 2.11  25 2.11
  45  1.000  0.249  0.651-   7 2.10  16 2.11  32 2.11  15 2.12  13 2.15
  46  0.245  0.500  0.653-  15 2.09   8 2.14  16 2.14  14 2.19  31 2.21
  47  0.000  0.500  0.550-  15 2.10   5 2.11  13 2.11  14 2.12  11 2.12  30 2.12
  48  0.250  0.250  0.550-  16 2.10  14 2.10  13 2.11   6 2.11  29 2.12  12 2.12
  49  0.500  0.750  0.451-  17 2.11   4 2.11  19 2.11  20 2.11  27 2.11  21 2.13
  50  0.750  0.000  0.451-  18 2.11   3 2.11  19 2.11  20 2.11  28 2.11  22 2.12
  51  0.500  0.000  0.352-  19 2.11  17 2.11  18 2.11   2 2.11  25 2.11
  52  0.750  0.750  0.352-  20 2.11  17 2.11  18 2.11   1 2.11  26 2.11
  53  0.500  0.751  0.650-  23 2.10   8 2.11  24 2.11  31 2.13  21 2.13
  54  0.750  1.000  0.651-  24 2.10   7 2.10  32 2.10  23 2.11  22 2.15
  55  0.500  1.000  0.550-  23 2.11   6 2.11  22 2.11  19 2.11  21 2.12  29 2.12
  56  0.750  0.750  0.550-   5 2.10  24 2.11  21 2.11  30 2.11  22 2.11  20 2.12
  57  0.500  0.250  0.451-  25 2.11  19 2.11  12 2.11  27 2.11  28 2.11  29 2.13
  58  0.750  0.500  0.451-  26 2.11  20 2.11  11 2.11  27 2.11  28 2.11  30 2.13
  59  0.500  0.500  0.352-  27 2.11  17 2.11  25 2.11  26 2.11  10 2.11
  60  0.750  0.250  0.352-  28 2.11  18 2.11  25 2.11  26 2.11   9 2.11
  61  0.500  0.248  0.650-  23 2.09  16 2.11  32 2.11  29 2.12  31 2.12
  62  0.752  0.500  0.651-  31 2.07  15 2.07  24 2.12  32 2.12  30 2.15
  63  0.499  0.500  0.551-  14 2.10  21 2.10  29 2.10  30 2.11  27 2.14  31 2.20
  64  0.750  0.250  0.550-  13 2.10  30 2.11  22 2.11  32 2.11  29 2.11  28 2.12


IMPORTANT INFORMATION: All symmetrisations will be switched off!
NOSYMM: (Re-)initialisation of all symmetry stuff for point group C_1.


----------------------------------------------------------------------------------------

                                     Primitive cell                                     

  volume of cell :    1519.8199

  direct lattice vectors                    reciprocal lattice vectors
     8.440984654  0.000000000  0.000000000     0.118469591  0.000000000  0.000000000
     0.000000000  8.440984654  0.000000000     0.000000000  0.118469591  0.000000000
     0.000000000  0.000000000 21.330738491     0.000000000  0.000000000  0.046880702

  length of vectors
     8.440984654  8.440984654 21.330738491     0.118469591  0.118469591  0.046880702

  position of ions in fractional coordinates (direct lattice)
     0.000000000  0.750000000  0.351605267
     0.250000000  0.000000000  0.351605267
     0.000000000  0.000000000  0.450535089
     0.250000000  0.750000000  0.450535089
     0.999563908  0.749764684  0.549986305
     0.250127956  0.000116730  0.549798927
     0.999362416  0.999984282  0.648653567
     0.249374068  0.752659422  0.647733904
     0.000000000  0.250000000  0.351605267
     0.250000000  0.500000000  0.351605267
     0.000000000  0.500000000  0.450535089
     0.250000000  0.250000000  0.450535089
     0.999710421  0.250051069  0.550099330
     0.251023676  0.499723648  0.550406439
     0.997370222  0.499714498  0.648632417
     0.250017857  0.247088788  0.648499312
     0.500000000  0.750000000  0.351605267
     0.750000000  0.000000000  0.351605267
     0.500000000  0.000000000  0.450535089
     0.750000000  0.750000000  0.450535089
     0.500213365  0.748833867  0.550505281
     0.749707933  0.999999257  0.549909484
     0.500355013  0.000239253  0.648324023
     0.750054991  0.750771690  0.648584595
     0.500000000  0.250000000  0.351605267
     0.750000000  0.500000000  0.351605267
     0.500000000  0.500000000  0.450535089
     0.750000000  0.250000000  0.450535089
     0.500136856  0.250960236  0.550501652
     0.749039920  0.499813896  0.550375482
     0.506611541  0.499259346  0.654114457
     0.749717086  0.248977173  0.648821437
     0.000000000  0.750000000  0.450535089
     0.250000000  0.000000000  0.450535089
     0.000000000  0.000000000  0.351605267
     0.250000000  0.750000000  0.351605267
     0.999931378  0.750499252  0.650945361
     0.249589581  0.999642836  0.650687451
     0.000097463  0.999854923  0.549722538
     0.249615975  0.749330324  0.549963429
     0.000000000  0.250000000  0.450535089
     0.250000000  0.500000000  0.450535089
     0.000000000  0.500000000  0.351605267
     0.250000000  0.250000000  0.351605267
     0.999904773  0.249193479  0.650954252
     0.244735580  0.500114000  0.653183369
     0.000447101  0.499963904  0.549981854
     0.249531303  0.250491217  0.550060919
     0.500000000  0.750000000  0.450535089
     0.750000000  0.000000000  0.450535089
     0.500000000  0.000000000  0.351605267
     0.750000000  0.750000000  0.351605267
     0.499630408  0.751353426  0.650399591
     0.750176024  0.999735778  0.650791269
     0.499796986  0.999712707  0.549547722
     0.750205742  0.749878658  0.549833611
     0.500000000  0.250000000  0.450535089
     0.750000000  0.500000000  0.450535089
     0.500000000  0.500000000  0.351605267
     0.750000000  0.250000000  0.351605267
     0.499715350  0.248309506  0.649697871
     0.751933680  0.500038256  0.650935875
     0.499375294  0.500055573  0.550792249
     0.750335547  0.249943409  0.549821171

  ion indices of the primitive-cell ions
   primitive index   ion index
                 1           1
                 2           2
                 3           3
                 4           4
                 5           5
                 6           6
                 7           7
                 8           8
                 9           9
                10          10
                11          11
                12          12
                13          13
                14          14
                15          15
                16          16
                17          17
                18          18
                19          19
                20          20
                21          21
                22          22
                23          23
                24          24
                25          25
                26          26
                27          27
                28          28
                29          29
                30          30
                31          31
                32          32
                33          33
                34          34
                35          35
                36          36
                37          37
                38          38
                39          39
                40          40
                41          41
                42          42
                43          43
                44          44
                45          45
                46          46
                47          47
                48          48
                49          49
                50          50
                51          51
                52          52
                53          53
                54          54
                55          55
                56          56
                57          57
                58          58
                59          59
                60          60
                61          61
                62          62
                63          63
                64          64

----------------------------------------------------------------------------------------



 KPOINTS: pymatgen v2020.8.13 with grid density = 

Automatic generation of k-mesh.
 Grid dimensions read from file:
 generate k-points for:    2    2    1

 Generating k-lattice:

  Cartesian coordinates                     Fractional coordinates (reciprocal lattice)
     0.059234796  0.000000000  0.000000000     0.500000000  0.000000000  0.000000000
     0.000000000  0.059234796  0.000000000     0.000000000  0.500000000  0.000000000
     0.000000000  0.000000000  0.046880702     0.000000000  0.000000000  1.000000000

  Length of vectors
     0.059234796  0.059234796  0.046880702

  Shift w.r.t. Gamma in fractional coordinates (k-lattice)
     0.000000000  0.000000000  0.000000000

 
 Subroutine IBZKPT returns following result:
 ===========================================
 
 Found      4 irreducible k-points:
 
 Following reciprocal coordinates:
            Coordinates               Weight
  0.000000  0.000000  0.000000      1.000000
  0.500000  0.000000  0.000000      1.000000
  0.000000  0.500000  0.000000      1.000000
  0.500000  0.500000  0.000000      1.000000
 
 Following cartesian coordinates:
            Coordinates               Weight
  0.000000  0.000000  0.000000      1.000000
  0.059235  0.000000  0.000000      1.000000
  0.000000  0.059235  0.000000      1.000000
  0.059235  0.059235  0.000000      1.000000
 
 
 Subroutine IBZKPT_HF returns following result:
 ==============================================
 
 Found      4 k-points in 1st BZ
 the following      4 k-points will be used (e.g. in the exchange kernel)
 Following reciprocal coordinates:   # in IRBZ
  0.000000  0.000000  0.000000    0.25000000   1 t-inv F
  0.500000  0.000000  0.000000    0.25000000   2 t-inv F
  0.000000  0.500000  0.000000    0.25000000   3 t-inv F
  0.500000  0.500000  0.000000    0.25000000   4 t-inv F


--------------------------------------------------------------------------------------------------------




 Dimension of arrays:
   k-points           NKPTS =      4   k-points in BZ     NKDIM =      4   number of bands    NBANDS=    384
   number of dos      NEDOS =    301   number of ions     NIONS =     64
   non local maximal  LDIM  =      5   non local SUM 2l+1 LMDIM =     13
   total plane-waves  NPLWV = 882000
   max r-space proj   IRMAX =      1   max aug-charges    IRDMAX=  11635
   dimension x,y,z NGX =    70 NGY =   70 NGZ =  180
   dimension x,y,z NGXF=   140 NGYF=  140 NGZF=  360
   support grid    NGXF=   140 NGYF=  140 NGZF=  360
   ions per type =              32  32
   NGX,Y,Z   is equivalent  to a cutoff of  13.79, 13.79, 14.03 a.u.
   NGXF,Y,Z  is equivalent  to a cutoff of  27.57, 27.57, 28.06 a.u.

 SYSTEM =  MgO-rocksalt                            
 POSCAR =  Mg  O                                   

--------------------------------------------------------------------------------------------------------


  energy-cutoff  :      600.00
  volume of cell :     1519.82
      direct lattice vectors                 reciprocal lattice vectors
     8.440984654  0.000000000  0.000000000     0.118469591  0.000000000  0.000000000
     0.000000000  8.440984654  0.000000000     0.000000000  0.118469591  0.000000000
     0.000000000  0.000000000 21.330738491     0.000000000  0.000000000  0.046880702

  length of vectors
     8.440984654  8.440984654 21.330738491     0.118469591  0.118469591  0.046880702



 k-points in units of 2pi/SCALE and weight: pymatgen v2020.8.13 with grid density = 
   0.00000000  0.00000000  0.00000000       0.250
   0.05923480  0.00000000  0.00000000       0.250
   0.00000000  0.05923480  0.00000000       0.250
   0.05923480  0.05923480  0.00000000       0.250

 k-points in reciprocal lattice and weights: pymatgen v2020.8.13 with grid density = 
   0.00000000  0.00000000  0.00000000       0.250
   0.50000000  0.00000000  0.00000000       0.250
   0.00000000  0.50000000  0.00000000       0.250
   0.50000000  0.50000000  0.00000000       0.250

 position of ions in fractional coordinates (direct lattice) 
   0.00000000  0.75000000  0.35160527
   0.25000000  0.00000000  0.35160527
   0.00000000  0.00000000  0.45053509
   0.25000000  0.75000000  0.45053509
   0.99956391  0.74976468  0.54998631
   0.25012796  0.00011673  0.54979893
   0.99936242  0.99998428  0.64865357
   0.24937407  0.75265942  0.64773390
   0.00000000  0.25000000  0.35160527
   0.25000000  0.50000000  0.35160527
   0.00000000  0.50000000  0.45053509
   0.25000000  0.25000000  0.45053509
   0.99971042  0.25005107  0.55009933
   0.25102368  0.49972365  0.55040644
   0.99737022  0.49971450  0.64863242
   0.25001786  0.24708879  0.64849931
   0.50000000  0.75000000  0.35160527
   0.75000000  0.00000000  0.35160527
   0.50000000  0.00000000  0.45053509
   0.75000000  0.75000000  0.45053509
   0.50021336  0.74883387  0.55050528
   0.74970793  0.99999926  0.54990948
   0.50035501  0.00023925  0.64832402
   0.75005499  0.75077169  0.64858459
   0.50000000  0.25000000  0.35160527
   0.75000000  0.50000000  0.35160527
   0.50000000  0.50000000  0.45053509
   0.75000000  0.25000000  0.45053509
   0.50013686  0.25096024  0.55050165
   0.74903992  0.49981390  0.55037548
   0.50661154  0.49925935  0.65411446
   0.74971709  0.24897717  0.64882144
   0.00000000  0.75000000  0.45053509
   0.25000000  0.00000000  0.45053509
   0.00000000  0.00000000  0.35160527
   0.25000000  0.75000000  0.35160527
   0.99993138  0.75049925  0.65094536
   0.24958958  0.99964284  0.65068745
   0.00009746  0.99985492  0.54972254
   0.24961597  0.74933032  0.54996343
   0.00000000  0.25000000  0.45053509
   0.25000000  0.50000000  0.45053509
   0.00000000  0.50000000  0.35160527
   0.25000000  0.25000000  0.35160527
   0.99990477  0.24919348  0.65095425
   0.24473558  0.50011400  0.65318337
   0.00044710  0.49996390  0.54998185
   0.24953130  0.25049122  0.55006092
   0.50000000  0.75000000  0.45053509
   0.75000000  0.00000000  0.45053509
   0.50000000  0.00000000  0.35160527
   0.75000000  0.75000000  0.35160527
   0.49963041  0.75135343  0.65039959
   0.75017602  0.99973578  0.65079127
   0.49979699  0.99971271  0.54954772
   0.75020574  0.74987866  0.54983361
   0.50000000  0.25000000  0.45053509
   0.75000000  0.50000000  0.45053509
   0.50000000  0.50000000  0.35160527
   0.75000000  0.25000000  0.35160527
   0.49971535  0.24830951  0.64969787
   0.75193368  0.50003826  0.65093588
   0.49937529  0.50005557  0.55079225
   0.75033555  0.24994341  0.54982117

 position of ions in cartesian coordinates  (Angst):
   0.00000000  6.33073849  7.50000000
   2.11024616  0.00000000  7.50000000
   0.00000000  0.00000000  9.61024616
   2.11024616  6.33073849  9.61024616
   8.43730361  6.32875219 11.73161405
   2.11132624  0.00098531 11.72761714
   8.43560282  8.44085198 13.83625960
   2.10496268  6.35318663 13.81664252
   0.00000000  2.11024616  7.50000000
   2.11024616  4.22049233  7.50000000
   0.00000000  4.22049233  9.61024616
   2.11024616  2.11024616  9.61024616
   8.43854032  2.11067723 11.73402494
   2.11888700  4.21815964 11.74057582
   8.41878674  4.21808241 13.83580847
   2.11039690  2.08567266 13.83296923
   4.22049233  6.33073849  7.50000000
   6.33073849  0.00000000  7.50000000
   4.22049233  0.00000000  9.61024616
   6.33073849  6.33073849  9.61024616
   4.22229334  6.32089518 11.74268419
   6.32827316  8.44097838 11.72997539
   4.22348899  0.00201953 13.82923018
   6.33120267  6.33725231 13.83478837
   4.22049233  2.11024616  7.50000000
   6.33073849  4.22049233  7.50000000
   4.22049233  4.22049233  9.61024616
   6.33073849  2.11024616  9.61024616
   4.22164752  2.11835150 11.74260678
   6.32263447  4.21892142 11.73991548
   4.27630024  4.21424048 13.95274443
   6.32835042  2.10161250 13.83984039
   0.00000000  6.33073849  9.61024616
   2.11024616  0.00000000  9.61024616
   0.00000000  0.00000000  7.50000000
   2.11024616  6.33073849  7.50000000
   8.44040542  6.33495267 13.88514527
   2.10678182  8.43796984 13.87964385
   0.00082269  8.43976006 11.72598771
   2.10700461  6.32508577 11.73112607
   0.00000000  2.11024616  9.61024616
   2.11024616  4.22049233  9.61024616
   0.00000000  4.22049233  7.50000000
   2.11024616  2.11024616  7.50000000
   8.44018084  2.10343834 13.88533492
   2.06580928  4.22145460 13.93288363
   0.00377397  4.22018764 11.73151910
   2.10628990  2.11439252 11.73320563
   4.22049233  6.33073849  9.61024616
   6.33073849  0.00000000  9.61024616
   4.22049233  0.00000000  7.50000000
   6.33073849  6.33073849  7.50000000
   4.21737261  6.34216274 13.87350359
   6.33222431  8.43875436 13.88185837
   4.21877869  8.43855962 11.72225875
   6.33247516  6.32971424 11.72835697
   4.22049233  2.11024616  9.61024616
   6.33073849  4.22049233  9.61024616
   4.22049233  4.22049233  7.50000000
   6.33073849  2.11024616  7.50000000
   4.21808960  2.09597673 13.85853539
   6.34706066  4.22081524 13.88494293
   4.21521920  4.22096142 11.74880543
   6.33357083  2.10976848 11.72809162



--------------------------------------------------------------------------------------------------------

--------------------------------------- Iteration      FINAL  ---------------------------------------


--------------------OUTCAR has been truncated-------------------------


--------------------OUTCAR has been truncated-------------------------


--------------------OUTCAR has been truncated-------------------------


--------------------OUTCAR has been truncated-------------------------


--------------------OUTCAR has been truncated-------------------------


--------------------OUTCAR has been truncated-------------------------


--------------------OUTCAR has been truncated-------------------------


--------------------OUTCAR has been truncated-------------------------


--------------------OUTCAR has been truncated-------------------------


--------------------OUTCAR has been truncated-------------------------



 VOLUME and BASIS-vectors are now :
 -----------------------------------------------------------------------------
  energy-cutoff  :      600.00
  volume of cell :     1519.82
      direct lattice vectors                 reciprocal lattice vectors
     8.440984654  0.000000000  0.000000000     0.118469591  0.000000000  0.000000000
     0.000000000  8.440984654  0.000000000     0.000000000  0.118469591  0.000000000
     0.000000000  0.000000000 21.330738491     0.000000000  0.000000000  0.046880702

  length of vectors
     8.440984654  8.440984654 21.330738491     0.118469591  0.118469591  0.046880702


 FORCES acting on ions:
    Electron-Ion                     Ewald-Force                    Non-Local-Force
 -----------------------------------------------------------------------------------------------
   -.118E+00 0.324E+00 0.207E+04   0.119E+00 -.329E+00 -.206E+04   -.705E-03 0.337E-02 -.677E+01
   -.193E+00 -.152E-01 0.207E+04   0.194E+00 0.153E-01 -.206E+04   -.936E-03 -.821E-04 -.675E+01
   -.314E+00 -.145E+00 0.685E+03   0.305E+00 0.150E+00 -.685E+03   0.562E-02 -.342E-02 0.414E+00
   -.121E+01 0.159E+01 0.682E+03   0.123E+01 -.168E+01 -.682E+03   -.130E-01 0.568E-01 0.490E+00
   -.188E+01 0.207E+01 -.687E+03   0.192E+01 -.217E+01 0.687E+03   0.506E-02 0.714E-01 -.181E+00
   -.692E+00 0.351E-01 -.683E+03   0.659E+00 0.331E-02 0.683E+03   0.599E-02 -.401E-01 -.186E-01
   -.134E+01 0.109E+00 -.205E+04   0.122E+01 -.123E+00 0.204E+04   0.123E+00 -.284E-02 0.572E+01
   -.551E+01 0.131E+02 -.204E+04   0.507E+01 -.133E+02 0.203E+04   0.342E+00 -.132E+00 0.560E+01
   -.120E+00 -.324E+00 0.207E+04   0.122E+00 0.329E+00 -.206E+04   -.108E-02 -.310E-02 -.677E+01
   -.256E+00 0.149E-01 0.207E+04   0.261E+00 -.153E-01 -.206E+04   -.367E-02 0.321E-03 -.679E+01
   -.545E+00 0.131E+00 0.682E+03   0.590E+00 -.144E+00 -.682E+03   -.282E-01 0.791E-02 0.436E+00
   -.112E+01 -.161E+01 0.682E+03   0.112E+01 0.169E+01 -.682E+03   0.204E-02 -.529E-01 0.517E+00
   -.193E+01 -.206E+01 -.688E+03   0.201E+01 0.216E+01 0.688E+03   -.260E-01 -.724E-01 -.204E+00
   -.485E+01 -.488E-01 -.704E+03   0.504E+01 0.156E-01 0.704E+03   -.202E+00 0.363E-01 -.509E-01
   -.688E+01 -.554E-01 -.204E+04   0.804E+01 0.830E-01 0.204E+04   -.651E+00 -.660E-02 0.543E+01
   -.331E+01 -.130E+02 -.205E+04   0.278E+01 0.132E+02 0.204E+04   0.339E+00 0.132E+00 0.576E+01
   0.117E+00 0.387E+00 0.207E+04   -.119E+00 -.397E+00 -.206E+04   0.103E-02 0.614E-02 -.678E+01
   0.192E+00 -.126E-01 0.207E+04   -.193E+00 0.123E-01 -.206E+04   0.112E-02 0.248E-03 -.676E+01
   0.323E+00 -.679E-01 0.684E+03   -.319E+00 0.466E-01 -.684E+03   -.269E-02 0.134E-01 0.362E+00
   0.119E+01 0.143E+01 0.683E+03   -.123E+01 -.146E+01 -.684E+03   0.183E-01 0.187E-01 0.496E+00
   0.237E+01 0.485E+01 -.692E+03   -.242E+01 -.526E+01 0.693E+03   0.565E-02 0.335E+00 -.431E+00
   0.499E+00 0.693E-01 -.685E+03   -.477E+00 -.636E-01 0.685E+03   0.531E-02 -.105E-01 -.151E-01
   0.141E+01 0.155E+01 -.205E+04   -.131E+01 -.170E+01 0.204E+04   -.107E+00 0.553E-01 0.581E+01
   0.236E+01 0.151E+01 -.205E+04   -.189E+01 -.803E+00 0.204E+04   -.325E+00 -.533E+00 0.588E+01
   0.120E+00 -.388E+00 0.207E+04   -.122E+00 0.397E+00 -.206E+04   0.130E-02 -.579E-02 -.678E+01
   0.256E+00 0.119E-01 0.207E+04   -.262E+00 -.119E-01 -.206E+04   0.375E-02 0.108E-04 -.677E+01
   0.511E+00 0.359E-01 0.678E+03   -.558E+00 -.244E-01 -.679E+03   0.302E-01 -.771E-02 0.650E+00
   0.110E+01 -.144E+01 0.683E+03   -.111E+01 0.147E+01 -.684E+03   0.159E-02 -.145E-01 0.492E+00
   0.238E+01 -.478E+01 -.689E+03   -.246E+01 0.520E+01 0.690E+03   0.340E-01 -.341E+00 -.545E+00
   0.319E+01 -.105E+00 -.690E+03   -.338E+01 0.102E+00 0.690E+03   0.187E+00 0.973E-02 0.110E-01
   0.259E+02 -.181E+01 -.209E+04   -.256E+02 0.196E+01 0.208E+04   -.969E+00 -.483E-01 0.661E+01
   0.791E+00 -.148E+01 -.205E+04   -.201E+00 0.748E+00 0.204E+04   -.365E+00 0.546E+00 0.598E+01
   -.494E+00 0.943E+00 0.513E+03   0.518E+00 -.948E+00 -.512E+03   -.261E-01 0.591E-02 -.984E-01
   -.464E+00 -.266E-01 0.513E+03   0.473E+00 0.201E-01 -.513E+03   -.110E-01 0.695E-02 -.215E-01
   -.738E-01 -.159E-01 0.155E+04   0.734E-01 0.170E-01 -.156E+04   0.469E-03 -.141E-02 0.303E+01
   -.178E+00 0.275E+00 0.155E+04   0.182E+00 -.286E+00 -.156E+04   -.518E-02 0.129E-01 0.303E+01
   -.184E+01 0.213E+01 -.156E+04   0.224E+01 -.254E+01 0.156E+04   -.460E+00 0.425E+00 -.465E+01
   -.106E+01 -.211E-01 -.156E+04   0.972E+00 -.612E-01 0.156E+04   0.132E+00 0.110E+00 -.450E+01
   -.326E+00 -.162E+00 -.510E+03   0.351E+00 0.152E+00 0.509E+03   -.376E-01 0.141E-01 0.194E+00
   -.216E+01 0.387E+01 -.510E+03   0.214E+01 -.398E+01 0.510E+03   0.406E-01 0.164E+00 0.461E+00
   -.497E+00 -.960E+00 0.512E+03   0.512E+00 0.975E+00 -.512E+03   -.151E-01 -.168E-01 -.123E+00
   -.823E+00 0.179E-01 0.510E+03   0.767E+00 -.343E-02 -.509E+03   0.616E-01 -.161E-01 -.194E+00
   -.931E-01 0.163E-01 0.155E+04   0.989E-01 -.172E-01 -.156E+04   -.701E-02 0.108E-02 0.302E+01
   -.169E+00 -.275E+00 0.155E+04   0.171E+00 0.286E+00 -.156E+04   -.190E-02 -.132E-01 0.303E+01
   -.215E+01 -.213E+01 -.156E+04   0.256E+01 0.253E+01 0.156E+04   -.464E+00 -.408E+00 -.453E+01
   -.161E+02 -.410E-01 -.157E+04   0.164E+02 0.141E+00 0.157E+04   0.127E+00 -.125E+00 -.454E+01
   -.250E+01 0.174E+00 -.511E+03   0.276E+01 -.167E+00 0.511E+03   -.312E+00 -.105E-01 0.253E+00
   -.169E+01 -.386E+01 -.513E+03   0.166E+01 0.397E+01 0.512E+03   0.646E-01 -.161E+00 0.297E+00
   0.475E+00 0.130E+01 0.510E+03   -.487E+00 -.124E+01 -.510E+03   0.127E-01 -.676E-01 -.181E+00
   0.436E+00 -.209E-01 0.513E+03   -.438E+00 0.225E-01 -.513E+03   0.340E-02 -.208E-02 -.486E-01
   0.744E-01 -.714E-02 0.155E+04   -.738E-01 0.567E-02 -.156E+04   -.658E-03 0.176E-02 0.303E+01
   0.179E+00 0.257E+00 0.155E+04   -.183E+00 -.261E+00 -.156E+04   0.476E-02 0.522E-02 0.303E+01
   0.448E+01 0.682E+01 -.155E+04   -.498E+01 -.690E+01 0.156E+04   0.557E+00 -.602E-01 -.383E+01
   0.100E+01 0.610E-01 -.156E+04   -.897E+00 -.128E+00 0.156E+04   -.148E+00 0.864E-01 -.438E+01
   0.464E+00 0.210E+00 -.506E+03   -.493E+00 -.233E+00 0.506E+03   0.392E-01 0.351E-01 0.436E+00
   0.183E+01 0.165E+01 -.510E+03   -.182E+01 -.161E+01 0.509E+03   -.300E-01 -.423E-01 0.397E+00
   0.489E+00 -.131E+01 0.510E+03   -.496E+00 0.126E+01 -.510E+03   0.620E-02 0.539E-01 -.158E+00
   0.840E+00 0.215E-02 0.511E+03   -.784E+00 0.526E-02 -.510E+03   -.636E-01 -.811E-02 -.113E+00
   0.925E-01 0.739E-02 0.155E+04   -.983E-01 -.557E-02 -.156E+04   0.693E-02 -.219E-02 0.302E+01
   0.170E+00 -.256E+00 0.155E+04   -.171E+00 0.261E+00 -.156E+04   0.163E-02 -.550E-02 0.303E+01
   0.424E+01 -.660E+01 -.155E+04   -.470E+01 0.663E+01 0.155E+04   0.505E+00 0.986E-01 -.346E+01
   0.672E+00 -.114E+00 -.155E+04   0.737E-01 0.197E+00 0.156E+04   -.841E+00 -.104E+00 -.364E+01
   0.375E+01 -.245E+00 -.533E+03   -.397E+01 0.262E+00 0.534E+03   0.286E+00 -.280E-01 -.768E+00
   0.139E+01 -.161E+01 -.510E+03   -.136E+01 0.157E+01 0.509E+03   -.571E-01 0.490E-01 0.373E+00
 -----------------------------------------------------------------------------------------------
   0.248E+01 -.187E-01 0.160E+02   0.924E-13 0.412E-12 -.273E-11   -.222E+01 0.157E-01 -.136E+02


 POSITION                                       TOTAL-FORCE (eV/Angst)
 -----------------------------------------------------------------------------------
      0.00000      6.33074      7.50000         0.000455     -0.001437      0.586696
      2.11025      0.00000      7.50000         0.000471      0.000013      0.582425
      0.00000      0.00000      9.61025        -0.002543      0.001404      0.050323
      2.11025      6.33074      9.61025         0.006742     -0.024630      0.071109
      8.43730      6.32875     11.73161         0.043264     -0.018172      0.041085
      2.11133      0.00099     11.72762        -0.023447     -0.006018     -0.005698
      8.43560      8.44085     13.83626         0.017518     -0.015753     -0.208066
      2.10496      6.35319     13.81664        -0.056694     -0.347917     -0.001980
      0.00000      2.11025      7.50000         0.000567      0.001396      0.588151
      2.11025      4.22049      7.50000         0.001266     -0.000037      0.592567
      0.00000      4.22049      9.61025         0.012556     -0.003948      0.090498
      2.11025      2.11025      9.61025         0.000566      0.022645      0.068844
      8.43854      2.11068     11.73402         0.042594      0.018691      0.029370
      2.11889      4.21816     11.74058        -0.028960      0.006931      0.214768
      8.41879      4.21808     13.83581         0.392840      0.018600     -0.096899
      2.11040      2.08567     13.83297        -0.139032      0.342436     -0.154451
      4.22049      6.33074      7.50000        -0.000477     -0.002241      0.589971
      6.33074      0.00000      7.50000        -0.000435     -0.000079      0.584456
      4.22049      0.00000      9.61025         0.000895     -0.005701      0.059707
      6.33074      6.33074      9.61025        -0.010232     -0.009361      0.045830
      4.22229      6.32090     11.74268        -0.042850     -0.029055     -0.032067
      6.32827      8.44098     11.72998         0.025578     -0.005529     -0.008165
      4.22349      0.00202     13.82923        -0.018981     -0.078060     -0.210868
      6.33120      6.33725     13.83479         0.102014      0.102909     -0.246815
      4.22049      2.11025      7.50000        -0.000550      0.002177      0.587628
      6.33074      4.22049      7.50000        -0.001207      0.000051      0.585494
      4.22049      4.22049      9.61025        -0.012378      0.002607      0.084811
      6.33074      2.11025      9.61025        -0.002838      0.007068      0.045477
      4.22165      2.11835     11.74261        -0.043099      0.030971     -0.077925
      6.32263      4.21892     11.73992         0.016049      0.007429     -0.090416
      4.27630      4.21424     13.95274        -0.671189      0.090684     -0.946975
      6.32835      2.10161     13.83984         0.166071     -0.108716     -0.312396
      0.00000      6.33074      9.61025        -0.006594      0.001834      0.052327
      2.11025      0.00000      9.61025        -0.004301      0.001818      0.060685
      0.00000      0.00000      7.50000         0.000199     -0.000478     -0.411577
      2.11025      6.33074      7.50000        -0.001747      0.004489     -0.413761
      8.44041      6.33495     13.88515        -0.152682      0.080101     -0.185329
      2.10678      8.43797     13.87964         0.065028      0.048252     -0.133423
      0.00082      8.43976     11.72599        -0.020311      0.006659      0.013762
      2.10700      6.32509     11.73113         0.029504      0.080212     -0.042704
      0.00000      2.11025      9.61025        -0.003352     -0.005016      0.055267
      2.11025      4.22049      9.61025         0.017679     -0.004578      0.062293
      0.00000      4.22049      7.50000        -0.002387      0.000390     -0.414379
      2.11025      2.11025      7.50000        -0.000609     -0.004546     -0.413736
      8.44018      2.10344     13.88533        -0.142714     -0.074007     -0.150069
      2.06581      4.22145     13.93288         0.502471     -0.048492     -0.272431
      0.00377      4.22019     11.73152        -0.116622     -0.005878     -0.021834
      2.10629      2.11439     11.73321         0.041644     -0.079603     -0.031721
      4.22049      6.33074      9.61025         0.002872     -0.020453      0.076947
      6.33074      0.00000      9.61025         0.002327     -0.000840      0.061226
      4.22049      0.00000      7.50000        -0.000202      0.000621     -0.412619
      6.33074      6.33074      7.50000         0.001682      0.001803     -0.412720
      4.21737      6.34216     13.87350         0.148666     -0.154594      0.090008
      6.33222      8.43875     13.88186        -0.073952      0.035638     -0.108798
      4.21878      8.43856     11.72226         0.017198      0.019519      0.078293
      6.33248      6.32971     11.72836        -0.029638     -0.013565      0.046095
      4.22049      2.11025      9.61025         0.000910      0.016311      0.085493
      6.33074      4.22049      9.61025        -0.018938     -0.002105      0.088654
      4.22049      4.22049      7.50000         0.002417     -0.000742     -0.416623
      6.33074      2.11025      7.50000         0.000600     -0.001869     -0.412585
      4.21809      2.09598     13.85854         0.140715      0.162595      0.233000
      6.34706      4.22082     13.88494        -0.247394     -0.040558      0.088375
      4.21522      4.22096     11.74881         0.115024     -0.017107     -0.007174
      6.33357      2.10977     11.72809        -0.042032      0.014833      0.062569
 -----------------------------------------------------------------------------------
    total drift:                               -0.002660     -0.001401      0.001670


--------------------------------------------------------------------------------------------------------



  FREE ENERGIE OF THE ION-ELECTRON SYSTEM (eV)
  ---------------------------------------------------
  free  energy   TOTEN  =      -471.34627430 eV

  energy  without entropy=     -471.34627430  energy(sigma->0) =     -471.34627430



--------------------------------------------------------------------------------------------------------


    POTLOK:  cpu time      0.5305: real time      0.5308


--------------------------------------------------------------------------------------------------------


     LOOP+:  cpu time   2594.4563: real time   2595.3142
    4ORBIT:  cpu time      0.0000: real time      0.0000

 total amount of memory used by VASP MPI-rank0   180082. kBytes
=======================================================================

   base      :      30000. kBytes
   nonl-proj :      11878. kBytes
   fftplans  :       7827. kBytes
   grid      :       7379. kBytes
   one-center:         64. kBytes
   HF        :         67. kBytes
   nonlr-proj:       6648. kBytes
   wavefun   :       3759. kBytes
   fock_wrk  :     112460. kBytes

  
  
 General timing and accounting informations for this job:
 ========================================================
  
                  Total CPU time used (sec):     2659.011
                            User time (sec):     2652.976
                          System time (sec):        6.035
                         Elapsed time (sec):     2684.422
  
                   Maximum memory used (kb):      430692.
                   Average memory used (kb):          N/A
  
                          Minor page faults:       250206
                          Major page faults:            0
                 Voluntary context switches:        25991
