 **********************************************************************
                          MRCC program system
 **********************************************************************
 
                              Written by
     Mihaly Kallay, Peter R. Nagy, David Mester, Laszlo Gyevi-Nagy,
        Jozsef Csoka, P. Bernat Szabo, Zoltan Rolik, Gyula Samu,
     Jozsef Csontos, Bence Hegely, Adam Ganyecz, Istvan Ladjanszki,
       Lorant Szegedy, Bence Ladoczki, Klara Petrov, Mate Farkas,
                    Pal D. Mezei, and Reka A. Horvath
 
        Department of Physical Chemistry and Materials Science
            Budapest University of Technology and Economics
                  Budapest P.O.Box 91, H-1521 Hungary
 
                              www.mrcc.hu
 
                      Release date: March 18, 2022

 ************************ 2023-02-05 13:16:44 *************************
 Executing minp...

 Reading input from MINP...
 
 Input file:
 
calc=FNO-CCSD(T)
verbosity=3
mem=220GB
unit=angs
scfiguess=small
scfalg=locfit1
ccmaxit=400
ccsdalg=dfdirect
ccsdthreads=4
ccsdmkl=thr
ptthreads=4
lnoepsv=1e-5
naf_cor=1e-2
basis=aug-cc-pVTZ
basis_sm=def2-SVP
dfbasis_scf=def2-QZVPP-RI-JK
dfbasis_cor=aug-cc-pVTZ-RI
unit=angs
geom=xyz
16

C    34.41670262    34.07107264    10.41543014
C    33.11117461    33.45680459    10.91530835
H    34.24160149    35.00442132     9.86225048
H    34.94674030    33.36940783     9.75379242
H    35.10002891    34.30603621    11.24227357
H    32.42643037    33.26105434    10.07939442
H    32.59136835    34.12756100    11.61262818
H    33.28915165    32.50678735    11.43686767
C    45.74245317    31.96102723    10.40841099
C    47.04217115    31.34719311    10.92356869
H    45.21721276    31.25682155     9.74571409
H    45.92448905    32.89196657     9.85291346
H    45.05142584    32.20166151    11.22702485
H    47.73601157    31.15055188    10.09551480
H    46.85793094    30.39767355    11.44396498
H    47.55429059    32.01873499    11.62587494

--------------------Output has been truncated-------------------------


--------------------Output has been truncated-------------------------


--------------------Output has been truncated-------------------------


--------------------Output has been truncated-------------------------


--------------------Output has been truncated-------------------------


--------------------Output has been truncated-------------------------


--------------------Output has been truncated-------------------------


--------------------Output has been truncated-------------------------


--------------------Output has been truncated-------------------------


--------------------Output has been truncated-------------------------


 
 Reference energy [au]:                      -158.519089127491
 DF-MP2 singlet pair energy [au]:              -0.600511124144
 DF-MP2 triplet pair energy [au]:              -0.150064527920
 DF-SCS-MP2 correlation energy [au]:           -0.770634858280
 DF-SCS-MP2 energy [au]:                     -159.289723985771
 DF-SOS-MP2 correlation energy [au]:           -0.780664461388
 DF-SOS-MP2 energy [au]:                     -159.299753588879
 DF-MP2 correlation energy [au]:               -0.750575652064
 DF-MP2 energy [au]:                         -159.269664779555

 Results in FNO basis:
 
 
 Reference energy [au]:                      -158.519089127491
 DF-MP2 singlet pair energy [au]:              -0.598170426203
 DF-MP2 triplet pair energy [au]:              -0.149851911474
 DF-SCS-MP2 correlation energy [au]:           -0.767755148601
 DF-SCS-MP2 energy [au]:                     -159.286844276093
 DF-SOS-MP2 correlation energy [au]:           -0.777621554064
 DF-SOS-MP2 energy [au]:                     -159.296710681555
 DF-MP2 correlation energy [au]:               -0.748022337677
 DF-MP2 energy [au]:                         -159.267111465168

 Results in NAF basis:
 
 
 Reference energy [au]:                      -158.519089127491
 DF-MP2 singlet pair energy [au]:              -0.598049385468
 DF-MP2 triplet pair energy [au]:              -0.149930262099
 DF-SCS-MP2 correlation energy [au]:           -0.767636016594
 DF-SCS-MP2 energy [au]:                     -159.286725144085
 DF-SOS-MP2 correlation energy [au]:           -0.777464201108
 DF-SOS-MP2 energy [au]:                     -159.296553328599
 DF-MP2 correlation energy [au]:               -0.747979647567
 DF-MP2 energy [au]:                         -159.267068775058

 ************************ 2023-02-05 13:17:29 *************************
 Executing ccsd...

 Allocation of 220.0 Gbytes of memory...

 Direct DF-CCSD(T) calculation
 
 Convergence criterion:  1.0E-06
 
 Number of occupied/virtual/auxiliary orbitals:    14   278   756
   3422.71 MB is the minimal memory requirement for (T)
    780.99 MB is the minimal memory requirement for CCSD
 
 Reference energy [au]:            -158.519089127491
 T1 contribution [au]:                0.000000000000
 Same spin MP2 energy [au]:          -0.149890968686
 Opposite spin MP2 energy [au]:      -0.598109564622
 MP2 correlation energy [au]:        -0.748000533309
 Total MP2 energy [au]:            -159.267089660800
 MP2 correction [au]:                -0.002575118755
 
 
 CPU time [min]:     0.910                   Wall time [min]:     0.132
 
 Starting CCSD iterations...
 
                     Residual norm          Energy
 Iteration  1        0.241423450927     -159.308946403602
 Iteration  2        0.060038513408     -159.328076375513
 Iteration  3        0.015976044689     -159.329988561938
 Iteration  4        0.003604233275     -159.330005196636
 Iteration  5        0.000758974405     -159.330015611631
 Iteration  6        0.000215378317     -159.330021766188
 Iteration  7        0.000051277738     -159.330021335470
 Iteration  8        0.000013081140     -159.330021918721
 Iteration  9        0.000002622810     -159.330021866674
 
 CCSD iteration has converged in  9 steps.
    23656.02 MB memory was utilized by CCSD
 
 T1 diagnostic:      7.817E-03            D1 diagnostic:      1.354E-02
 
 T1 contribution [au]:                                  0.000000000000
 PPL energy contribution [au]:                          0.205823837150
 Scaled PPL energy contribution [au]:                   0.206541187066

 OS-PPL energy contribution [au]:                       0.179923349884
 Scaled OS-PPL energy contribution [au]:                0.180665492147
 SS-PPL energy contribution [au]:                       0.025900487266
 Scaled SS-PPL energy contribution [au]:                0.025924111185

 Opposite spin CCSD energy [au]:                       -0.668570253286
 Same spin CCSD energy [au]:                           -0.142399517519
 CCSD correlation energy [au]:                         -0.810969770805
 CCSD correlation energy + MP2 correction [au]:        -0.813544889560
 CCSD correlation energy + MP2 + PPL corr. [au]:       -0.812827539644
 Total CCSD energy [au]:                             -159.330058898296
 Total CCSD energy + MP2 correction [au]:            -159.332634017051
 Total CCSD energy + MP2 + PPL corr. [au]:           -159.331916667135
 
 CPU time [min]:    52.724                   Wall time [min]:     1.764
 
 Calculation of (T) correction...
 
 
     4429.83 MB memory is utilized for (T)

 0%       25%       50%       75%       100%
 |---------|---------|---------|---------| 
 
 (T) correction [au]:                                    -0.027918234980
 (T*) correction [au]:                                   -0.028014348241
 (T+) correction [au]:                                   -0.028013172400
 CCSD(T) correlation energy [au]:                        -0.838888005785
 CCSD(T) correlation energy + MP2 correction [au]:       -0.841463124540
 CCSD(T+) correlation en. + MP2 + PPL corr. [au]:        -0.840840712044
 Total CCSD(T) energy [au]:                            -159.357977133276
 Total CCSD(T) energy + MP2 correction [au]:           -159.360552252031
 Total CCSD(T+) energy + MP2 + PPL corr. [au]:         -159.359929839536
 
 CPU time [min]:   110.335                   Wall time [min]:     3.454
 
 ************************ 2023-02-05 13:20:56 *************************
                      Normal termination of mrcc.
 **********************************************************************
