 vasp.6.3.0 20Jan22 (build Mar 11 2022 13:48:16) complex                        
  
 executed on             LinuxIFC date 2024.02.15  04:43:04
 running on  304 total cores
 distrk:  each k-point on  304 cores,    1 groups
 distr:  one band on NCORE=  19 cores,   16 groups


--------------------------------------------------------------------------------------------------------


 INCAR:
   SYSTEM = Oxide-Surface
   ISMEAR = 0
   SIGMA = 0.05
   EDIFF = 1E-5
   ALGO = ALL
   ISTART = 0
   IBRION = -1
   NSW = 0
   ISYM = 2
   DIPOL = 0.5 0.5 0.5
   IDIPOL = 3
   LDIPOL = .TRUE.
   METAGGA = R2SCAN
   LUSE_VDW = .TRUE.
   BPARAM = 11.95
   CPARAM = 0.0093
   LASPH = .TRUE.
   ENCUT = 600
   PREC = Accurate
   LASPH = .TRUE.
   LREAL = .FALSE.
   ISPIN = 1
   NELM = 200
   NELMIN = 8
   NCORE = 19
   KPAR = 1
   LWAVE = .FALSE.
   LCHARG = .FALSE.

 POTCAR:    PAW_PBE Ti_pv 07Sep2000               
 POTCAR:    PAW_PBE O 08Apr2002                   
 -----------------------------------------------------------------------------
|                                                                             |
|               ----> ADVICE to this user running VASP <----                  |
|                                                                             |
|     You have switched on vdW-DFT.                                           |
|     This routine was written and supplied by Jiri Klimes. We recommend      |
|     that you carefully read and cite the following publications:            |
|       J. Klimes, D.R. Bowler, A. Michelides                                 |
|          J. Phys.: Cond Matt. 22 022201 (2010)                              |
|       J. Klimes, D.R. Bowler, A. Michelides                                 |
|          Phys. Rev. B. 83, 195131 (2011)                                    |
|     and references therein.                                                 |
|                                                                             |
 -----------------------------------------------------------------------------

 POTCAR:    PAW_PBE Ti_pv 07Sep2000               
   SHA256 =  f757a1b2c6d082f4c628fa3d987464a8763bf92e53844ac0500b0e2ddc9ce5c0 Ti_pv/POTCAR          
   COPYR  = (c) Copyright 07Sep2000 Georg Kresse                                                    
   COPYR  = This file is part of the software VASP. Any use, copying, and all other rights are regul
   COPYR  = If you do not have a valid VASP license, you may not use, copy or distribute this file. 
   VRHFIN =Ti: d3 s1                                                                                
   LEXCH  = PE                                                                                      
   EATOM  =  1042.5995 eV,   76.6289 Ry                                                             
                                                                                                    
   TITEL  = PAW_PBE Ti_pv 07Sep2000                                                                 
   LULTRA =        F    use ultrasoft PP ?                                                          
   IUNSCR =        1    unscreen: 0-lin 1-nonlin 2-no                                               
   RPACOR =    2.200    partial core radius                                                         
   POMASS =   47.880; ZVAL   =   10.000    mass and valenz                                          
   RCORE  =    2.500    outmost cutoff radius                                                       
   RWIGS  =    2.500; RWIGS  =    1.323    wigner-seitz radius (au A)                               
   ENMAX  =  222.335; ENMIN  =  166.751 eV                                                          
   RCLOC  =    1.701    cutoff for local pot                                                        
   LCOR   =        T    correct aug charges                                                         
   LPAW   =        T    paw PP                                                                      
   EAUG   =  482.848                                                                                
   DEXC   =    0.000                                                                                
   RMAX   =    2.564    core radius for proj-oper                                                   
   RAUG   =    1.300    factor for augmentation sphere                                              
   RDEP   =    2.538    radius for radial grids                                                     
   RDEPT  =    1.952    core radius for aug-charge                                                  
                                                                                                    
   Atomic configuration                                                                             
    8 entries                                                                                       
     n  l   j            E        occ.                                                              
     1  0  0.50     -4865.3608   2.0000                                                             
     2  0  0.50      -533.1368   2.0000                                                             
     2  1  1.50      -440.5031   6.0000                                                             
     3  0  0.50       -59.3186   2.0000                                                             
     3  1  1.50       -35.7012   6.0000                                                             
     3  2  2.50        -1.9157   3.0000                                                             
     4  0  0.50        -3.7291   1.0000                                                             
     4  3  2.50        -1.3606   0.0000                                                             
   Description                                                                                      
     l       E           TYP  RCUT    TYP  RCUT                                                     
     1    -35.7012140     23  2.300                                                                 
     1     -1.3605826     23  2.300                                                                 
     2     -1.9156996     23  2.500                                                                 
     2     -0.4063033     23  2.500                                                                 
     0     -3.7290856     23  2.500                                                                 
     0     20.4087390     23  2.500                                                                 
  local pseudopotential read in
  partial core-charges read in
  partial kinetic energy density read in
  atomic valenz-charges read in
  non local Contribution for L=           1  read in
    real space projection operators read in
  non local Contribution for L=           1  read in
    real space projection operators read in
  non local Contribution for L=           2  read in
    real space projection operators read in
  non local Contribution for L=           2  read in
    real space projection operators read in
  non local Contribution for L=           0  read in
    real space projection operators read in
  non local Contribution for L=           0  read in
    real space projection operators read in
    PAW grid and wavefunctions read in
 
   number of l-projection  operators is LMAX  =           6
   number of lm-projection operators is LMMAX =          18
 
 POTCAR:    PAW_PBE O 08Apr2002                   
   SHA256 =  818f92134a0a090dccd8ba1447fa70422a3b330e708bb4f08108d8ae51209ddf O/POTCAR              
   COPYR  = (c) Copyright 08Apr2002 Georg Kresse                                                    
   COPYR  = This file is part of the software VASP. Any use, copying, and all other rights are regul
   COPYR  = If you do not have a valid VASP license, you may not use, copy or distribute this file. 
   VRHFIN =O: s2p4                                                                                  
   LEXCH  = PE                                                                                      
   EATOM  =   432.3788 eV,   31.7789 Ry                                                             
                                                                                                    
   TITEL  = PAW_PBE O 08Apr2002                                                                     
   LULTRA =        F    use ultrasoft PP ?                                                          
   IUNSCR =        1    unscreen: 0-lin 1-nonlin 2-no                                               
   RPACOR =    1.200    partial core radius                                                         
   POMASS =   16.000; ZVAL   =    6.000    mass and valenz                                          
   RCORE  =    1.520    outmost cutoff radius                                                       
   RWIGS  =    1.550; RWIGS  =    0.820    wigner-seitz radius (au A)                               
   ENMAX  =  400.000; ENMIN  =  300.000 eV                                                          
   ICORE  =        2    local potential                                                             
   LCOR   =        T    correct aug charges                                                         
   LPAW   =        T    paw PP                                                                      
   EAUG   =  605.392                                                                                
   DEXC   =    0.000                                                                                
   RMAX   =    1.553    core radius for proj-oper                                                   
   RAUG   =    1.300    factor for augmentation sphere                                              
   RDEP   =    1.550    radius for radial grids                                                     
   RDEPT  =    1.329    core radius for aug-charge                                                  
                                                                                                    
   Atomic configuration                                                                             
    4 entries                                                                                       
     n  l   j            E        occ.                                                              
     1  0  0.50      -514.6923   2.0000                                                             
     2  0  0.50       -23.9615   2.0000                                                             
     2  1  0.50        -9.0305   4.0000                                                             
     3  2  1.50        -9.5241   0.0000                                                             
   Description                                                                                      
     l       E           TYP  RCUT    TYP  RCUT                                                     
     0    -23.9615318     23  1.200                                                                 
     0     -9.5240782     23  1.200                                                                 
     1     -9.0304911     23  1.520                                                                 
     1      8.1634956     23  1.520                                                                 
     2     -9.5240782      7  1.500                                                                 
  local pseudopotential read in
  partial core-charges read in
  partial kinetic energy density read in
  kinetic energy density of atom read in
  atomic valenz-charges read in
  non local Contribution for L=           0  read in
    real space projection operators read in
  non local Contribution for L=           0  read in
    real space projection operators read in
  non local Contribution for L=           1  read in
    real space projection operators read in
  non local Contribution for L=           1  read in
    real space projection operators read in
    PAW grid and wavefunctions read in
 
   number of l-projection  operators is LMAX  =           4
   number of lm-projection operators is LMMAX =           8
 
 -----------------------------------------------------------------------------
|                                                                             |
|               ----> ADVICE to this user running VASP <----                  |
|                                                                             |
|     You have a (more or less) 'large supercell' and for larger cells it     |
|     might be more efficient to use real-space projection operators.         |
|     Therefore, try LREAL= Auto in the INCAR file.                           |
|     Mind: For very accurate calculation, you might also keep the            |
|     reciprocal projection scheme (i.e. LREAL=.FALSE.).                      |
|                                                                             |
 -----------------------------------------------------------------------------

  PAW_PBE Ti_pv 07Sep2000               :
 energy of atom  1       EATOM=-1042.5995
 kinetic energy error for atom=    0.0007 (will be added to EATOM!!)
  PAW_PBE O 08Apr2002                   :
 energy of atom  2       EATOM= -432.3788
 kinetic energy error for atom=    0.0168 (will be added to EATOM!!)
 
 
 POSCAR: Ti  O
  positions in direct lattice
  No initial velocities read in

 METAGGA = R2SCA    LMAXTAU =  6    LMIXTAU =  F

 exchange correlation table for  LEXCH =        8
   RHO(1)=    0.500       N(1)  =     2000
   RHO(2)=  100.500       N(2)  =     4000
 


--------------------------------------------------------------------------------------------------------


 ion  position               nearest neighbor table
   1  0.750  0.625  0.287-  82 1.95 142 1.95 141 1.95  81 1.95  84 1.98 163 1.98  11 2.96  31 2.96

   2  0.000  0.750  0.287-  83 1.95  84 1.95 103 1.95 104 1.95  85 1.98  32 2.96  12 2.96
   3  0.000  0.625  0.394-  85 1.95 145 1.95  86 1.95 146 1.95  87 1.98  88 1.98  13 2.96  33 2.96

   4  0.750  0.750  0.394-  87 1.95 107 1.95 168 1.95 188 1.95  89 1.98  82 1.98  14 2.96  34 2.96

   5  0.750  0.625  0.500-  89 1.95  90 1.95 149 1.95 150 1.95  92 1.98 171 1.98  15 2.96  35 2.96

   6  0.000  0.750  0.500-  91 1.95  92 1.95 111 1.95 112 1.95  86 1.98  93 2.00  16 2.96  36 2.96

   7  0.007  0.625  0.604-  96 1.87 153 1.90  93 1.90  94 2.02 154 2.02  95 2.03  17 2.96  37 2.96

   8  0.756  0.750  0.610-  97 1.87  95 1.93 115 1.93 176 2.01 196 2.01  90 2.09  18 2.96  38 2.96

   9  0.751  0.626  0.719-  98 1.83 158 1.87 179 2.00 100 2.02  97 2.08 157 2.09  19 2.95  39 2.99

  10  1.000  0.750  0.708-  94 1.81 119 1.94 120 1.94  99 1.95 100 1.96  20 2.95  40 2.96
  11  0.750  0.875  0.287-  82 1.95 102 1.95 101 1.95  81 1.95 104 1.98 183 1.98   1 2.96  21 2.96

  12  0.000  0.000  0.287- 103 1.95 104 1.95 123 1.95 124 1.95 105 1.98  22 2.96   2 2.96
  13  0.000  0.875  0.394-  85 1.95 105 1.95  86 1.95 106 1.95 107 1.98 108 1.98   3 2.96  23 2.96

  14  0.750  0.000  0.394- 107 1.95 127 1.95 188 1.95 208 1.95 109 1.98 102 1.98   4 2.96  24 2.96

  15  0.750  0.875  0.500-  89 1.95  90 1.95 109 1.95 110 1.95 112 1.98 191 1.98   5 2.96  25 2.96

  16  0.000  0.000  0.500- 111 1.95 112 1.95 131 1.95 132 1.95 106 1.98 113 2.00   6 2.96  26 2.96

  17  0.007  0.875  0.604- 116 1.87  93 1.90 113 1.90 114 2.02  94 2.02 115 2.04  27 2.96   7 2.96

  18  0.756  0.000  0.611- 117 1.87 115 1.93 135 1.93 216 2.01 196 2.02 110 2.10  28 2.96   8 2.96

  19  0.750  0.875  0.720- 118 1.84  98 1.84 199 2.02 120 2.04  97 2.09 117 2.09   9 2.95  29 2.95

  20  0.000  1.000  0.708- 114 1.81 120 1.95 140 1.95 139 1.95 119 1.95  10 2.95  30 2.95
  21  0.750  0.125  0.287- 102 1.95 122 1.95 121 1.95 101 1.95 124 1.98 203 1.98  11 2.96  31 2.96

  22  0.000  0.250  0.287- 123 1.95 124 1.95 143 1.95 144 1.95 125 1.98  32 2.96  12 2.96
  23  0.000  0.125  0.394- 105 1.95 125 1.95 106 1.95 126 1.95 127 1.98 128 1.98  13 2.96  33 2.96

  24  0.750  0.250  0.394- 127 1.95 147 1.95 208 1.95 228 1.95 129 1.98 122 1.98  14 2.96  34 2.96

  25  0.750  0.125  0.500- 109 1.95 110 1.95 129 1.95 130 1.95 132 1.98 211 1.98  15 2.96  35 2.96

  26  0.000  0.250  0.500- 131 1.95 132 1.95 151 1.95 152 1.95 126 1.98 133 2.00  16 2.96  36 2.96

  27  0.007  0.125  0.604- 136 1.86 133 1.90 113 1.90 114 2.02 134 2.02 135 2.04  17 2.96  37 2.96

  28  0.756  0.250  0.610- 137 1.87 135 1.93 155 1.93 216 2.01 236 2.01 130 2.09  18 2.96  38 2.96

  29  0.750  0.124  0.720- 118 1.83 138 1.84 219 2.02 140 2.04 117 2.09 137 2.10  39 2.95  19 2.95

  30  0.000  0.250  0.708- 134 1.81 139 1.94 140 1.94 159 1.95 160 1.96  20 2.95  40 2.96
  31  0.750  0.375  0.287- 122 1.95 142 1.95 141 1.95 121 1.95 144 1.98 223 1.98   1 2.96  21 2.96

  32  0.000  0.500  0.287-  83 1.95  84 1.95 143 1.95 144 1.95 145 1.98  22 2.96   2 2.96
  33  0.000  0.375  0.394- 125 1.95 145 1.95 126 1.95 146 1.95 147 1.98 148 1.98   3 2.96  23 2.96

  34  0.750  0.500  0.394-  87 1.95 147 1.95 168 1.95 228 1.95 142 1.98 149 1.98   4 2.96  24 2.96

  35  0.750  0.375  0.500- 129 1.95 130 1.95 149 1.95 150 1.95 152 1.98 231 1.98   5 2.96  25 2.96

  36  0.000  0.500  0.500-  91 1.95  92 1.95 151 1.95 152 1.95 146 1.98 153 2.00   6 2.96  26 2.96

  37  0.007  0.375  0.604- 156 1.87 153 1.90 133 1.90 134 2.02 154 2.02 155 2.03  27 2.96   7 2.96

  38  0.756  0.500  0.610- 157 1.86 155 1.93  95 1.93 236 2.02 176 2.02 150 2.10   8 2.96  28 2.96

  39  0.751  0.373  0.719- 138 1.83 158 1.87 160 2.01 239 2.02 137 2.06 157 2.10  29 2.95   9 2.99

  40  0.001  0.500  0.708- 154 1.81 159 1.94  99 1.94 100 1.95 160 1.95  10 2.96  30 2.96
  41  0.250  0.625  0.287- 162 1.95 222 1.95 221 1.95 161 1.95  83 1.98 164 1.98  51 2.96  71 2.96

  42  0.500  0.750  0.287- 163 1.95 164 1.95 183 1.95 184 1.95 165 1.98  72 2.96  52 2.96
  43  0.500  0.625  0.394- 165 1.95 225 1.95 166 1.95 226 1.95 167 1.98 168 1.98  53 2.96  73 2.96

  44  0.250  0.750  0.394-  88 1.95 108 1.95 167 1.95 187 1.95 169 1.98 162 1.98  54 2.96  74 2.96

  45  0.250  0.625  0.500- 169 1.95 170 1.95 229 1.95 230 1.95  91 1.98 172 1.98  55 2.96  75 2.96

  46  0.500  0.750  0.500- 171 1.95 172 1.95 191 1.95 192 1.95 166 1.98 173 1.99  56 2.96  76 2.96

  47  0.507  0.623  0.605- 176 1.88 233 1.90 173 1.93 234 1.98 174 2.01 175 2.04  77 2.90  57 2.97

  48  0.256  0.750  0.610- 177 1.87 175 1.92 195 1.92  96 2.02 116 2.02 170 2.10  78 2.96  58 2.96

  49  0.250  0.625  0.720- 178 1.83 238 1.84  99 2.03 180 2.04 177 2.09 237 2.09  59 2.96  79 2.96

  50  0.501  0.750  0.707- 174 1.80 179 1.91 180 1.94 199 1.95 200 1.96  60 2.96  80 2.97
  51  0.250  0.875  0.287- 162 1.95 182 1.95 181 1.95 161 1.95 103 1.98 184 1.98  41 2.96  61 2.96

  52  0.500  0.000  0.287- 183 1.95 184 1.95 203 1.95 204 1.95 185 1.98  62 2.96  42 2.96
  53  0.500  0.875  0.394- 165 1.95 185 1.95 166 1.95 186 1.95 187 1.98 188 1.98  43 2.96  63 2.96

  54  0.250  0.000  0.394- 108 1.95 128 1.95 187 1.95 207 1.95 189 1.98 182 1.98  44 2.96  64 2.96

  55  0.250  0.875  0.500- 169 1.95 170 1.95 189 1.95 190 1.95 111 1.98 192 1.98  45 2.96  65 2.96

  56  0.500  0.000  0.500- 191 1.95 192 1.95 211 1.95 212 1.95 186 1.98 193 1.98  46 2.96  66 2.96

  57  0.507  0.874  0.603- 196 1.88 173 1.88 193 1.90 174 2.00 194 2.03 195 2.04  47 2.97  67 2.98

  58  0.256  1.000  0.611- 197 1.86 195 1.92 215 1.92 136 2.02 116 2.02 190 2.11  48 2.96  68 2.96

  59  0.251  0.875  0.720- 198 1.83 178 1.84 200 2.02 119 2.04 197 2.10 177 2.10  49 2.96  69 2.96

  60  0.499  1.000  0.707- 194 1.80 200 1.94 220 1.94 219 1.96 199 1.96  70 2.95  50 2.96
  61  0.250  0.125  0.287- 182 1.95 202 1.95 201 1.95 181 1.95 123 1.98 204 1.98  51 2.96  71 2.96

  62  0.500  0.250  0.287- 203 1.95 204 1.95 223 1.95 224 1.95 205 1.98  72 2.96  52 2.96
  63  0.500  0.125  0.394- 185 1.95 205 1.95 186 1.95 206 1.95 207 1.98 208 1.98  53 2.96  73 2.96

  64  0.250  0.250  0.394- 128 1.95 148 1.95 207 1.95 227 1.95 209 1.98 202 1.98  54 2.96  74 2.96

  65  0.250  0.125  0.500- 189 1.95 190 1.95 209 1.95 210 1.95 131 1.98 212 1.98  55 2.96  75 2.96

  66  0.500  0.250  0.500- 211 1.95 212 1.95 231 1.95 232 1.95 206 1.98 213 1.99  56 2.96  76 2.96

  67  0.507  0.126  0.603- 216 1.88 213 1.88 193 1.90 214 2.00 194 2.03 215 2.04  77 2.97  57 2.98

  68  0.256  0.250  0.611- 217 1.86 235 1.92 215 1.93 156 2.02 136 2.02 210 2.11  78 2.96  58 2.96

  69  0.251  0.125  0.720- 198 1.83 218 1.84 220 2.02 139 2.04 217 2.10 197 2.10  59 2.96  79 2.96

  70  0.501  0.250  0.707- 214 1.80 239 1.92 240 1.94 219 1.95 220 1.96  60 2.95  80 2.96
  71  0.250  0.375  0.287- 202 1.95 222 1.95 221 1.95 201 1.95 143 1.98 224 1.98  41 2.96  61 2.96

  72  0.500  0.500  0.287- 163 1.95 164 1.95 223 1.95 224 1.95 225 1.98  62 2.96  42 2.96
  73  0.500  0.375  0.394- 205 1.95 225 1.95 206 1.95 226 1.95 227 1.98 228 1.98  43 2.96  63 2.96

  74  0.250  0.500  0.394-  88 1.95 148 1.95 167 1.95 227 1.95 222 1.98 229 1.98  44 2.96  64 2.96

  75  0.250  0.375  0.500- 209 1.95 210 1.95 229 1.95 230 1.95 151 1.98 232 1.98  45 2.96  65 2.96

  76  0.500  0.500  0.500- 171 1.95 172 1.95 231 1.95 232 1.95 226 1.98 233 2.00  46 2.96  66 2.96

  77  0.507  0.377  0.606- 236 1.88 233 1.90 213 1.94 234 1.98 214 2.01 235 2.04  47 2.90  67 2.97

  78  0.256  0.500  0.611- 237 1.86 175 1.92 235 1.93 156 2.02  96 2.02 230 2.11  68 2.96  48 2.96

  79  0.250  0.375  0.720- 218 1.83 238 1.84 159 2.03 240 2.03 217 2.10 237 2.10  69 2.96  49 2.96

  80  0.501  0.499  0.712- 234 1.91 240 1.93 180 1.94 239 1.96 179 1.99  70 2.96  50 2.97
  81  0.750  0.750  0.245-   1 1.95  11 1.95
  82  0.750  0.750  0.329-   1 1.95  11 1.95   4 1.98
  83  0.098  0.625  0.287-   2 1.95  32 1.95  41 1.98
  84  0.902  0.625  0.287-   2 1.95  32 1.95   1 1.98
  85  0.000  0.750  0.352-   3 1.95  13 1.95   2 1.98
  86  0.000  0.750  0.435-   3 1.95  13 1.95   6 1.98
  87  0.848  0.625  0.394-   4 1.95  34 1.95   3 1.98
  88  0.152  0.625  0.394-  44 1.95  74 1.95   3 1.98
  89  0.750  0.750  0.458-   5 1.95  15 1.95   4 1.98
  90  0.750  0.750  0.542-   5 1.95  15 1.95   8 2.09
  91  0.098  0.625  0.500-   6 1.95  36 1.95  45 1.98
  92  0.902  0.625  0.500-   6 1.95  36 1.95   5 1.98
  93  0.001  0.750  0.565-  17 1.90   7 1.90   6 2.00
  94  1.000  0.750  0.649-  10 1.81   7 2.02  17 2.02
  95  0.851  0.625  0.607-   8 1.93  38 1.93   7 2.03
  96  0.150  0.625  0.607-   7 1.87  78 2.02  48 2.02
  97  0.754  0.751  0.671-   8 1.87   9 2.08  19 2.09
  98  0.748  0.749  0.756-   9 1.83  19 1.84
  99  0.095  0.625  0.719-  40 1.94  10 1.95  49 2.03
 100  0.906  0.624  0.720-  40 1.95  10 1.96   9 2.02
 101  0.750  0.000  0.245-  11 1.95  21 1.95
 102  0.750  0.000  0.329-  11 1.95  21 1.95  14 1.98
 103  0.098  0.875  0.287-   2 1.95  12 1.95  51 1.98
 104  0.902  0.875  0.287-   2 1.95  12 1.95  11 1.98
 105  0.000  0.000  0.352-  13 1.95  23 1.95  12 1.98
 106  0.000  0.000  0.435-  13 1.95  23 1.95  16 1.98
 107  0.848  0.875  0.394-   4 1.95  14 1.95  13 1.98
 108  0.152  0.875  0.394-  44 1.95  54 1.95  13 1.98
 109  0.750  0.000  0.458-  15 1.95  25 1.95  14 1.98
 110  0.750  0.000  0.542-  15 1.95  25 1.95  18 2.10
 111  0.098  0.875  0.500-   6 1.95  16 1.95  55 1.98
 112  0.902  0.875  0.500-   6 1.95  16 1.95  15 1.98
 113  0.001  0.000  0.565-  27 1.90  17 1.90  16 2.00
 114  0.000  0.000  0.649-  20 1.81  27 2.02  17 2.02
 115  0.851  0.876  0.607-  18 1.93   8 1.93  17 2.04
 116  0.150  0.875  0.607-  17 1.87  48 2.02  58 2.02
 117  0.751  0.000  0.672-  18 1.87  29 2.09  19 2.09
 118  0.750  1.000  0.756-  29 1.83  19 1.84
 119  0.094  0.875  0.719-  10 1.94  20 1.95  59 2.04
 120  0.906  0.875  0.719-  10 1.94  20 1.95  19 2.04
 121  0.750  0.250  0.245-  21 1.95  31 1.95
 122  0.750  0.250  0.329-  21 1.95  31 1.95  24 1.98
 123  0.098  0.125  0.287-  12 1.95  22 1.95  61 1.98
 124  0.902  0.125  0.287-  12 1.95  22 1.95  21 1.98
 125  0.000  0.250  0.352-  23 1.95  33 1.95  22 1.98
 126  0.000  0.250  0.435-  23 1.95  33 1.95  26 1.98
 127  0.848  0.125  0.394-  14 1.95  24 1.95  23 1.98
 128  0.152  0.125  0.394-  54 1.95  64 1.95  23 1.98
 129  0.750  0.250  0.458-  25 1.95  35 1.95  24 1.98
 130  0.750  0.250  0.542-  25 1.95  35 1.95  28 2.09
 131  0.098  0.125  0.500-  16 1.95  26 1.95  65 1.98
 132  0.902  0.125  0.500-  16 1.95  26 1.95  25 1.98
 133  0.001  0.250  0.565-  37 1.90  27 1.90  26 2.00
 134  0.000  0.250  0.649-  30 1.81  37 2.02  27 2.02
 135  0.851  0.125  0.607-  18 1.93  28 1.93  27 2.04
 136  0.150  0.125  0.607-  27 1.86  58 2.02  68 2.02
 137  0.753  0.250  0.671-  28 1.87  39 2.06  29 2.10
 138  0.749  0.251  0.756-  39 1.83  29 1.84
 139  0.094  0.125  0.719-  30 1.94  20 1.95  69 2.04
 140  0.906  0.125  0.719-  30 1.94  20 1.95  29 2.04
 141  0.750  0.500  0.245-   1 1.95  31 1.95
 142  0.750  0.500  0.329-   1 1.95  31 1.95  34 1.98
 143  0.098  0.375  0.287-  22 1.95  32 1.95  71 1.98
 144  0.902  0.375  0.287-  22 1.95  32 1.95  31 1.98
 145  0.000  0.500  0.352-   3 1.95  33 1.95  32 1.98
 146  0.000  0.500  0.435-   3 1.95  33 1.95  36 1.98
 147  0.848  0.375  0.394-  24 1.95  34 1.95  33 1.98
 148  0.152  0.375  0.394-  64 1.95  74 1.95  33 1.98
 149  0.750  0.500  0.458-   5 1.95  35 1.95  34 1.98
 150  0.750  0.500  0.542-   5 1.95  35 1.95  38 2.10
 151  0.098  0.375  0.500-  26 1.95  36 1.95  75 1.98
 152  0.902  0.375  0.500-  26 1.95  36 1.95  35 1.98
 153  0.001  0.500  0.565-  37 1.90   7 1.90  36 2.00
 154  0.000  0.500  0.649-  40 1.81   7 2.02  37 2.02
 155  0.851  0.375  0.607-  28 1.93  38 1.93  37 2.03
 156  0.150  0.375  0.607-  37 1.87  78 2.02  68 2.02
 157  0.755  0.500  0.671-  38 1.86   9 2.09  39 2.10
 158  0.740  0.500  0.756-   9 1.87  39 1.87
 159  0.095  0.375  0.719-  40 1.94  30 1.95  79 2.03
 160  0.906  0.376  0.720-  40 1.95  30 1.96  39 2.01
 161  0.250  0.750  0.245-  41 1.95  51 1.95
 162  0.250  0.750  0.329-  41 1.95  51 1.95  44 1.98
 163  0.598  0.625  0.287-  42 1.95  72 1.95   1 1.98
 164  0.402  0.625  0.287-  42 1.95  72 1.95  41 1.98
 165  0.500  0.750  0.352-  43 1.95  53 1.95  42 1.98
 166  0.500  0.750  0.435-  43 1.95  53 1.95  46 1.98
 167  0.348  0.625  0.394-  44 1.95  74 1.95  43 1.98
 168  0.652  0.625  0.394-   4 1.95  34 1.95  43 1.98
 169  0.250  0.750  0.458-  45 1.95  55 1.95  44 1.98
 170  0.250  0.750  0.542-  45 1.95  55 1.95  48 2.10
 171  0.598  0.625  0.500-  46 1.95  76 1.95   5 1.98
 172  0.402  0.625  0.500-  46 1.95  76 1.95  45 1.98
 173  0.501  0.749  0.565-  57 1.88  47 1.93  46 1.99
 174  0.498  0.752  0.648-  50 1.80  57 2.00  47 2.01
 175  0.350  0.625  0.607-  48 1.92  78 1.92  47 2.04
 176  0.651  0.625  0.608-  47 1.88   8 2.01  38 2.02
 177  0.251  0.750  0.672-  48 1.87  49 2.09  59 2.10
 178  0.251  0.750  0.756-  49 1.83  59 1.84
 179  0.597  0.630  0.714-  50 1.91  80 1.99   9 2.00
 180  0.408  0.626  0.719-  80 1.94  50 1.94  49 2.04
 181  0.250  0.000  0.245-  51 1.95  61 1.95
 182  0.250  0.000  0.329-  51 1.95  61 1.95  54 1.98
 183  0.598  0.875  0.287-  42 1.95  52 1.95  11 1.98
 184  0.402  0.875  0.287-  42 1.95  52 1.95  51 1.98
 185  0.500  0.000  0.352-  53 1.95  63 1.95  52 1.98
 186  0.500  0.000  0.435-  53 1.95  63 1.95  56 1.98
 187  0.348  0.875  0.394-  44 1.95  54 1.95  53 1.98
 188  0.652  0.875  0.394-   4 1.95  14 1.95  53 1.98
 189  0.250  0.000  0.458-  55 1.95  65 1.95  54 1.98
 190  0.250  0.000  0.542-  55 1.95  65 1.95  58 2.11
 191  0.598  0.875  0.500-  46 1.95  56 1.95  15 1.98
 192  0.402  0.875  0.500-  46 1.95  56 1.95  55 1.98
 193  0.500  0.000  0.565-  57 1.90  67 1.90  56 1.98
 194  0.500  1.000  0.648-  60 1.80  57 2.03  67 2.03
 195  0.350  0.875  0.607-  58 1.92  48 1.92  57 2.04
 196  0.651  0.875  0.607-  57 1.88   8 2.01  18 2.02
 197  0.250  1.000  0.672-  58 1.86  59 2.10  69 2.10
 198  0.250  0.000  0.756-  59 1.83  69 1.83
 199  0.595  0.875  0.718-  50 1.95  60 1.96  19 2.02
 200  0.406  0.876  0.718-  60 1.94  50 1.96  59 2.02
 201  0.250  0.250  0.245-  61 1.95  71 1.95
 202  0.250  0.250  0.329-  61 1.95  71 1.95  64 1.98
 203  0.598  0.125  0.287-  52 1.95  62 1.95  21 1.98
 204  0.402  0.125  0.287-  52 1.95  62 1.95  61 1.98
 205  0.500  0.250  0.352-  63 1.95  73 1.95  62 1.98
 206  0.500  0.250  0.435-  63 1.95  73 1.95  66 1.98
 207  0.348  0.125  0.394-  54 1.95  64 1.95  63 1.98
 208  0.652  0.125  0.394-  14 1.95  24 1.95  63 1.98
 209  0.250  0.250  0.458-  65 1.95  75 1.95  64 1.98
 210  0.250  0.250  0.542-  65 1.95  75 1.95  68 2.11
 211  0.598  0.125  0.500-  56 1.95  66 1.95  25 1.98
 212  0.402  0.125  0.500-  56 1.95  66 1.95  65 1.98
 213  0.501  0.251  0.565-  67 1.88  77 1.94  66 1.99
 214  0.499  0.248  0.648-  70 1.80  67 2.00  77 2.01
 215  0.350  0.125  0.607-  58 1.92  68 1.93  67 2.04
 216  0.651  0.125  0.607-  67 1.88  28 2.01  18 2.01
 217  0.250  0.250  0.672-  68 1.86  69 2.10  79 2.10
 218  0.251  0.250  0.756-  79 1.83  69 1.84
 219  0.595  0.125  0.718-  70 1.95  60 1.96  29 2.02
 220  0.406  0.124  0.718-  60 1.94  70 1.96  69 2.02
 221  0.250  0.500  0.245-  41 1.95  71 1.95
 222  0.250  0.500  0.329-  41 1.95  71 1.95  74 1.98
 223  0.598  0.375  0.287-  62 1.95  72 1.95  31 1.98
 224  0.402  0.375  0.287-  62 1.95  72 1.95  71 1.98
 225  0.500  0.500  0.352-  43 1.95  73 1.95  72 1.98
 226  0.500  0.500  0.435-  43 1.95  73 1.95  76 1.98
 227  0.348  0.375  0.394-  64 1.95  74 1.95  73 1.98
 228  0.652  0.375  0.394-  24 1.95  34 1.95  73 1.98
 229  0.250  0.500  0.458-  45 1.95  75 1.95  74 1.98
 230  0.250  0.500  0.542-  45 1.95  75 1.95  78 2.11
 231  0.598  0.375  0.500-  66 1.95  76 1.95  35 1.98
 232  0.402  0.375  0.500-  66 1.95  76 1.95  75 1.98
 233  0.501  0.500  0.566-  47 1.90  77 1.90  76 2.00
 234  0.500  0.500  0.650-  80 1.91  47 1.98  77 1.98
 235  0.350  0.375  0.607-  68 1.92  78 1.93  77 2.04
 236  0.651  0.375  0.608-  77 1.88  28 2.01  38 2.02
 237  0.250  0.500  0.672-  78 1.86  49 2.09  79 2.10
 238  0.252  0.500  0.756-  79 1.84  49 1.84
 239  0.597  0.371  0.715-  70 1.92  80 1.96  39 2.02
 240  0.407  0.374  0.718-  80 1.93  70 1.94  79 2.03
 
  LATTYP: Found a simple orthorhombic cell.
 ALAT       =    11.8303781148
 B/A-ratio  =     1.0992024327
 C/A-ratio  =     2.5825673970
  
  Lattice vectors:
  
 A1 = (   0.0000000000, -11.8303781148,   0.0000000000)
 A2 = (  13.0039804036,   0.0000000000,   0.0000000000)
 A3 = (   0.0000000000,   0.0000000000,  30.5527488131)


Analysis of symmetry for initial positions (statically):
=====================================================================
 Subroutine PRICEL returns:
 Original cell was already a primitive cell.
 

 Routine SETGRP: Setting up the symmetry group for a 
 simple orthorhombic supercell.


 Subroutine GETGRP returns: Found  1 space group operations
 (whereof  1 operations were pure point group operations)
 out of a pool of  8 trial point group operations.


The static configuration has the point symmetry C_1 .


Analysis of symmetry for dynamics (positions and initial velocities):
=====================================================================
 Subroutine PRICEL returns:
 Original cell was already a primitive cell.
 

 Routine SETGRP: Setting up the symmetry group for a 
 simple orthorhombic supercell.


 Subroutine GETGRP returns: Found  1 space group operations
 (whereof  1 operations were pure point group operations)
 out of a pool of  8 trial point group operations.


The dynamic configuration has the point symmetry C_1 .


Analysis of constrained symmetry for selective dynamics:
=====================================================================
 Subroutine PRICEL returns:
 Original cell was already a primitive cell.
 

 Routine SETGRP: Setting up the symmetry group for a 
 simple orthorhombic supercell.


 Subroutine GETGRP returns: Found  1 space group operations
 (whereof  1 operations were pure point group operations)
 out of a pool of  8 trial point group operations.


The constrained configuration has the point symmetry C_1 .


 Subroutine INISYM returns: Found  1 space group operations
 (whereof  1 operations are pure point group operations),
 and found     1 'primitive' translations


----------------------------------------------------------------------------------------

                                     Primitive cell                                     

  volume of cell :    4700.2961

  direct lattice vectors                    reciprocal lattice vectors
    13.003980404  0.000000000  0.000000000     0.076899531  0.000000000  0.000000000
     0.000000000 11.830378115  0.000000000     0.000000000  0.084528152  0.000000000
     0.000000000  0.000000000 30.552748813     0.000000000  0.000000000  0.032730279

  length of vectors
    13.003980404 11.830378115 30.552748813     0.076899531  0.084528152  0.032730279

  position of ions in fractional coordinates (direct lattice)
     0.750000000  0.625000000  0.287188045
     0.000000000  0.750000000  0.287188045
     0.000000000  0.625000000  0.393594023
     0.750000000  0.750000000  0.393594023
     0.750000000  0.625000000  0.500000000
     0.000000000  0.750000000  0.500000000
     0.006993774  0.625073986  0.604046202
     0.756133557  0.750114422  0.610207977
     0.750759752  0.625797847  0.719102266
     0.999978673  0.750342000  0.708177627
     0.750000000  0.875000000  0.287188045
     0.000000000  0.000000000  0.287188045
     0.000000000  0.875000000  0.393594023
     0.750000000  0.000000000  0.393594023
     0.750000000  0.875000000  0.500000000
     0.000000000  0.000000000  0.500000000
     0.007105127  0.875049078  0.604101504
     0.755700079  0.000050128  0.610520273
     0.749628850  0.874940193  0.720168330
     0.000248360  0.999945581  0.708144814
     0.750000000  0.125000000  0.287188045
     0.000000000  0.250000000  0.287188045
     0.000000000  0.125000000  0.393594023
     0.750000000  0.250000000  0.393594023
     0.750000000  0.125000000  0.500000000
     0.000000000  0.250000000  0.500000000
     0.007272160  0.124967895  0.604110878
     0.756020659  0.249869324  0.610140302
     0.749590896  0.124216859  0.720174278
     0.000192105  0.249631163  0.708168764
     0.750000000  0.375000000  0.287188045
     0.000000000  0.500000000  0.287188045
     0.000000000  0.375000000  0.393594023
     0.750000000  0.500000000  0.393594023
     0.750000000  0.375000000  0.500000000
     0.000000000  0.500000000  0.500000000
     0.006984987  0.374982529  0.604028350
     0.756360084  0.500008577  0.610371278
     0.751441947  0.373222885  0.719136832
     0.000822413  0.500125693  0.708109682
     0.250000000  0.625000000  0.287188045
     0.500000000  0.750000000  0.287188045
     0.500000000  0.625000000  0.393594023
     0.250000000  0.750000000  0.393594023
     0.250000000  0.625000000  0.500000000
     0.500000000  0.750000000  0.500000000
     0.507162857  0.622674843  0.605370118
     0.256146052  0.749992212  0.610460436
     0.250336699  0.625322801  0.720069271
     0.500758605  0.750128350  0.706878545
     0.250000000  0.875000000  0.287188045
     0.500000000  0.000000000  0.287188045
     0.500000000  0.875000000  0.393594023
     0.250000000  0.000000000  0.393594023
     0.250000000  0.875000000  0.500000000
     0.500000000  0.000000000  0.500000000
     0.507083618  0.874027206  0.603027326
     0.256004148  0.999990077  0.610576970
     0.251039654  0.875163053  0.720262046
     0.499486054  0.999974098  0.707124768
     0.250000000  0.125000000  0.287188045
     0.500000000  0.250000000  0.287188045
     0.500000000  0.125000000  0.393594023
     0.250000000  0.250000000  0.393594023
     0.250000000  0.125000000  0.500000000
     0.500000000  0.250000000  0.500000000
     0.506947780  0.126158046  0.603135701
     0.256059418  0.250139164  0.610565047
     0.250828751  0.125040888  0.720228214
     0.500662990  0.249742204  0.707249763
     0.250000000  0.375000000  0.287188045
     0.500000000  0.500000000  0.287188045
     0.500000000  0.375000000  0.393594023
     0.250000000  0.500000000  0.393594023
     0.250000000  0.375000000  0.500000000
     0.500000000  0.500000000  0.500000000
     0.507134435  0.377364860  0.605557422
     0.255708164  0.500065870  0.610602186
     0.250326702  0.375025466  0.720203536
     0.500756877  0.499470884  0.712074479
     0.750000000  0.750000000  0.245477094
     0.750000000  0.750000000  0.328898996
     0.097999548  0.625000000  0.287188045
     0.902000452  0.625000000  0.287188045
     0.000000000  0.750000000  0.351883072
     0.000000000  0.750000000  0.435304973
     0.847999548  0.625000000  0.393594023
     0.152000452  0.625000000  0.393594023
     0.750000000  0.750000000  0.458289049
     0.750000000  0.750000000  0.541710951
     0.097999548  0.625000000  0.500000000
     0.902000452  0.625000000  0.500000000
     0.000615644  0.750151725  0.565324429
     0.999880055  0.749849025  0.649067897
     0.850906167  0.625290898  0.606562138
     0.150469956  0.625204486  0.607029998
     0.753940980  0.750900793  0.671404483
     0.748495082  0.748910957  0.755559228
     0.094583664  0.625127146  0.718791808
     0.906251560  0.624285174  0.719686922
     0.750000000  0.000000000  0.245477094
     0.750000000  0.000000000  0.328898996
     0.097999548  0.875000000  0.287188045
     0.902000452  0.875000000  0.287188045
     0.000000000  0.000000000  0.351883072
     0.000000000  0.000000000  0.435304973
     0.847999548  0.875000000  0.393594023
     0.152000452  0.875000000  0.393594023
     0.750000000  0.000000000  0.458289049
     0.750000000  0.000000000  0.541710951
     0.097999548  0.875000000  0.500000000
     0.902000452  0.875000000  0.500000000
     0.000682385  0.000026813  0.565338635
     0.000247765  0.000016497  0.649040569
     0.850688897  0.875516295  0.606877656
     0.150463510  0.874886358  0.607121453
     0.750905919  0.000042456  0.671706932
     0.750102757  0.999777503  0.755869917
     0.094382871  0.874549383  0.718552585
     0.906260447  0.875021857  0.719161215
     0.750000000  0.250000000  0.245477094
     0.750000000  0.250000000  0.328898996
     0.097999548  0.125000000  0.287188045
     0.902000452  0.125000000  0.287188045
     0.000000000  0.250000000  0.351883072
     0.000000000  0.250000000  0.435304973
     0.847999548  0.125000000  0.393594023
     0.152000452  0.125000000  0.393594023
     0.750000000  0.250000000  0.458289049
     0.750000000  0.250000000  0.541710951
     0.097999548  0.125000000  0.500000000
     0.902000452  0.125000000  0.500000000
     0.000594458  0.249884179  0.565331516
     0.000046012  0.250192028  0.649073596
     0.850623896  0.124733471  0.606968538
     0.150460516  0.125032257  0.607028445
     0.753114175  0.249795904  0.671440357
     0.749299467  0.250631071  0.755500054
     0.094250770  0.125326590  0.718678543
     0.906206091  0.124979667  0.718960367
     0.750000000  0.500000000  0.245477094
     0.750000000  0.500000000  0.328898996
     0.097999548  0.375000000  0.287188045
     0.902000452  0.375000000  0.287188045
     0.000000000  0.500000000  0.351883072
     0.000000000  0.500000000  0.435304973
     0.847999548  0.375000000  0.393594023
     0.152000452  0.375000000  0.393594023
     0.750000000  0.500000000  0.458289049
     0.750000000  0.500000000  0.541710951
     0.097999548  0.375000000  0.500000000
     0.902000452  0.375000000  0.500000000
     0.000711837  0.500024658  0.565311345
     0.000093537  0.500040047  0.649009457
     0.850890441  0.374717535  0.606589777
     0.150481257  0.374977112  0.607008893
     0.755446116  0.500065496  0.671264341
     0.739605783  0.499859698  0.755610271
     0.094500812  0.375093184  0.718786457
     0.906287798  0.375724569  0.719662355
     0.250000000  0.750000000  0.245477094
     0.250000000  0.750000000  0.328898996
     0.597999548  0.625000000  0.287188045
     0.402000452  0.625000000  0.287188045
     0.500000000  0.750000000  0.351883072
     0.500000000  0.750000000  0.435304973
     0.347999548  0.625000000  0.393594023
     0.652000452  0.625000000  0.393594023
     0.250000000  0.750000000  0.458289049
     0.250000000  0.750000000  0.541710951
     0.597999548  0.625000000  0.500000000
     0.402000452  0.625000000  0.500000000
     0.500817049  0.748794576  0.565136117
     0.498058711  0.751631840  0.647994695
     0.350072833  0.624919736  0.606983878
     0.651289387  0.625309938  0.607548003
     0.251299759  0.749734257  0.671563240
     0.250923658  0.749841388  0.755826028
     0.597218859  0.629836769  0.713507024
     0.407567280  0.625641522  0.719239697
     0.250000000  0.000000000  0.245477094
     0.250000000  0.000000000  0.328898996
     0.597999548  0.875000000  0.287188045
     0.402000452  0.875000000  0.287188045
     0.500000000  0.000000000  0.351883072
     0.500000000  0.000000000  0.435304973
     0.347999548  0.875000000  0.393594023
     0.652000452  0.875000000  0.393594023
     0.250000000  0.000000000  0.458289049
     0.250000000  0.000000000  0.541710951
     0.597999548  0.875000000  0.500000000
     0.402000452  0.875000000  0.500000000
     0.500411853  0.000153594  0.564859564
     0.500313159  0.999954189  0.648256401
     0.350145731  0.875259307  0.606698772
     0.650976788  0.874850565  0.606937819
     0.250398031  0.999970649  0.671537684
     0.249740186  0.000045268  0.755786521
     0.594530483  0.874909592  0.718125345
     0.406093554  0.875992683  0.718461482
     0.250000000  0.250000000  0.245477094
     0.250000000  0.250000000  0.328898996
     0.597999548  0.125000000  0.287188045
     0.402000452  0.125000000  0.287188045
     0.500000000  0.250000000  0.351883072
     0.500000000  0.250000000  0.435304973
     0.347999548  0.125000000  0.393594023
     0.652000452  0.125000000  0.393594023
     0.250000000  0.250000000  0.458289049
     0.250000000  0.250000000  0.541710951
     0.597999548  0.125000000  0.500000000
     0.402000452  0.125000000  0.500000000
     0.500741738  0.251373525  0.565249602
     0.499125970  0.248430626  0.648287452
     0.350242985  0.124918128  0.606846442
     0.651012287  0.125185125  0.606912983
     0.250310268  0.249985933  0.671530308
     0.250696189  0.250246931  0.755742290
     0.594578165  0.124797019  0.718169900
     0.406007380  0.124344726  0.718328016
     0.250000000  0.500000000  0.245477094
     0.250000000  0.500000000  0.328898996
     0.597999548  0.375000000  0.287188045
     0.402000452  0.375000000  0.287188045
     0.500000000  0.500000000  0.351883072
     0.500000000  0.500000000  0.435304973
     0.347999548  0.375000000  0.393594023
     0.652000452  0.375000000  0.393594023
     0.250000000  0.500000000  0.458289049
     0.250000000  0.500000000  0.541710951
     0.597999548  0.375000000  0.500000000
     0.402000452  0.375000000  0.500000000
     0.500907707  0.499897338  0.565520620
     0.499945957  0.500351109  0.649525778
     0.350131684  0.375057394  0.607190442
     0.651263466  0.374989739  0.607526633
     0.250216959  0.500342565  0.671574508
     0.252067876  0.500246127  0.755740575
     0.596688626  0.371476091  0.714507138
     0.406527982  0.374096473  0.717865471

  ion indices of the primitive-cell ions
   primitive index   ion index
                 1           1
                 2           2
                 3           3
                 4           4
                 5           5
                 6           6
                 7           7
                 8           8
                 9           9
                10          10
                11          11
                12          12
                13          13
                14          14
                15          15
                16          16
                17          17
                18          18
                19          19
                20          20
                21          21
                22          22
                23          23
                24          24
                25          25
                26          26
                27          27
                28          28
                29          29
                30          30
                31          31
                32          32
                33          33
                34          34
                35          35
                36          36
                37          37
                38          38
                39          39
                40          40
                41          41
                42          42
                43          43
                44          44
                45          45
                46          46
                47          47
                48          48
                49          49
                50          50
                51          51
                52          52
                53          53
                54          54
                55          55
                56          56
                57          57
                58          58
                59          59
                60          60
                61          61
                62          62
                63          63
                64          64
                65          65
                66          66
                67          67
                68          68
                69          69
                70          70
                71          71
                72          72
                73          73
                74          74
                75          75
                76          76
                77          77
                78          78
                79          79
                80          80
                81          81
                82          82
                83          83
                84          84
                85          85
                86          86
                87          87
                88          88
                89          89
                90          90
                91          91
                92          92
                93          93
                94          94
                95          95
                96          96
                97          97
                98          98
                99          99
               100         100
               101         101
               102         102
               103         103
               104         104
               105         105
               106         106
               107         107
               108         108
               109         109
               110         110
               111         111
               112         112
               113         113
               114         114
               115         115
               116         116
               117         117
               118         118
               119         119
               120         120
               121         121
               122         122
               123         123
               124         124
               125         125
               126         126
               127         127
               128         128
               129         129
               130         130
               131         131
               132         132
               133         133
               134         134
               135         135
               136         136
               137         137
               138         138
               139         139
               140         140
               141         141
               142         142
               143         143
               144         144
               145         145
               146         146
               147         147
               148         148
               149         149
               150         150
               151         151
               152         152
               153         153
               154         154
               155         155
               156         156
               157         157
               158         158
               159         159
               160         160
               161         161
               162         162
               163         163
               164         164
               165         165
               166         166
               167         167
               168         168
               169         169
               170         170
               171         171
               172         172
               173         173
               174         174
               175         175
               176         176
               177         177
               178         178
               179         179
               180         180
               181         181
               182         182
               183         183
               184         184
               185         185
               186         186
               187         187
               188         188
               189         189
               190         190
               191         191
               192         192
               193         193
               194         194
               195         195
               196         196
               197         197
               198         198
               199         199
               200         200
               201         201
               202         202
               203         203
               204         204
               205         205
               206         206
               207         207
               208         208
               209         209
               210         210
               211         211
               212         212
               213         213
               214         214
               215         215
               216         216
               217         217
               218         218
               219         219
               220         220
               221         221
               222         222
               223         223
               224         224
               225         225
               226         226
               227         227
               228         228
               229         229
               230         230
               231         231
               232         232
               233         233
               234         234
               235         235
               236         236
               237         237
               238         238
               239         239
               240         240

----------------------------------------------------------------------------------------

 
 
 KPOINTS: pymatgen v2020.8.13 with grid density = 

Automatic generation of k-mesh.
 Grid dimensions read from file:
 generate k-points for:    2    2    1

 Generating k-lattice:

  Cartesian coordinates                     Fractional coordinates (reciprocal lattice)
     0.038449766  0.000000000  0.000000000     0.500000000  0.000000000  0.000000000
     0.000000000  0.042264076  0.000000000     0.000000000  0.500000000  0.000000000
     0.000000000  0.000000000  0.032730279     0.000000000  0.000000000  1.000000000

  Length of vectors
     0.038449766  0.042264076  0.032730279

  Shift w.r.t. Gamma in fractional coordinates (k-lattice)
     0.000000000  0.000000000  0.000000000

 
 Subroutine IBZKPT returns following result:
 ===========================================
 
 Found      4 irreducible k-points:
 
 Following reciprocal coordinates:
            Coordinates               Weight
  0.000000  0.000000  0.000000      1.000000
  0.500000  0.000000  0.000000      1.000000
  0.000000  0.500000  0.000000      1.000000
  0.500000  0.500000  0.000000      1.000000
 
 Following cartesian coordinates:
            Coordinates               Weight
  0.000000  0.000000  0.000000      1.000000
  0.038450  0.000000  0.000000      1.000000
  0.000000  0.042264  0.000000      1.000000
  0.038450  0.042264  0.000000      1.000000
 


--------------------------------------------------------------------------------------------------------




 Dimension of arrays:
   k-points           NKPTS =      4   k-points in BZ     NKDIM =      4   number of bands    NBANDS=   1056
   number of dos      NEDOS =    301   number of ions     NIONS =    240
   non local maximal  LDIM  =      6   non local SUM 2l+1 LMDIM =     18
   total plane-waves  NPLWV = ******
   max r-space proj   IRMAX =      1   max aug-charges    IRDMAX=  21607
   dimension x,y,z NGX =   108 NGY =   96 NGZ =  250
   dimension x,y,z NGXF=   216 NGYF=  192 NGZF=  500
   support grid    NGXF=   216 NGYF=  192 NGZF=  500
   ions per type =              80 160
   NGX,Y,Z   is equivalent  to a cutoff of  13.81, 13.49, 13.60 a.u.
   NGXF,Y,Z  is equivalent  to a cutoff of  27.61, 26.98, 27.21 a.u.

 SYSTEM =  Oxide-Surface                           
 POSCAR =  Ti  O                                   

--------------------------------------------------------------------------------------------------------


  energy-cutoff  :      600.00
  volume of cell :     4700.30
      direct lattice vectors                 reciprocal lattice vectors
    13.003980404  0.000000000  0.000000000     0.076899531  0.000000000  0.000000000
     0.000000000 11.830378115  0.000000000     0.000000000  0.084528152  0.000000000
     0.000000000  0.000000000 30.552748813     0.000000000  0.000000000  0.032730279

  length of vectors
    13.003980404 11.830378115 30.552748813     0.076899531  0.084528152  0.032730279


 
 k-points in units of 2pi/SCALE and weight: pymatgen v2020.8.13 with grid density = 
   0.00000000  0.00000000  0.00000000       0.250
   0.03844977  0.00000000  0.00000000       0.250
   0.00000000  0.04226408  0.00000000       0.250
   0.03844977  0.04226408  0.00000000       0.250
 
 k-points in reciprocal lattice and weights: pymatgen v2020.8.13 with grid density = 
   0.00000000  0.00000000  0.00000000       0.250
   0.50000000  0.00000000  0.00000000       0.250
   0.00000000  0.50000000  0.00000000       0.250
   0.50000000  0.50000000  0.00000000       0.250
 
 position of ions in fractional coordinates (direct lattice) 
   0.75000000  0.62500000  0.28718805
   0.00000000  0.75000000  0.28718805
   0.00000000  0.62500000  0.39359402
   0.75000000  0.75000000  0.39359402
   0.75000000  0.62500000  0.50000000
   0.00000000  0.75000000  0.50000000
   0.00699377  0.62507399  0.60404620
   0.75613356  0.75011442  0.61020798
   0.75075975  0.62579785  0.71910227
   0.99997867  0.75034200  0.70817763
   0.75000000  0.87500000  0.28718805
   0.00000000  0.00000000  0.28718805
   0.00000000  0.87500000  0.39359402
   0.75000000  0.00000000  0.39359402
   0.75000000  0.87500000  0.50000000
   0.00000000  0.00000000  0.50000000
   0.00710513  0.87504908  0.60410150
   0.75570008  0.00005013  0.61052027
   0.74962885  0.87494019  0.72016833
   0.00024836  0.99994558  0.70814481
   0.75000000  0.12500000  0.28718805
   0.00000000  0.25000000  0.28718805
   0.00000000  0.12500000  0.39359402
   0.75000000  0.25000000  0.39359402
   0.75000000  0.12500000  0.50000000
   0.00000000  0.25000000  0.50000000
   0.00727216  0.12496790  0.60411088
   0.75602066  0.24986932  0.61014030
   0.74959090  0.12421686  0.72017428
   0.00019211  0.24963116  0.70816876
   0.75000000  0.37500000  0.28718805
   0.00000000  0.50000000  0.28718805
   0.00000000  0.37500000  0.39359402
   0.75000000  0.50000000  0.39359402
   0.75000000  0.37500000  0.50000000
   0.00000000  0.50000000  0.50000000
   0.00698499  0.37498253  0.60402835
   0.75636008  0.50000858  0.61037128
   0.75144195  0.37322288  0.71913683
   0.00082241  0.50012569  0.70810968
   0.25000000  0.62500000  0.28718805
   0.50000000  0.75000000  0.28718805
   0.50000000  0.62500000  0.39359402
   0.25000000  0.75000000  0.39359402
   0.25000000  0.62500000  0.50000000
   0.50000000  0.75000000  0.50000000
   0.50716286  0.62267484  0.60537012
   0.25614605  0.74999221  0.61046044
   0.25033670  0.62532280  0.72006927
   0.50075861  0.75012835  0.70687855
   0.25000000  0.87500000  0.28718805
   0.50000000  0.00000000  0.28718805
   0.50000000  0.87500000  0.39359402
   0.25000000  0.00000000  0.39359402
   0.25000000  0.87500000  0.50000000
   0.50000000  0.00000000  0.50000000
   0.50708362  0.87402721  0.60302733
   0.25600415  0.99999008  0.61057697
   0.25103965  0.87516305  0.72026205
   0.49948605  0.99997410  0.70712477
   0.25000000  0.12500000  0.28718805
   0.50000000  0.25000000  0.28718805
   0.50000000  0.12500000  0.39359402
   0.25000000  0.25000000  0.39359402
   0.25000000  0.12500000  0.50000000
   0.50000000  0.25000000  0.50000000
   0.50694778  0.12615805  0.60313570
   0.25605942  0.25013916  0.61056505
   0.25082875  0.12504089  0.72022821
   0.50066299  0.24974220  0.70724976
   0.25000000  0.37500000  0.28718805
   0.50000000  0.50000000  0.28718805
   0.50000000  0.37500000  0.39359402
   0.25000000  0.50000000  0.39359402
   0.25000000  0.37500000  0.50000000
   0.50000000  0.50000000  0.50000000
   0.50713444  0.37736486  0.60555742
   0.25570816  0.50006587  0.61060219
   0.25032670  0.37502547  0.72020354
   0.50075688  0.49947088  0.71207448
   0.75000000  0.75000000  0.24547709
   0.75000000  0.75000000  0.32889900
   0.09799955  0.62500000  0.28718805
   0.90200045  0.62500000  0.28718805
   0.00000000  0.75000000  0.35188307
   0.00000000  0.75000000  0.43530497
   0.84799955  0.62500000  0.39359402
   0.15200045  0.62500000  0.39359402
   0.75000000  0.75000000  0.45828905
   0.75000000  0.75000000  0.54171095
   0.09799955  0.62500000  0.50000000
   0.90200045  0.62500000  0.50000000
   0.00061564  0.75015172  0.56532443
   0.99988005  0.74984903  0.64906790
   0.85090617  0.62529090  0.60656214
   0.15046996  0.62520449  0.60703000
   0.75394098  0.75090079  0.67140448
   0.74849508  0.74891096  0.75555923
   0.09458366  0.62512715  0.71879181
   0.90625156  0.62428517  0.71968692
   0.75000000  0.00000000  0.24547709
   0.75000000  0.00000000  0.32889900
   0.09799955  0.87500000  0.28718805
   0.90200045  0.87500000  0.28718805
   0.00000000  0.00000000  0.35188307
   0.00000000  0.00000000  0.43530497
   0.84799955  0.87500000  0.39359402
   0.15200045  0.87500000  0.39359402
   0.75000000  0.00000000  0.45828905
   0.75000000  0.00000000  0.54171095
   0.09799955  0.87500000  0.50000000
   0.90200045  0.87500000  0.50000000
   0.00068238  0.00002681  0.56533863
   0.00024777  0.00001650  0.64904057
   0.85068890  0.87551630  0.60687766
   0.15046351  0.87488636  0.60712145
   0.75090592  0.00004246  0.67170693
   0.75010276  0.99977750  0.75586992
   0.09438287  0.87454938  0.71855259
   0.90626045  0.87502186  0.71916121
   0.75000000  0.25000000  0.24547709
   0.75000000  0.25000000  0.32889900
   0.09799955  0.12500000  0.28718805
   0.90200045  0.12500000  0.28718805
   0.00000000  0.25000000  0.35188307
   0.00000000  0.25000000  0.43530497
   0.84799955  0.12500000  0.39359402
   0.15200045  0.12500000  0.39359402
   0.75000000  0.25000000  0.45828905
   0.75000000  0.25000000  0.54171095
   0.09799955  0.12500000  0.50000000
   0.90200045  0.12500000  0.50000000
   0.00059446  0.24988418  0.56533152
   0.00004601  0.25019203  0.64907360
   0.85062390  0.12473347  0.60696854
   0.15046052  0.12503226  0.60702845
   0.75311417  0.24979590  0.67144036
   0.74929947  0.25063107  0.75550005
   0.09425077  0.12532659  0.71867854
   0.90620609  0.12497967  0.71896037
   0.75000000  0.50000000  0.24547709
   0.75000000  0.50000000  0.32889900
   0.09799955  0.37500000  0.28718805
   0.90200045  0.37500000  0.28718805
   0.00000000  0.50000000  0.35188307
   0.00000000  0.50000000  0.43530497
   0.84799955  0.37500000  0.39359402
   0.15200045  0.37500000  0.39359402
   0.75000000  0.50000000  0.45828905
   0.75000000  0.50000000  0.54171095
   0.09799955  0.37500000  0.50000000
   0.90200045  0.37500000  0.50000000
   0.00071184  0.50002466  0.56531135
   0.00009354  0.50004005  0.64900946
   0.85089044  0.37471754  0.60658978
   0.15048126  0.37497711  0.60700889
   0.75544612  0.50006550  0.67126434
   0.73960578  0.49985970  0.75561027
   0.09450081  0.37509318  0.71878646
   0.90628780  0.37572457  0.71966235
   0.25000000  0.75000000  0.24547709
   0.25000000  0.75000000  0.32889900
   0.59799955  0.62500000  0.28718805
   0.40200045  0.62500000  0.28718805
   0.50000000  0.75000000  0.35188307
   0.50000000  0.75000000  0.43530497
   0.34799955  0.62500000  0.39359402
   0.65200045  0.62500000  0.39359402
   0.25000000  0.75000000  0.45828905
   0.25000000  0.75000000  0.54171095
   0.59799955  0.62500000  0.50000000
   0.40200045  0.62500000  0.50000000
   0.50081705  0.74879458  0.56513612
   0.49805871  0.75163184  0.64799470
   0.35007283  0.62491974  0.60698388
   0.65128939  0.62530994  0.60754800
   0.25129976  0.74973426  0.67156324
   0.25092366  0.74984139  0.75582603
   0.59721886  0.62983677  0.71350702
   0.40756728  0.62564152  0.71923970
   0.25000000  0.00000000  0.24547709
   0.25000000  0.00000000  0.32889900
   0.59799955  0.87500000  0.28718805
   0.40200045  0.87500000  0.28718805
   0.50000000  0.00000000  0.35188307
   0.50000000  0.00000000  0.43530497
   0.34799955  0.87500000  0.39359402
   0.65200045  0.87500000  0.39359402
   0.25000000  0.00000000  0.45828905
   0.25000000  0.00000000  0.54171095
   0.59799955  0.87500000  0.50000000
   0.40200045  0.87500000  0.50000000
   0.50041185  0.00015359  0.56485956
   0.50031316  0.99995419  0.64825640
   0.35014573  0.87525931  0.60669877
   0.65097679  0.87485056  0.60693782
   0.25039803  0.99997065  0.67153768
   0.24974019  0.00004527  0.75578652
   0.59453048  0.87490959  0.71812534
   0.40609355  0.87599268  0.71846148
   0.25000000  0.25000000  0.24547709
   0.25000000  0.25000000  0.32889900
   0.59799955  0.12500000  0.28718805
   0.40200045  0.12500000  0.28718805
   0.50000000  0.25000000  0.35188307
   0.50000000  0.25000000  0.43530497
   0.34799955  0.12500000  0.39359402
   0.65200045  0.12500000  0.39359402
   0.25000000  0.25000000  0.45828905
   0.25000000  0.25000000  0.54171095
   0.59799955  0.12500000  0.50000000
   0.40200045  0.12500000  0.50000000
   0.50074174  0.25137352  0.56524960
   0.49912597  0.24843063  0.64828745
   0.35024299  0.12491813  0.60684644
   0.65101229  0.12518512  0.60691298
   0.25031027  0.24998593  0.67153031
   0.25069619  0.25024693  0.75574229
   0.59457816  0.12479702  0.71816990
   0.40600738  0.12434473  0.71832802
   0.25000000  0.50000000  0.24547709
   0.25000000  0.50000000  0.32889900
   0.59799955  0.37500000  0.28718805
   0.40200045  0.37500000  0.28718805
   0.50000000  0.50000000  0.35188307
   0.50000000  0.50000000  0.43530497
   0.34799955  0.37500000  0.39359402
   0.65200045  0.37500000  0.39359402
   0.25000000  0.50000000  0.45828905
   0.25000000  0.50000000  0.54171095
   0.59799955  0.37500000  0.50000000
   0.40200045  0.37500000  0.50000000
   0.50090771  0.49989734  0.56552062
   0.49994596  0.50035111  0.64952578
   0.35013168  0.37505739  0.60719044
   0.65126347  0.37498974  0.60752663
   0.25021696  0.50034256  0.67157451
   0.25206788  0.50024613  0.75574058
   0.59668863  0.37147609  0.71450714
   0.40652798  0.37409647  0.71786547
 
 position of ions in cartesian coordinates  (Angst):
   9.75298530  7.39398632  8.77438420
   0.00000000  8.87278359  8.77438420
   0.00000000  7.39398632 12.02537931
   9.75298530  8.87278359 12.02537931
   9.75298530  7.39398632 15.27637441
   0.00000000  8.87278359 15.27637441
   0.09094689  7.39486160 18.45527187
   9.83274596  8.87413724 18.64353105
   9.76286511  7.40342515 21.97055091
  13.00370307  8.87682958 21.63677314
   9.75298530 10.35158085  8.77438420
   0.00000000  0.00000000  8.77438420
   0.00000000 10.35158085 12.02537931
   9.75298530  0.00000000 12.02537931
   9.75298530 10.35158085 15.27637441
   0.00000000  0.00000000 15.27637441
   0.09239494 10.35216146 18.45696150
   9.82710902  0.00059303 18.65307254
   9.74815887 10.35087331 22.00312210
   0.00322966 11.82973431 21.63577063
   9.75298530  1.47879726  8.77438420
   0.00000000  2.95759453  8.77438420
   0.00000000  1.47879726 12.02537931
   9.75298530  2.95759453 12.02537931
   9.75298530  1.47879726 15.27637441
   0.00000000  2.95759453 15.27637441
   0.09456703  1.47841745 18.45724791
   9.83127784  2.95604858 18.64146339
   9.74766532  1.46953241 22.00330383
   0.00249813  2.95323105 21.63650235
   9.75298530  4.43639179  8.77438420
   0.00000000  5.91518906  8.77438420
   0.00000000  4.43639179 12.02537931
   9.75298530  5.91518906 12.02537931
   9.75298530  4.43639179 15.27637441
   0.00000000  5.91518906 15.27637441
   0.09083263  4.43618510 18.45472645
   9.83569172  5.91529053 18.64852034
   9.77173635  4.41536785 21.97160699
   0.01069464  5.91667606 21.63469725
   3.25099510  7.39398632  8.77438420
   6.50199020  8.87278359  8.77438420
   6.50199020  7.39398632 12.02537931
   3.25099510  8.87278359 12.02537931
   3.25099510  7.39398632 15.27637441
   6.50199020  8.87278359 15.27637441
   6.59513585  7.36647884 18.49572115
   3.33091824  8.87269145 18.65124436
   3.25537352  7.39780518 22.00009556
   6.51185509  8.87430202 21.59708263
   3.25099510 10.35158085  8.77438420
   6.50199020  0.00000000  8.77438420
   6.50199020 10.35158085 12.02537931
   3.25099510  0.00000000 12.02537931
   3.25099510 10.35158085 15.27637441
   6.50199020  0.00000000 15.27637441
   6.59410543 10.34007233 18.42414243
   3.32907292 11.83026073 18.65480479
   3.26451474 10.35350983 22.00598536
   6.49530686 11.83007168 21.60460542
   3.25099510  1.47879726  8.77438420
   6.50199020  2.95759453  8.77438420
   6.50199020  1.47879726 12.02537931
   3.25099510  2.95759453 12.02537931
   3.25099510  1.47879726 15.27637441
   6.50199020  2.95759453 15.27637441
   6.59233900  1.49249738 18.42745356
   3.32979166  2.95924089 18.65444052
   3.26177216  1.47928099 22.00495170
   6.51061171  2.95454470 21.60842435
   3.25099510  4.43639179  8.77438420
   6.50199020  5.91518906  8.77438420
   6.50199020  4.43639179 12.02537931
   3.25099510  5.91518906 12.02537931
   3.25099510  4.43639179 15.27637441
   6.50199020  5.91518906 15.27637441
   6.59476626  4.46436899 18.50144380
   3.32522396  5.91596833 18.65557521
   3.25524352  4.43669306 22.00419772
   6.51183261  5.90892941 21.75583268
   9.75298530  8.87278359  7.50000000
   9.75298530  8.87278359 10.04876841
   1.27438420  7.39398632  8.77438420
  11.72959620  7.39398632  8.77438420
   0.00000000  8.87278359 10.75099510
   0.00000000  8.87278359 13.29976351
  11.02736951  7.39398632 12.02537931
   1.97661090  7.39398632 12.02537931
   9.75298530  8.87278359 14.00199020
   9.75298530  8.87278359 16.55075861
   1.27438420  7.39398632 15.27637441
  11.72959620  7.39398632 15.27637441
   0.00800582  8.87457855 17.27221528
  13.00242064  8.87099750 19.83080842
  11.06516712  7.39742776 18.53214063
   1.95670836  7.39640547 18.54643507
   9.80423374  8.88344030 20.51325252
   9.73341538  8.85989979 23.08441130
   1.22996411  7.39549050 21.96106554
  11.78487752  7.38552966 21.98841374
   9.75298530  0.00000000  7.50000000
   9.75298530  0.00000000 10.04876841
   1.27438420 10.35158085  8.77438420
  11.72959620 10.35158085  8.77438420
   0.00000000  0.00000000 10.75099510
   0.00000000  0.00000000 13.29976351
  11.02736951 10.35158085 12.02537931
   1.97661090 10.35158085 12.02537931
   9.75298530  0.00000000 14.00199020
   9.75298530  0.00000000 16.55075861
   1.27438420 10.35158085 15.27637441
  11.72959620 10.35158085 15.27637441
   0.00887372  0.00031721 17.27264931
   0.00322194  0.00019517 19.82997347
  11.06234175 10.35768882 18.54178059
   1.95662453 10.35023642 18.54922926
   9.76476586  0.00050228 20.52249316
   9.75432155 11.82774590 23.09390372
   1.22735300 10.34624988 21.95375665
  11.78499309 10.35183943 21.97235195
   9.75298530  2.95759453  7.50000000
   9.75298530  2.95759453 10.04876841
   1.27438420  1.47879726  8.77438420
  11.72959620  1.47879726  8.77438420
   0.00000000  2.95759453 10.75099510
   0.00000000  2.95759453 13.29976351
  11.02736951  1.47879726 12.02537931
   1.97661090  1.47879726 12.02537931
   9.75298530  2.95759453 14.00199020
   9.75298530  2.95759453 16.55075861
   1.27438420  1.47879726 15.27637441
  11.72959620  1.47879726 15.27637441
   0.00773032  2.95622432 17.27243181
   0.00059834  2.95986629 19.83098254
  11.06149647  1.47564413 18.54455729
   1.95658560  1.47917888 18.54638761
   9.79348197  2.95518000 20.51434856
   9.74387559  2.96506033 23.08260339
   1.22563516  1.48266095 21.95760499
  11.78428625  1.47855672 21.96621551
   9.75298530  5.91518906  7.50000000
   9.75298530  5.91518906 10.04876841
   1.27438420  4.43639179  8.77438420
  11.72959620  4.43639179  8.77438420
   0.00000000  5.91518906 10.75099510
   0.00000000  5.91518906 13.29976351
  11.02736951  4.43639179 12.02537931
   1.97661090  4.43639179 12.02537931
   9.75298530  5.91518906 14.00199020
   9.75298530  5.91518906 16.55075861
   1.27438420  4.43639179 15.27637441
  11.72959620  4.43639179 15.27637441
   0.00925671  5.91548077 17.27181553
   0.00121636  5.91566283 19.82902292
  11.06496262  4.43305013 18.53298509
   1.95685532  4.43612102 18.54579025
   9.82380649  5.91596391 20.50897081
   9.61781910  5.91352924 23.08597082
   1.22888671  4.43749420 21.96090208
  11.78534877  4.44496372 21.98766316
   3.25099510  8.87278359  7.50000000
   3.25099510  8.87278359 10.04876841
   7.77637441  7.39398632  8.77438420
   5.22760600  7.39398632  8.77438420
   6.50199020  8.87278359 10.75099510
   6.50199020  8.87278359 13.29976351
   4.52537931  7.39398632 12.02537931
   8.47860110  7.39398632 12.02537931
   3.25099510  8.87278359 14.00199020
   3.25099510  8.87278359 16.55075861
   7.77637441  7.39398632 15.27637441
   5.22760600  7.39398632 15.27637441
   6.51261509  8.85852297 17.26646183
   6.47674572  8.89208887 19.79801916
   4.55234026  7.39303677 18.54502596
   8.46935443  7.39765300 18.56226153
   3.26789714  8.86963975 20.51810297
   3.26300633  8.87090715 23.09256279
   7.76622234  7.45120713 21.79960087
   5.29999692  7.40157577 21.97474979
   3.25099510  0.00000000  7.50000000
   3.25099510  0.00000000 10.04876841
   7.77637441 10.35158085  8.77438420
   5.22760600 10.35158085  8.77438420
   6.50199020  0.00000000 10.75099510
   6.50199020  0.00000000 13.29976351
   4.52537931 10.35158085 12.02537931
   8.47860110 10.35158085 12.02537931
   3.25099510  0.00000000 14.00199020
   3.25099510  0.00000000 16.55075861
   7.77637441 10.35158085 15.27637441
   5.22760600 10.35158085 15.27637441
   6.50734593  0.00181707 17.25801237
   6.50606251 11.82983615 19.80601499
   4.55328822 10.35464855 18.53631520
   8.46528939 10.34981297 18.54361873
   3.25617109 11.83003088 20.51732219
   3.24761649  0.00053554 23.09135573
   7.73126275 10.35051129 21.94070328
   5.28083262 10.36332466 21.95097320
   3.25099510  2.95759453  7.50000000
   3.25099510  2.95759453 10.04876841
   7.77637441  1.47879726  8.77438420
   5.22760600  1.47879726  8.77438420
   6.50199020  2.95759453 10.75099510
   6.50199020  2.95759453 13.29976351
   4.52537931  1.47879726 12.02537931
   8.47860110  1.47879726 12.02537931
   3.25099510  2.95759453 14.00199020
   3.25099510  2.95759453 16.55075861
   7.77637441  1.47879726 15.27637441
   5.22760600  1.47879726 15.27637441
   6.51163575  2.97384384 17.26992911
   6.49062433  2.93902824 19.80696368
   4.55455292  1.47782869 18.54082692
   8.46575102  1.48098736 18.54285993
   3.25502983  2.95742811 20.51709683
   3.26004833  2.96051581 23.09000436
   7.73188280  1.47639592 21.94206457
   5.27971202  1.47104512 21.94689544
   3.25099510  5.91518906  7.50000000
   3.25099510  5.91518906 10.04876841
   7.77637441  4.43639179  8.77438420
   5.22760600  4.43639179  8.77438420
   6.50199020  5.91518906 10.75099510
   6.50199020  5.91518906 13.29976351
   4.52537931  4.43639179 12.02537931
   8.47860110  4.43639179 12.02537931
   3.25099510  5.91518906 14.00199020
   3.25099510  5.91518906 16.55075861
   7.77637441  4.43639179 15.27637441
   5.22760600  4.43639179 15.27637441
   6.51379401  5.91397452 17.27820944
   6.50128743  5.91934280 19.84479795
   4.55310556  4.43707079 18.55133706
   8.46901735  4.43627040 18.56160861
   3.25381643  5.91924173 20.51844726
   3.27788571  5.91810083 23.08995196
   7.75932721  4.39470262 21.83015712
   5.28648191  4.42570273 21.93276342
 


--------------------------------------------------------------------------------------------------------

--------------------------------------- Iteration      FINAL  ---------------------------------------


--------------------OUTCAR has been truncated-------------------------


--------------------OUTCAR has been truncated-------------------------


--------------------OUTCAR has been truncated-------------------------


--------------------OUTCAR has been truncated-------------------------


--------------------OUTCAR has been truncated-------------------------


--------------------OUTCAR has been truncated-------------------------


--------------------OUTCAR has been truncated-------------------------


--------------------OUTCAR has been truncated-------------------------


--------------------OUTCAR has been truncated-------------------------


--------------------OUTCAR has been truncated-------------------------


  FORCE on cell =-STRESS in cart. coord.  units (eV):
  Direction    XX          YY          ZZ          XY          YZ          ZX
  --------------------------------------------------------------------------------------
  Alpha Z  4654.20310  4654.20310  4654.20310
  Ewald  982877.65432************************    -5.40905     0.51005   -30.41775
  Hartree************************************    -2.26245     0.32160   -17.65838
  E(xc)   -9126.92772 -9136.32229 -9124.92336    -0.00489    -0.00264     0.00711
  Local  ************************************     7.65202    -0.75640    49.05530
  n-local -5173.93584 -5080.44498 -5218.83828    -0.12457     0.03292    -0.51479
  augment  5515.99376  5483.81038  5520.11417    -0.02578    -0.01518    -0.28923
  Kinetic 28661.68555 28180.40317 28704.18961     0.05161    -0.09319     0.87691
  Fock        0.00000     0.00000     0.00000     0.00000     0.00000     0.00000
  -------------------------------------------------------------------------------------
  Total      -5.00916   -57.12063   -53.24547    -0.12311    -0.00284     1.05917
  in kB      -1.70746   -19.47056   -18.14964    -0.04197    -0.00097     0.36104
  external pressure =      -13.11 kB  Pullay stress =        0.00 kB


 VOLUME and BASIS-vectors are now :
 -----------------------------------------------------------------------------
  energy-cutoff  :      600.00
  volume of cell :     4700.30
      direct lattice vectors                 reciprocal lattice vectors
    13.003980404  0.000000000  0.000000000     0.076899531  0.000000000  0.000000000
     0.000000000 11.830378115  0.000000000     0.000000000  0.084528152  0.000000000
     0.000000000  0.000000000 30.552748813     0.000000000  0.000000000  0.032730279

  length of vectors
    13.003980404 11.830378115 30.552748813     0.076899531  0.084528152  0.032730279


 FORCES acting on ions:
    Electron-Ion                     Ewald-Force                    Non-Local-Force
 -----------------------------------------------------------------------------------------------
   0.141E-01 0.278E-01 0.380E+04   -.163E-01 -.277E-01 -.380E+04   0.507E-03 -.298E-05 0.442E+00
   -.241E-01 0.211E-01 0.398E+04   0.247E-01 -.210E-01 -.397E+04   0.756E-04 -.712E-05 -.402E+01
   -.822E-01 0.604E-01 0.193E+04   0.860E-01 -.602E-01 -.193E+04   -.764E-03 0.747E-04 -.625E-01
   -.283E-01 0.168E+00 0.192E+04   0.217E-01 -.167E+00 -.192E+04   0.203E-02 -.292E-04 0.219E+00
   0.373E+00 0.640E+00 -.188E+02   -.397E+00 -.656E+00 0.196E+02   0.626E-02 0.865E-03 -.130E+00
   0.157E+01 -.661E-02 -.777E+01   -.159E+01 0.128E-01 0.668E+01   0.282E-02 -.306E-02 0.341E+00
   0.152E+02 0.105E+00 -.190E+04   -.154E+02 -.982E-01 0.190E+04   -.159E-01 -.699E-02 0.165E+00
   0.990E+01 -.168E+01 -.196E+04   -.982E+01 0.174E+01 0.196E+04   -.118E+00 -.173E-01 -.189E+00
   -.144E+02 0.158E+02 -.380E+04   0.145E+02 -.165E+02 0.380E+04   0.138E+00 0.844E-01 -.306E+00
   -.986E-01 0.499E+01 -.381E+04   0.625E-01 -.502E+01 0.381E+04   -.339E-01 -.165E-01 0.107E+01
   -.401E-02 0.187E-01 0.380E+04   0.160E-02 -.187E-01 -.380E+04   0.621E-03 -.109E-04 0.442E+00
   -.230E-01 -.541E-02 0.398E+04   0.237E-01 0.537E-02 -.397E+04   0.722E-04 0.413E-05 -.402E+01
   -.587E-01 0.228E-01 0.193E+04   0.626E-01 -.231E-01 -.193E+04   -.788E-03 0.104E-03 -.626E-01
   -.148E+00 -.322E-01 0.192E+04   0.141E+00 0.316E-01 -.192E+04   0.201E-02 -.296E-04 0.219E+00
   -.143E+01 0.135E+00 -.184E+02   0.142E+01 -.109E+00 0.192E+02   0.415E-02 -.710E-03 -.133E+00
   0.193E+01 -.745E-01 -.823E+01   -.194E+01 0.744E-01 0.715E+01   0.235E-02 -.380E-03 0.339E+00
   0.174E+02 0.154E+00 -.190E+04   -.176E+02 -.149E+00 0.190E+04   -.215E-01 -.829E-02 0.174E+00
   0.950E+01 -.219E+00 -.197E+04   -.945E+01 0.215E+00 0.197E+04   -.118E+00 0.965E-03 -.191E+00
   -.372E+00 -.105E+01 -.380E+04   0.411E+00 0.910E+00 0.380E+04   0.389E-01 0.184E-01 -.334E+00
   -.174E+01 0.248E+00 -.381E+04   0.167E+01 -.261E+00 0.381E+04   0.377E-01 0.854E-03 0.111E+01
   -.206E-02 -.279E-01 0.380E+04   -.280E-03 0.275E-01 -.380E+04   0.590E-03 0.526E-04 0.442E+00
   -.250E-01 -.211E-01 0.398E+04   0.257E-01 0.210E-01 -.397E+04   0.586E-04 0.121E-04 -.402E+01
   -.634E-01 -.569E-01 0.193E+04   0.677E-01 0.568E-01 -.193E+04   -.902E-03 -.387E-04 -.625E-01
   -.230E-02 -.167E+00 0.192E+04   -.381E-02 0.166E+00 -.192E+04   0.190E-02 0.683E-05 0.220E+00
   -.135E+01 -.303E+00 -.185E+02   0.134E+01 0.260E+00 0.193E+02   0.513E-02 0.257E-02 -.132E+00
   0.156E+01 0.363E-01 -.791E+01   -.157E+01 -.427E-01 0.682E+01   0.197E-02 0.280E-02 0.342E+00
   0.187E+02 -.381E+00 -.190E+04   -.189E+02 0.373E+00 0.190E+04   -.209E-01 0.791E-02 0.179E+00
   0.964E+01 0.120E+01 -.196E+04   -.956E+01 -.124E+01 0.196E+04   -.115E+00 0.900E-02 -.199E+00
   0.316E+00 -.171E+01 -.380E+04   -.233E+00 0.180E+01 0.380E+04   0.218E-01 -.131E-01 -.336E+00
   0.539E+00 -.530E+01 -.381E+04   -.591E+00 0.534E+01 0.381E+04   -.217E-01 0.141E-01 0.107E+01
   0.161E-01 -.186E-01 0.380E+04   -.181E-01 0.188E-01 -.380E+04   0.503E-03 -.209E-04 0.442E+00
   -.259E-01 0.541E-02 0.398E+04   0.266E-01 -.537E-02 -.397E+04   0.704E-04 -.358E-05 -.402E+01
   -.877E-01 -.263E-01 0.193E+04   0.921E-01 0.265E-01 -.193E+04   -.874E-03 -.106E-03 -.625E-01
   0.115E+00 0.318E-01 0.192E+04   -.120E+00 -.312E-01 -.192E+04   0.160E-02 -.290E-04 0.219E+00
   0.483E+00 -.467E+00 -.189E+02   -.508E+00 0.499E+00 0.197E+02   0.693E-02 -.185E-02 -.128E+00
   0.149E+01 0.879E-01 -.751E+01   -.149E+01 -.863E-01 0.641E+01   0.142E-02 -.574E-03 0.340E+00
   0.156E+02 0.141E+00 -.190E+04   -.158E+02 -.141E+00 0.190E+04   -.174E-01 0.514E-02 0.167E+00
   0.121E+02 0.133E+00 -.196E+04   -.119E+02 -.134E+00 0.196E+04   -.186E+00 0.349E-02 -.189E+00
   -.117E+02 -.188E+02 -.380E+04   0.118E+02 0.195E+02 0.380E+04   0.582E-01 -.123E+00 -.309E+00
   0.432E+00 0.137E+00 -.381E+04   -.612E+00 -.128E+00 0.381E+04   0.661E-01 0.157E-02 0.101E+01
   -.192E-01 0.305E-01 0.380E+04   0.216E-01 -.305E-01 -.380E+04   -.778E-03 -.135E-05 0.442E+00
   0.290E-01 0.491E-01 0.398E+04   -.301E-01 -.487E-01 -.397E+04   0.425E-03 -.630E-04 -.402E+01
[...]
      9.74767      1.46953     22.00330         0.101337      0.070650      0.210919
      0.00250      2.95323     21.63650        -0.072398      0.045269      0.208547
      9.75299      4.43639      8.77438        -0.001950      0.000192     -3.734686
      0.00000      5.91519      8.77438         0.000307      0.000041      2.968527
      0.00000      4.43639     12.02538         0.003005      0.000058      0.532794
      9.75299      5.91519     12.02538        -0.004245      0.000576     -0.749414
      9.75299      4.43639     15.27637        -0.018112      0.029964      0.657315
      0.00000      5.91519     15.27637        -0.007262      0.001044     -0.749935
      0.09083      4.43619     18.45473        -0.140559      0.004210      0.169703
      9.83569      5.91529     18.64852         0.006887      0.002341      0.046918
      9.77174      4.41537     21.97161         0.173039      0.633168      0.639020
      0.01069      5.91668     21.63470        -0.112443      0.011110      0.237668
      3.25100      7.39399      8.77438         0.001145      0.000020     -3.733166
      6.50199      8.87278      8.77438        -0.001051      0.000374      2.972228
      6.50199      7.39399     12.02538        -0.003635      0.012446      0.545466
      3.25100      8.87278     12.02538         0.004485      0.000940     -0.739888
      3.25100      7.39399     15.27637         0.030941     -0.010547      0.694708
      6.50199      8.87278     15.27637        -0.023404     -0.045315     -0.667440
      6.59514      7.36648     18.49572        -0.065266      0.316542     -0.135839
      3.33092      8.87269     18.65124        -0.148737      0.029045     -0.066391
      3.25537      7.39781     22.00010        -0.222507      0.068062      0.192988
      6.51186      8.87430     21.59708         0.014405      0.421805      0.210025
      3.25100     10.35158      8.77438         0.001332      0.000279     -3.732972
      6.50199      0.00000      8.77438        -0.001078     -0.000098      2.972846
      6.50199     10.35158     12.02538        -0.004036      0.000834      0.550192
      3.25100      0.00000     12.02538         0.005013     -0.000001     -0.738829
      3.25100     10.35158     15.27637         0.022939      0.016898      0.698213
      6.50199      0.00000     15.27637        -0.030486     -0.000440     -0.842685
      6.59411     10.34007     18.42414        -0.077843      0.091268      0.134403
      3.32907     11.83026     18.65480        -0.134703     -0.001399     -0.054278
      3.26451     10.35351     22.00599        -0.064437     -0.008008      0.143849
      6.49531     11.83007     21.60461         0.054819     -0.052434      0.204669
      3.25100      1.47880      8.77438         0.001284     -0.000136     -3.732837
      6.50199      2.95759      8.77438        -0.001123     -0.000362      2.971864
      6.50199      1.47880     12.02538        -0.004399     -0.003715      0.548446
      3.25100      2.95759     12.02538         0.004189     -0.000964     -0.738063
      3.25100      1.47880     15.27637         0.022228     -0.005431      0.707018
      6.50199      2.95759     15.27637        -0.026375      0.047756     -0.653310
      6.59234      1.49250     18.42745        -0.069512     -0.106058      0.118968
      3.32979      2.95924     18.65444        -0.153016     -0.035063     -0.086815
      3.26177      1.47928     22.00495        -0.084667     -0.070652      0.114990
      6.51061      2.95454     21.60842         0.081474     -0.487940      0.026677
      3.25100      4.43639      8.77438         0.001098     -0.000185     -3.733063
      6.50199      5.91519      8.77438        -0.001080      0.000110      2.971476
      6.50199      4.43639     12.02538        -0.003986     -0.009557      0.543938
      3.25100      5.91519     12.02538         0.003658     -0.000004     -0.738633
      3.25100      4.43639     15.27637         0.031048     -0.001044      0.702510
      6.50199      5.91519     15.27637        -0.021040     -0.001682     -0.724067
      6.59477      4.46437     18.50144        -0.060763     -0.297785     -0.153856
      3.32522      5.91597     18.65558        -0.167649      0.005016     -0.088879
      3.25524      4.43669     22.00420        -0.327777      0.005253      0.123922
      6.51183      5.90893     21.75583         0.289293      0.170794     -1.915734
      9.75299      8.87278      7.50000        -0.000025     -0.000096      2.218348
      9.75299      8.87278     10.04877         0.000189     -0.000120      1.770502
      1.27438      7.39399      8.77438        -1.988069     -0.000033     -0.788341
     11.72960      7.39399      8.77438         1.986290     -0.000036     -0.788202
      0.00000      8.87278     10.75100        -0.000864     -0.000013     -1.361865
      0.00000      8.87278     13.29976         0.000214      0.000148     -0.145132
     11.02737      7.39399     12.02538         0.421102     -0.000268      0.057298
      1.97661      7.39399     12.02538        -0.425549     -0.000014      0.055927
      9.75299      8.87278     14.00199        -0.001458     -0.001430     -0.054442
      9.75299      8.87278     16.55076         0.013344      0.002928      0.014226
      1.27438      7.39399     15.27637        -0.518971      0.001935      0.093116
     11.72960      7.39399     15.27637         0.512437      0.000765      0.106840
      0.00801      8.87458     17.27222         0.009637     -0.000023     -0.068660
     13.00242      8.87100     19.83081         0.016495      0.003441     -0.226601
     11.06517      7.39743     18.53214         0.030404     -0.001329     -0.016302
      1.95671      7.39641     18.54644         0.174778     -0.006495      0.004167
      9.80423      8.88344     20.51325        -0.043821      0.034117     -0.043623
      9.73342      8.85990     23.08441         0.024065      0.173468     -0.363860
      1.22996      7.39549     21.96107         0.000615      0.000436     -0.056546
     11.78488      7.38553     21.98841         0.195815      0.030409     -0.105074
      9.75299      0.00000      7.50000         0.000015      0.000079      2.218435
      9.75299      0.00000     10.04877         0.000280      0.000123      1.770540
      1.27438     10.35158      8.77438        -1.988121     -0.000012     -0.788331
     11.72960     10.35158      8.77438         1.986316     -0.000001     -0.788229
      0.00000      0.00000     10.75100        -0.000863      0.000062     -1.361827
      0.00000      0.00000     13.29976         0.000116      0.000169     -0.144306
     11.02737     10.35158     12.02538         0.421114      0.000107      0.057345
      1.97661     10.35158     12.02538        -0.425636     -0.000307      0.055996
      9.75299      0.00000     14.00199        -0.001754      0.003160     -0.053121
      9.75299      0.00000     16.55076         0.004467      0.005269      0.004685
      1.27438     10.35158     15.27637        -0.518190     -0.000151      0.090857
     11.72960     10.35158     15.27637         0.512118     -0.000169      0.104789
      0.00887      0.00032     17.27265         0.007324      0.000953     -0.067100
      0.00322      0.00020     19.82997         0.014288      0.000310     -0.213395
     11.06234     10.35769     18.54178         0.033376     -0.005495     -0.015887
      1.95662     10.35024     18.54923         0.167150     -0.006527      0.002413
      9.76477      0.00050     20.52249        -0.008124      0.007339      0.014658
      9.75432     11.82775     23.09390        -0.012096      0.022506     -0.282533
      1.22735     10.34625     21.95376        -0.030125      0.016126     -0.051220
     11.78499     10.35184     21.97235         0.105845      0.015907     -0.067167
      9.75299      2.95759      7.50000        -0.000010      0.000086      2.218446
      9.75299      2.95759     10.04877         0.000159      0.000125      1.771175
      1.27438      1.47880      8.77438        -1.988141      0.000026     -0.788314
     11.72960      1.47880      8.77438         1.986276      0.000039     -0.788180
      0.00000      2.95759     10.75100        -0.000873      0.000033     -1.361746
      0.00000      2.95759     13.29976        -0.000075     -0.000027     -0.144319
     11.02737      1.47880     12.02538         0.420966      0.000389      0.057430
      1.97661      1.47880     12.02538        -0.425806      0.000139      0.055905
      9.75299      2.95759     14.00199        -0.001382      0.001546     -0.050185
      9.75299      2.95759     16.55076         0.010479      0.003010      0.029635
      1.27438      1.47880     15.27637        -0.520900      0.000991      0.090256
     11.72960      1.47880     15.27637         0.509320      0.002136      0.105688
      0.00773      2.95622     17.27243         0.009462     -0.000028     -0.067975
      0.00060      2.95987     19.83098         0.018221     -0.002470     -0.221380
     11.06150      1.47564     18.54456         0.034323      0.004615     -0.015292
      1.95659      1.47918     18.54639         0.168155      0.010052      0.006671
      9.79348      2.95518     20.51435        -0.042719     -0.048464     -0.038586
      9.74388      2.96506     23.08260        -0.013911     -0.170675     -0.300087
      1.22564      1.48266     21.95760        -0.016967     -0.006716     -0.047998
     11.78429      1.47856     21.96622         0.099005     -0.008732     -0.061578
      9.75299      5.91519      7.50000        -0.000026     -0.000092      2.218169
      9.75299      5.91519     10.04877         0.000165     -0.000113      1.770599
      1.27438      4.43639      8.77438        -1.988097      0.000012     -0.788352
     11.72960      4.43639      8.77438         1.986243     -0.000010     -0.788207
      0.00000      5.91519     10.75100        -0.000867     -0.000058     -1.361784
      0.00000      5.91519     13.29976         0.000203     -0.000064     -0.144935
     11.02737      4.43639     12.02538         0.420934     -0.000199      0.057397
      1.97661      4.43639     12.02538        -0.425724      0.000206      0.055847
      9.75299      5.91519     14.00199         0.000995     -0.002570     -0.054551
      9.75299      5.91519     16.55076        -0.000012     -0.001016      0.000072
      1.27438      4.43639     15.27637        -0.521847     -0.001578      0.092914
     11.72960      4.43639     15.27637         0.509954     -0.001521      0.107740
      0.00926      5.91548     17.27182         0.008847     -0.001181     -0.069921
      0.00122      5.91566     19.82902         0.019677     -0.000976     -0.235386
     11.06496      4.43305     18.53299         0.030468     -0.001206     -0.016411
      1.95686      4.43612     18.54579         0.174600      0.003578      0.004687
      9.82381      5.91596     20.50897        -0.044836     -0.012216     -0.110200
      9.61782      5.91353     23.08597         0.300092      0.006509     -1.007899
      1.22889      4.43749     21.96090         0.014393     -0.010634     -0.050406
     11.78535      4.44496     21.98766         0.193009     -0.041343     -0.098341
      3.25100      8.87278      7.50000        -0.000797     -0.000126      2.217787
      3.25100      8.87278     10.04877        -0.001212     -0.000166      1.768045
      7.77637      7.39399      8.77438        -1.985626     -0.000340     -0.788679
      5.22761      7.39399      8.77438         1.985796     -0.000334     -0.788846
      6.50199      8.87278     10.75100         0.000032     -0.001935     -1.370053
      6.50199      8.87278     13.29976         0.002608     -0.003964     -0.184172
      4.52538      7.39399     12.02538         0.418329     -0.000648      0.055188
      8.47860      7.39399     12.02538        -0.415652     -0.000925      0.056390
      3.25100      8.87278     14.00199        -0.007004     -0.001265     -0.066208
      3.25100      8.87278     16.55076         0.003433     -0.003983      0.030604
      7.77637      7.39399     15.27637        -0.480150     -0.030996      0.074158
      5.22761      7.39399     15.27637         0.504437     -0.031709      0.092044
      6.51262      8.85852     17.26646         0.007215     -0.096960      0.024150
      6.47675      8.89209     19.79802         0.014433     -0.065279     -0.101756
      4.55234      7.39304     18.54503         0.110117     -0.024066      0.012004
      8.46935      7.39765     18.56226        -0.012720     -0.024589      0.008696
      3.26790      8.86964     20.51810         0.040479     -0.019904      0.100143
      3.26301      8.87091     23.09256         0.003376     -0.015348     -0.334129
      7.76622      7.45121     21.79960        -0.593261     -0.619682      0.409554
      5.30000      7.40158     21.97475         0.279820     -0.328914      0.133385
      3.25100      0.00000      7.50000        -0.000879     -0.000021      2.217731
      3.25100      0.00000     10.04877        -0.001270     -0.000019      1.767520
      7.77637     10.35158      8.77438        -1.985505     -0.000139     -0.788733
      5.22761     10.35158      8.77438         1.985689     -0.000147     -0.788840
      6.50199      0.00000     10.75100         0.000103      0.000455     -1.370873
      6.50199      0.00000     13.29976         0.002077      0.001037     -0.185357
      4.52538     10.35158     12.02538         0.416419     -0.000305      0.054884
      8.47860     10.35158     12.02538        -0.413740      0.000150      0.056275
      3.25100      0.00000     14.00199        -0.006339     -0.001888     -0.068695
      3.25100      0.00000     16.55076        -0.007649      0.001411      0.006682
      7.77637     10.35158     15.27637        -0.479816      0.001393      0.091577
      5.22761     10.35158     15.27637         0.499761     -0.003624      0.099073
      6.50735      0.00182     17.25801         0.004096      0.003694     -0.036563
      6.50606     11.82984     19.80601         0.004805      0.005442     -0.192764
      4.55329     10.35465     18.53632         0.066126     -0.015119     -0.004034
      8.46529     10.34981     18.54362         0.059645     -0.004514     -0.007793
      3.25617     11.83003     20.51732         0.022027      0.010277      0.095449
      3.24762      0.00054     23.09136         0.017845      0.026818     -0.280238
      7.73126     10.35051     21.94070        -0.188219     -0.032935     -0.114182
      5.28083     10.36332     21.95097         0.113288     -0.057806     -0.087651
      3.25100      2.95759      7.50000        -0.000807      0.000130      2.217715
      3.25100      2.95759     10.04877        -0.001181      0.000157      1.767629
      7.77637      1.47880      8.77438        -1.985508      0.000279     -0.788699
      5.22761      1.47880      8.77438         1.985749      0.000264     -0.788851
      6.50199      2.95759     10.75100         0.000068      0.001940     -1.369038
      6.50199      2.95759     13.29976         0.002562      0.004231     -0.174910
      4.52538      1.47880     12.02538         0.416989      0.000267      0.054874
      8.47860      1.47880     12.02538        -0.414041      0.000476      0.056472
      3.25100      2.95759     14.00199        -0.007230      0.001393     -0.069966
      3.25100      2.95759     16.55076         0.005739      0.006237      0.031266
      7.77637      1.47880     15.27637        -0.479644      0.007720      0.093120
      5.22761      1.47880     15.27637         0.503474      0.010043      0.098946
      6.51164      2.97384     17.26993         0.005413      0.092877      0.025665
      6.49062      2.93903     19.80696         0.004474      0.070978     -0.068503
      4.55455      1.47783     18.54083         0.064969      0.018541     -0.003541
      8.46575      1.48099     18.54286         0.055421      0.007073     -0.008024
      3.25503      2.95743     20.51710         0.049169      0.026025      0.119988
      3.26005      2.96052     23.09000         0.041973      0.045431     -0.263273
      7.73188      1.47640     21.94206        -0.195111      0.080011     -0.079138
      5.27971      1.47105     21.94690         0.112186      0.091450     -0.056129
      3.25100      5.91519      7.50000        -0.000776      0.000039      2.217715
      3.25100      5.91519     10.04877        -0.001152      0.000029      1.767858
      7.77637      4.43639      8.77438        -1.985615      0.000196     -0.788734
      5.22761      4.43639      8.77438         1.985851      0.000222     -0.788799
      6.50199      5.91519     10.75100         0.000063     -0.000423     -1.367136
      6.50199      5.91519     13.29976         0.002343     -0.000774     -0.137282
      4.52538      4.43639     12.02538         0.418902      0.000702      0.055166
      8.47860      4.43639     12.02538        -0.415925      0.000350      0.056583
      3.25100      5.91519     14.00199        -0.008595      0.002034     -0.068681
      3.25100      5.91519     16.55076         0.005065     -0.000747      0.036861
      7.77637      4.43639     15.27637        -0.479310      0.024831      0.073949
      5.22761      4.43639     15.27637         0.507452      0.027998      0.090479
      6.51379      5.91397     17.27821         0.004860     -0.003466      0.089372
      6.50129      5.91934     19.84480        -0.075310     -0.036730      0.831171
      4.55311      4.43707     18.55134         0.111766      0.021201      0.015446
      8.46902      4.43627     18.56161        -0.014328      0.018952      0.009061
      3.25382      5.91924     20.51845         0.052780     -0.014860      0.112795
      3.27789      5.91810     23.08995         0.025884     -0.063846     -0.312395
      7.75933      4.39470     21.83016        -0.595552      0.455587      0.389753
      5.28648      4.42570     21.93276         0.322498      0.341349      0.258181
 -----------------------------------------------------------------------------------
    total drift:                                0.098405      0.000056      0.155935


--------------------------------------------------------------------------------------------------------



  FREE ENERGIE OF THE ION-ELECTRON SYSTEM (eV)
  ---------------------------------------------------
  free  energy   TOTEN  =     -2709.99412224 eV

  energy  without entropy=    -2709.99412224  energy(sigma->0) =    -2709.99412224
 


--------------------------------------------------------------------------------------------------------


    POTLOK:  cpu time      1.1227: real time      1.1257


--------------------------------------------------------------------------------------------------------


     LOOP+:  cpu time   1304.5234: real time   1311.6296
    4ORBIT:  cpu time      0.0000: real time      0.0000

 total amount of memory used by VASP MPI-rank0   202298. kBytes
=======================================================================

   base      :      30000. kBytes
   nonl-proj :      41293. kBytes
   fftplans  :       7416. kBytes
   grid      :      16539. kBytes
   one-center:        202. kBytes
   wavefun   :     106848. kBytes
 
  
  
 General timing and accounting informations for this job:
 ========================================================
  
                  Total CPU time used (sec):     1337.580
                            User time (sec):     1279.915
                          System time (sec):       57.665
                         Elapsed time (sec):     1345.538
  
                   Maximum memory used (kb):      849924.
                   Average memory used (kb):          N/A
  
                          Minor page faults:       111939
                          Major page faults:           78
                 Voluntary context switches:         3037
