 vasp.6.3.0 20Jan22 (build Apr  1 2022 16:44:48) complex                         
 executed on        HPECrayEX_GCC date 2023.03.02  03:41:02
 running  512 mpi-ranks, with    1 threads/rank
 distrk:  each k-point on  512 cores,    1 groups
 distr:  one band on NCORE=   8 cores,   64 groups


--------------------------------------------------------------------------------------------------------


 INCAR:
   SYSTEM = MgO-rocksalt
   ISMEAR = 0
   SIGMA = 0.05
   EDIFF = 1E-6
   ALGO = ALL
   ISTART = 0
   IBRION = -1
   NSW = 0
   ISYM = 0
   DIPOL = 0.5 0.5 0.5
   IDIPOL = 3
   LDIPOL = .TRUE.
   GGA = RE
   IVDW = 13
   VDW_S8 = 1.7468
   VDW_A1 = 0.5363
   VDW_A2 = 3.0726
   ENCUT = 600
   PREC = Accurate
   LASPH = .TRUE.
   LREAL = .FALSE.
   ISPIN = 1
   NELM = 200
   NELMIN = 8
   NCORE = 8
   KPAR = 1
   LWAVE = .FALSE.
   LCHARG = .FALSE.

 POTCAR:    PAW_PBE Mg_pv 13Apr2007               
 POTCAR:    PAW_PBE O 08Apr2002                   
 POTCAR:    PAW_PBE Mg_pv 13Apr2007               
   SHA256 =  f474ac0dd33840b9ae76c01d57fea79fdf77cdfbb07d5ade72c65f83c709b62b Mg_pv/POTCAR          
   COPYR  = (c) Copyright 13Apr2007 Georg Kresse                                                    
   COPYR  = This file is part of the software VASP. Any use, copying, and all other rights are regul
   COPYR  = If you do not have a valid VASP license, you may not use, copy or distribute this file. 
   VRHFIN =Mg: p6s2                                                                                 
   LEXCH  = PE                                                                                      
   EATOM  =  1056.7344 eV,   77.6678 Ry                                                             
                                                                                                    
   TITEL  = PAW_PBE Mg_pv 13Apr2007                                                                 
   LULTRA =        F    use ultrasoft PP ?                                                          
   IUNSCR =        1    unscreen: 0-lin 1-nonlin 2-no                                               
   RPACOR =    1.500    partial core radius                                                         
   POMASS =   24.305; ZVAL   =    8.000    mass and valenz                                          
   RCORE  =    2.000    outmost cutoff radius                                                       
   RWIGS  =    2.000; RWIGS  =    1.058    wigner-seitz radius (au A)                               
   ENMAX  =  403.929; ENMIN  =  302.947 eV                                                          
   RCLOC  =    1.506    cutoff for local pot                                                        
   LCOR   =        T    correct aug charges                                                         
   LPAW   =        T    paw PP                                                                      
   EAUG   =  758.780                                                                                
   DEXC   =    0.000                                                                                
   RMAX   =    2.045    core radius for proj-oper                                                   
   RAUG   =    1.300    factor for augmentation sphere                                              
   RDEP   =    2.025    radius for radial grids                                                     
   RDEPT  =    1.557    core radius for aug-charge                                                  
                                                                                                    
   Atomic configuration                                                                             
    5 entries                                                                                       
     n  l   j            E        occ.                                                              
     1  0  0.50     -1259.6230   2.0000                                                             
     2  0  0.50       -79.8442   2.0000                                                             
     2  1  1.50       -46.6121   6.0000                                                             
     3  0  0.50        -4.7055   2.0000                                                             
     3  2  1.50        -1.3606   0.0000                                                             
   Description                                                                                      
     l       E           TYP  RCUT    TYP  RCUT                                                     
     1    -46.6121073     23  1.600                                                                 
     1      2.7211652     23  1.600                                                                 
     0     -4.7054661     23  2.000                                                                 
     0     61.2262170     23  2.000                                                                 
     2     -1.3605826     23  2.000                                                                 
  local pseudopotential read in
  partial core-charges read in
  partial kinetic energy density read in
  atomic valenz-charges read in
  non local Contribution for L=           1  read in
    real space projection operators read in
  non local Contribution for L=           1  read in
    real space projection operators read in
  non local Contribution for L=           0  read in
    real space projection operators read in
  non local Contribution for L=           0  read in
    real space projection operators read in
  non local Contribution for L=           2  read in
    real space projection operators read in
    PAW grid and wavefunctions read in

   number of l-projection  operators is LMAX  =           5
   number of lm-projection operators is LMMAX =          13

 POTCAR:    PAW_PBE O 08Apr2002                   
   SHA256 =  818f92134a0a090dccd8ba1447fa70422a3b330e708bb4f08108d8ae51209ddf O/POTCAR              
   COPYR  = (c) Copyright 08Apr2002 Georg Kresse                                                    
   COPYR  = This file is part of the software VASP. Any use, copying, and all other rights are regul
   COPYR  = If you do not have a valid VASP license, you may not use, copy or distribute this file. 
   VRHFIN =O: s2p4                                                                                  
   LEXCH  = PE                                                                                      
   EATOM  =   432.3788 eV,   31.7789 Ry                                                             
                                                                                                    
   TITEL  = PAW_PBE O 08Apr2002                                                                     
   LULTRA =        F    use ultrasoft PP ?                                                          
   IUNSCR =        1    unscreen: 0-lin 1-nonlin 2-no                                               
   RPACOR =    1.200    partial core radius                                                         
   POMASS =   16.000; ZVAL   =    6.000    mass and valenz                                          
   RCORE  =    1.520    outmost cutoff radius                                                       
   RWIGS  =    1.550; RWIGS  =    0.820    wigner-seitz radius (au A)                               
   ENMAX  =  400.000; ENMIN  =  300.000 eV                                                          
   ICORE  =        2    local potential                                                             
   LCOR   =        T    correct aug charges                                                         
   LPAW   =        T    paw PP                                                                      
   EAUG   =  605.392                                                                                
   DEXC   =    0.000                                                                                
   RMAX   =    1.553    core radius for proj-oper                                                   
   RAUG   =    1.300    factor for augmentation sphere                                              
   RDEP   =    1.550    radius for radial grids                                                     
   RDEPT  =    1.329    core radius for aug-charge                                                  
                                                                                                    
   Atomic configuration                                                                             
    4 entries                                                                                       
     n  l   j            E        occ.                                                              
     1  0  0.50      -514.6923   2.0000                                                             
     2  0  0.50       -23.9615   2.0000                                                             
     2  1  0.50        -9.0305   4.0000                                                             
     3  2  1.50        -9.5241   0.0000                                                             
   Description                                                                                      
     l       E           TYP  RCUT    TYP  RCUT                                                     
     0    -23.9615318     23  1.200                                                                 
     0     -9.5240782     23  1.200                                                                 
     1     -9.0304911     23  1.520                                                                 
     1      8.1634956     23  1.520                                                                 
     2     -9.5240782      7  1.500                                                                 
  local pseudopotential read in
  partial core-charges read in
  partial kinetic energy density read in
  kinetic energy density of atom read in
  atomic valenz-charges read in
  non local Contribution for L=           0  read in
    real space projection operators read in
  non local Contribution for L=           0  read in
    real space projection operators read in
  non local Contribution for L=           1  read in
    real space projection operators read in
  non local Contribution for L=           1  read in
    real space projection operators read in
    PAW grid and wavefunctions read in

   number of l-projection  operators is LMAX  =           4
   number of lm-projection operators is LMMAX =           8

 -----------------------------------------------------------------------------
|                                                                             |
|               ----> ADVICE to this user running VASP <----                  |
|                                                                             |
|     You have a (more or less) 'large supercell' and for larger cells it     |
|     might be more efficient to use real-space projection operators.         |
|     Therefore, try LREAL= Auto in the INCAR file.                           |
|     Mind: For very accurate calculation, you might also keep the            |
|     reciprocal projection scheme (i.e. LREAL=.FALSE.).                      |
|                                                                             |
 -----------------------------------------------------------------------------

 -----------------------------------------------------------------------------
|                                                                             |
|               ----> ADVICE to this user running VASP <----                  |
|                                                                             |
|     You enforced a specific xc type in the INCAR file but a different       |
|     type was found in the POTCAR file.                                      |
|     I HOPE YOU KNOW WHAT YOU ARE DOING!                                     |
|                                                                             |
 -----------------------------------------------------------------------------

  PAW_PBE Mg_pv 13Apr2007               :
 energy of atom  1       EATOM=-1056.7344
 kinetic energy error for atom=    0.0221 (will be added to EATOM!!)
  PAW_PBE O 08Apr2002                   :
 energy of atom  2       EATOM= -432.3788
 kinetic energy error for atom=    0.0168 (will be added to EATOM!!)


 POSCAR: Mg  O
  positions in direct lattice
  No initial velocities read in
 -----------------------------------------------------------------------------
|                                                                             |
|           W    W    AA    RRRRR   N    N  II  N    N   GGGG   !!!           |
|           W    W   A  A   R    R  NN   N  II  NN   N  G    G  !!!           |
|           W    W  A    A  R    R  N N  N  II  N N  N  G       !!!           |
|           W WW W  AAAAAA  RRRRR   N  N N  II  N  N N  G  GGG   !            |
|           WW  WW  A    A  R   R   N   NN  II  N   NN  G    G                |
|           W    W  A    A  R    R  N    N  II  N    N   GGGG   !!!           |
|                                                                             |
|     Specifying the vdW parameters                                           |
|     VDW_S8 = 1.747                                                          |
|     VDW_A1 = 0.536                                                          |
|     VDW_A2 = 3.073                                                          |
|     in the INCAR file will overwrite the defaults for revpbe. Please        |
|     make sure that is what you intended.                                    |
|                                                                             |
 -----------------------------------------------------------------------------

 exchange correlation table for  LEXCH =       40
   RHO(1)=    0.500       N(1)  =     2000
   RHO(2)=  100.500       N(2)  =     4000



--------------------------------------------------------------------------------------------------------


 ion  position               nearest neighbor table
   1  0.250  0.000  0.352-  33 2.11  35 2.11  36 2.11  43 2.11  52 2.11
   2  0.500  0.250  0.352-  34 2.11  35 2.11  36 2.11  44 2.11  51 2.11
   3  0.250  0.250  0.451-  35 2.11  34 2.11  33 2.11  41 2.11  50 2.11  39 2.11
   4  0.500  0.000  0.451-  36 2.11  34 2.11  33 2.11  42 2.11  49 2.11  40 2.11
   5  0.250  1.000  0.550-  56 2.11  47 2.11  40 2.11  39 2.11  33 2.12  37 2.14
   6  0.500  0.250  0.550-  55 2.11  40 2.11  39 2.11  48 2.11  34 2.12  38 2.13
   7  0.250  0.250  0.648-  39 2.10  54 2.11  45 2.11  38 2.11  37 2.11
   8  0.500  0.000  0.648-  40 2.10  38 2.11  37 2.11  53 2.11  46 2.12
   9  0.250  0.500  0.352-  41 2.11  35 2.11  43 2.11  44 2.11  60 2.11
  10  0.500  0.750  0.352-  42 2.11  36 2.11  43 2.11  44 2.11  59 2.11
  11  0.250  0.750  0.451-  43 2.11  41 2.11  42 2.11  33 2.11  58 2.11  47 2.11
  12  0.500  0.500  0.451-  44 2.11  41 2.11  42 2.11  34 2.11  57 2.11  48 2.11
  13  0.250  0.500  0.550-  47 2.11  64 2.11  39 2.11  48 2.11  41 2.12  45 2.13
  14  0.500  0.750  0.550-  63 2.11  40 2.11  48 2.11  47 2.11  42 2.13  46 2.14
  15  0.250  0.750  0.648-  47 2.10  62 2.10  46 2.11  45 2.11  37 2.11
  16  0.499  0.499  0.648-  48 2.09  45 2.10  38 2.10  61 2.12  46 2.12
  17  0.750  0.000  0.352-  49 2.11  36 2.11  51 2.11  52 2.11  59 2.11
  18  0.000  0.250  0.352-  50 2.11  35 2.11  51 2.11  52 2.11  60 2.11
  19  0.750  0.250  0.451-  51 2.11  49 2.11  50 2.11  34 2.11  57 2.11  55 2.11
  20  0.000  0.000  0.451-  52 2.11  49 2.11  50 2.11  33 2.11  58 2.11  56 2.11
  21  0.750  1.000  0.550-  63 2.11  56 2.11  40 2.11  55 2.11  49 2.12  53 2.13
  22  1.000  0.250  0.550-  55 2.11  56 2.11  64 2.11  39 2.11  50 2.12  54 2.14
  23  0.750  0.250  0.648-  55 2.10  53 2.10  61 2.11  38 2.11  54 2.11
  24  0.000  0.000  0.648-  56 2.10  54 2.11  37 2.11  53 2.11  62 2.11
  25  0.750  0.500  0.352-  57 2.11  51 2.11  44 2.11  59 2.11  60 2.11
  26  0.000  0.750  0.352-  58 2.11  52 2.11  43 2.11  59 2.11  60 2.11
  27  0.750  0.750  0.451-  59 2.11  49 2.11  57 2.11  58 2.11  42 2.11  63 2.12
  28  0.000  0.500  0.451-  60 2.11  50 2.11  57 2.11  58 2.11  41 2.11  64 2.12
  29  0.750  0.500  0.550-  63 2.11  64 2.11  48 2.11  55 2.11  57 2.13  61 2.15
  30  1.000  0.750  0.550-  63 2.11  56 2.11  64 2.11  47 2.11  58 2.12  62 2.13
  31  0.751  0.751  0.650-  62 2.11  53 2.11  61 2.12  63 2.12  46 2.12
  32  1.000  0.500  0.648-  64 2.10  45 2.11  54 2.11  62 2.11  61 2.12
  33  0.250  0.000  0.451-   1 2.11   3 2.11   4 2.11  11 2.11  20 2.11   5 2.12
  34  0.500  0.250  0.451-   2 2.11   3 2.11   4 2.11  12 2.11  19 2.11   6 2.12
  35  0.250  0.250  0.352-   3 2.11   2 2.11   1 2.11   9 2.11  18 2.11
  36  0.500  0.000  0.352-   4 2.11   2 2.11   1 2.11  10 2.11  17 2.11
  37  0.250  0.000  0.650-   7 2.11  24 2.11   8 2.11  15 2.11   5 2.14
  38  0.500  0.250  0.650-  16 2.10   8 2.11   7 2.11  23 2.11   6 2.13
  39  0.250  0.250  0.550-   7 2.10  13 2.11   6 2.11   5 2.11  22 2.11   3 2.11
  40  0.500  1.000  0.550-   8 2.10  14 2.11   6 2.11   5 2.11  21 2.11   4 2.11
  41  0.250  0.500  0.451-   9 2.11   3 2.11  11 2.11  12 2.11  28 2.11  13 2.12
  42  0.500  0.750  0.451-  10 2.11   4 2.11  11 2.11  12 2.11  27 2.11  14 2.13
  43  0.250  0.750  0.352-  11 2.11   9 2.11  10 2.11   1 2.11  26 2.11
  44  0.500  0.500  0.352-  12 2.11   9 2.11  10 2.11   2 2.11  25 2.11
  45  0.250  0.500  0.650-  16 2.10  32 2.11   7 2.11  15 2.11  13 2.13
  46  0.499  0.750  0.651-  15 2.11   8 2.12  16 2.12  31 2.12  14 2.14
  47  0.250  0.750  0.550-  15 2.10  13 2.11   5 2.11  14 2.11  30 2.11  11 2.11
  48  0.500  0.500  0.550-  16 2.09  29 2.11  14 2.11   6 2.11  13 2.11  12 2.11
  49  0.750  0.000  0.451-  17 2.11   4 2.11  19 2.11  20 2.11  27 2.11  21 2.12
  50  0.000  0.250  0.451-  18 2.11   3 2.11  19 2.11  20 2.11  28 2.11  22 2.12
  51  0.750  0.250  0.352-  19 2.11  17 2.11  18 2.11   2 2.11  25 2.11
  52  0.000  0.000  0.352-  20 2.11  17 2.11  18 2.11   1 2.11  26 2.11
  53  0.750  0.001  0.650-  23 2.10  31 2.11  24 2.11   8 2.11  21 2.13
  54  1.000  0.250  0.650-   7 2.11  24 2.11  32 2.11  23 2.11  22 2.14
  55  0.750  0.250  0.550-  23 2.10   6 2.11  22 2.11  29 2.11  21 2.11  19 2.11
  56  1.000  0.000  0.550-  24 2.10   5 2.11  21 2.11  22 2.11  30 2.11  20 2.11
  57  0.750  0.500  0.451-  25 2.11  19 2.11  12 2.11  27 2.11  28 2.11  29 2.13
  58  0.000  0.750  0.451-  26 2.11  20 2.11  11 2.11  27 2.11  28 2.11  30 2.12
  59  0.750  0.750  0.352-  27 2.11  17 2.11  25 2.11  26 2.11  10 2.11
  60  0.000  0.500  0.352-  28 2.11  18 2.11  25 2.11  26 2.11   9 2.11
  61  0.749  0.500  0.651-  23 2.11  32 2.12  16 2.12  31 2.12  29 2.15
  62  0.001  0.750  0.650-  15 2.10  31 2.11  24 2.11  32 2.11  30 2.13
  63  0.750  0.750  0.550-  29 2.11  14 2.11  30 2.11  21 2.11  27 2.12  31 2.12
  64  1.000  0.500  0.550-  32 2.10  29 2.11  13 2.11  22 2.11  30 2.11  28 2.12


IMPORTANT INFORMATION: All symmetrisations will be switched off!
NOSYMM: (Re-)initialisation of all symmetry stuff for point group C_1.


----------------------------------------------------------------------------------------

                                     Primitive cell                                     

  volume of cell :    1519.6535

  direct lattice vectors                    reciprocal lattice vectors
     8.440582262  0.000000000  0.000000000     0.118475239  0.000000000  0.000000000
     0.000000000  8.440582262  0.000000000     0.000000000  0.118475239  0.000000000
     0.000000000  0.000000000 21.330436697     0.000000000  0.000000000  0.046881366

  length of vectors
     8.440582262  8.440582262 21.330436697     0.118475239  0.118475239  0.046881366

  position of ions in fractional coordinates (direct lattice)
     0.250000000  0.000000000  0.351610242
     0.500000000  0.250000000  0.351610242
     0.250000000  0.250000000  0.450536747
     0.500000000  0.000000000  0.450536747
     0.249885421  0.999852342  0.549868399
     0.499930520  0.249734412  0.549816505
     0.249763368  0.249890506  0.648214976
     0.499876593  0.000129797  0.648171809
     0.250000000  0.500000000  0.351610242
     0.500000000  0.750000000  0.351610242
     0.250000000  0.750000000  0.450536747
     0.500000000  0.500000000  0.450536747
     0.249631850  0.499995760  0.549824823
     0.500237370  0.749975151  0.550160809
     0.249657077  0.749879999  0.648169760
     0.498553617  0.498683392  0.647838422
     0.750000000  0.000000000  0.351610242
     0.000000000  0.250000000  0.351610242
     0.750000000  0.250000000  0.450536747
     0.000000000  0.000000000  0.450536747
     0.750046386  0.999809490  0.550039618
     0.999776120  0.249975237  0.549880660
     0.749770310  0.249802537  0.648196839
     0.000003756  0.000132777  0.648249479
     0.750000000  0.500000000  0.351610242
     0.000000000  0.750000000  0.351610242
     0.750000000  0.750000000  0.450536747
     0.000000000  0.500000000  0.450536747
     0.749907380  0.500319163  0.550169054
     0.999721226  0.750089047  0.550042489
     0.751046044  0.751177024  0.649539815
     0.999970556  0.499993944  0.648240051
     0.250000000  0.000000000  0.450536747
     0.500000000  0.250000000  0.450536747
     0.250000000  0.250000000  0.351610242
     0.500000000  0.000000000  0.351610242
     0.249913481  0.000011034  0.650112911
     0.499652670  0.249677156  0.649878529
     0.249889289  0.249955523  0.549568943
     0.499940104  0.999800137  0.549666826
     0.250000000  0.500000000  0.450536747
     0.500000000  0.750000000  0.450536747
     0.250000000  0.750000000  0.351610242
     0.500000000  0.500000000  0.351610242
     0.249548089  0.499769249  0.649855678
     0.499472445  0.749592756  0.650686351
     0.250068798  0.749907739  0.549640893
     0.499882767  0.499942880  0.549664806
     0.750000000  0.000000000  0.450536747
     0.000000000  0.250000000  0.450536747
     0.750000000  0.250000000  0.351610242
     0.000000000  0.000000000  0.351610242
     0.749971397  0.000700201  0.649912281
     0.999899833  0.250030779  0.650121715
     0.749837728  0.250171312  0.549651698
     0.999968535  0.000034524  0.549641266
     0.750000000  0.500000000  0.450536747
     0.000000000  0.750000000  0.450536747
     0.750000000  0.750000000  0.351610242
     0.000000000  0.500000000  0.351610242
     0.749370858  0.499665800  0.650761115
     0.000546248  0.750087472  0.649952710
     0.749870825  0.749932270  0.549999218
     0.999698564  0.500009834  0.549691597

  ion indices of the primitive-cell ions
   primitive index   ion index
                 1           1
                 2           2
                 3           3
                 4           4
                 5           5
                 6           6
                 7           7
                 8           8
                 9           9
                10          10
                11          11
                12          12
                13          13
                14          14
                15          15
                16          16
                17          17
                18          18
                19          19
                20          20
                21          21
                22          22
                23          23
                24          24
                25          25
                26          26
                27          27
                28          28
                29          29
                30          30
                31          31
                32          32
                33          33
                34          34
                35          35
                36          36
                37          37
                38          38
                39          39
                40          40
                41          41
                42          42
                43          43
                44          44
                45          45
                46          46
                47          47
                48          48
                49          49
                50          50
                51          51
                52          52
                53          53
                54          54
                55          55
                56          56
                57          57
                58          58
                59          59
                60          60
                61          61
                62          62
                63          63
                64          64

----------------------------------------------------------------------------------------



 KPOINTS: pymatgen v2020.8.13 with grid density = 

Automatic generation of k-mesh.
 Grid dimensions read from file:
 generate k-points for:    2    2    1

 Generating k-lattice:

  Cartesian coordinates                     Fractional coordinates (reciprocal lattice)
     0.059237619  0.000000000  0.000000000     0.500000000  0.000000000  0.000000000
     0.000000000  0.059237619  0.000000000     0.000000000  0.500000000  0.000000000
     0.000000000  0.000000000  0.046881366     0.000000000  0.000000000  1.000000000

  Length of vectors
     0.059237619  0.059237619  0.046881366

  Shift w.r.t. Gamma in fractional coordinates (k-lattice)
     0.000000000  0.000000000  0.000000000

 
 Subroutine IBZKPT returns following result:
 ===========================================
 
 Found      4 irreducible k-points:
 
 Following reciprocal coordinates:
            Coordinates               Weight
  0.000000  0.000000  0.000000      1.000000
  0.500000  0.000000  0.000000      1.000000
  0.000000  0.500000  0.000000      1.000000
  0.500000  0.500000  0.000000      1.000000
 
 Following cartesian coordinates:
            Coordinates               Weight
  0.000000  0.000000  0.000000      1.000000
  0.059238  0.000000  0.000000      1.000000
  0.000000  0.059238  0.000000      1.000000
  0.059238  0.059238  0.000000      1.000000
 


--------------------------------------------------------------------------------------------------------




 Dimension of arrays:
   k-points           NKPTS =      4   k-points in BZ     NKDIM =      4   number of bands    NBANDS=    320
   number of dos      NEDOS =    301   number of ions     NIONS =     64
   non local maximal  LDIM  =      5   non local SUM 2l+1 LMDIM =     13
   total plane-waves  NPLWV = 882000
   max r-space proj   IRMAX =      1   max aug-charges    IRDMAX=  11637
   dimension x,y,z NGX =    70 NGY =   70 NGZ =  180
   dimension x,y,z NGXF=   140 NGYF=  140 NGZF=  360
   support grid    NGXF=   140 NGYF=  140 NGZF=  360
   ions per type =              32  32
   NGX,Y,Z   is equivalent  to a cutoff of  13.79, 13.79, 14.03 a.u.
   NGXF,Y,Z  is equivalent  to a cutoff of  27.57, 27.57, 28.06 a.u.

 SYSTEM =  MgO-rocksalt                            
 POSCAR =  Mg  O                                   

--------------------------------------------------------------------------------------------------------


  energy-cutoff  :      600.00
  volume of cell :     1519.65
      direct lattice vectors                 reciprocal lattice vectors
     8.440582262  0.000000000  0.000000000     0.118475239  0.000000000  0.000000000
     0.000000000  8.440582262  0.000000000     0.000000000  0.118475239  0.000000000
     0.000000000  0.000000000 21.330436697     0.000000000  0.000000000  0.046881366

  length of vectors
     8.440582262  8.440582262 21.330436697     0.118475239  0.118475239  0.046881366



 k-points in units of 2pi/SCALE and weight: pymatgen v2020.8.13 with grid density = 
   0.00000000  0.00000000  0.00000000       0.250
   0.05923762  0.00000000  0.00000000       0.250
   0.00000000  0.05923762  0.00000000       0.250
   0.05923762  0.05923762  0.00000000       0.250

 k-points in reciprocal lattice and weights: pymatgen v2020.8.13 with grid density = 
   0.00000000  0.00000000  0.00000000       0.250
   0.50000000  0.00000000  0.00000000       0.250
   0.00000000  0.50000000  0.00000000       0.250
   0.50000000  0.50000000  0.00000000       0.250

 position of ions in fractional coordinates (direct lattice) 
   0.25000000  0.00000000  0.35161024
   0.50000000  0.25000000  0.35161024
   0.25000000  0.25000000  0.45053675
   0.50000000  0.00000000  0.45053675
   0.24988542  0.99985234  0.54986840
   0.49993052  0.24973441  0.54981651
   0.24976337  0.24989051  0.64821498
   0.49987659  0.00012980  0.64817181
   0.25000000  0.50000000  0.35161024
   0.50000000  0.75000000  0.35161024
   0.25000000  0.75000000  0.45053675
   0.50000000  0.50000000  0.45053675
   0.24963185  0.49999576  0.54982482
   0.50023737  0.74997515  0.55016081
   0.24965708  0.74988000  0.64816976
   0.49855362  0.49868339  0.64783842
   0.75000000  0.00000000  0.35161024
   0.00000000  0.25000000  0.35161024
   0.75000000  0.25000000  0.45053675
   0.00000000  0.00000000  0.45053675
   0.75004639  0.99980949  0.55003962
   0.99977612  0.24997524  0.54988066
   0.74977031  0.24980254  0.64819684
   0.00000376  0.00013278  0.64824948
   0.75000000  0.50000000  0.35161024
   0.00000000  0.75000000  0.35161024
   0.75000000  0.75000000  0.45053675
   0.00000000  0.50000000  0.45053675
   0.74990738  0.50031916  0.55016905
   0.99972123  0.75008905  0.55004249
   0.75104604  0.75117702  0.64953982
   0.99997056  0.49999394  0.64824005
   0.25000000  0.00000000  0.45053675
   0.50000000  0.25000000  0.45053675
   0.25000000  0.25000000  0.35161024
   0.50000000  0.00000000  0.35161024
   0.24991348  0.00001103  0.65011291
   0.49965267  0.24967716  0.64987853
   0.24988929  0.24995552  0.54956894
   0.49994010  0.99980014  0.54966683
   0.25000000  0.50000000  0.45053675
   0.50000000  0.75000000  0.45053675
   0.25000000  0.75000000  0.35161024
   0.50000000  0.50000000  0.35161024
   0.24954809  0.49976925  0.64985568
   0.49947244  0.74959276  0.65068635
   0.25006880  0.74990774  0.54964089
   0.49988277  0.49994288  0.54966481
   0.75000000  0.00000000  0.45053675
   0.00000000  0.25000000  0.45053675
   0.75000000  0.25000000  0.35161024
   0.00000000  0.00000000  0.35161024
   0.74997140  0.00070020  0.64991228
   0.99989983  0.25003078  0.65012171
   0.74983773  0.25017131  0.54965170
   0.99996854  0.00003452  0.54964127
   0.75000000  0.50000000  0.45053675
   0.00000000  0.75000000  0.45053675
   0.75000000  0.75000000  0.35161024
   0.00000000  0.50000000  0.35161024
   0.74937086  0.49966580  0.65076112
   0.00054625  0.75008747  0.64995271
   0.74987082  0.74993227  0.54999922
   0.99969856  0.50000983  0.54969160

 position of ions in cartesian coordinates  (Angst):
   2.11014557  0.00000000  7.50000000
   4.22029113  2.11014557  7.50000000
   2.11014557  2.11014557  9.61014557
   4.22029113  0.00000000  9.61014557
   2.10917845  8.43933595 11.72893308
   4.21970468  2.10790385 11.72782616
   2.10814825  2.10922137 13.82670851
   4.21924951  0.00109556 13.82578775
   2.11014557  4.22029113  7.50000000
   4.22029113  6.33043670  7.50000000
   2.11014557  6.33043670  9.61014557
   4.22029113  4.22029113  9.61014557
   2.10703817  4.22025534 11.72800358
   4.22229467  6.33022696 11.73517031
   2.10725109  6.32942382 13.82574403
   4.20808281  4.20917819 13.81867644
   6.33043670  0.00000000  7.50000000
   0.00000000  2.11014557  7.50000000
   6.33043670  2.11014557  9.61014557
   0.00000000  0.00000000  9.61014557
   6.33082822  8.43897425 11.73258526
   8.43869258  2.10993655 11.72919462
   6.32849798  2.10847887 13.82632165
   0.00003170  0.00112071 13.82744447
   6.33043670  4.22029113  7.50000000
   0.00000000  6.33043670  7.50000000
   6.33043670  6.33043670  9.61014557
   0.00000000  4.22029113  9.61014557
   6.32965493  4.22298505 11.73534618
   8.43822925  6.33118830 11.73264650
   6.33926591  6.34037146 13.85496791
   8.44033374  4.22024001 13.82724337
   2.11014557  0.00000000  9.61014557
   4.22029113  2.11014557  9.61014557
   2.11014557  2.11014557  7.50000000
   4.22029113  0.00000000  7.50000000
   2.10941529  0.00009314 13.86719229
   4.21735947  2.10742057 13.86219283
   2.10921110  2.10977016 11.72254555
   4.21978558  8.43889530 11.72463343
   2.11014557  4.22029113  9.61014557
   4.22029113  6.33043670  9.61014557
   2.11014557  6.33043670  7.50000000
   4.22029113  4.22029113  7.50000000
   2.10633117  4.21834345 13.86170540
   4.21583826  6.32699932 13.87942402
   2.11072626  6.32965796 11.72408028
   4.21930161  4.21980900 11.72459035
   6.33043670  0.00000000  9.61014557
   0.00000000  2.11014557  9.61014557
   6.33043670  2.11014557  7.50000000
   0.00000000  0.00000000  7.50000000
   6.33019527  0.00591010 13.86291276
   8.43973680  2.11040536 13.86738009
   6.32906703  2.11159154 11.72431074
   8.44031668  0.00029140 11.72408824
   6.33043670  4.22029113  9.61014557
   0.00000000  6.33043670  9.61014557
   6.33043670  6.33043670  7.50000000
   0.00000000  4.22029113  7.50000000
   6.32512637  4.21747029 13.88101877
   0.00461066  6.33117501 13.86377513
   6.32934638  6.32986501 11.73172350
   8.43803797  4.22037414 11.72516181



--------------------------------------------------------------------------------------------------------

--------------------------------------- Iteration      FINAL  ---------------------------------------


--------------------OUTCAR has been truncated-------------------------


--------------------OUTCAR has been truncated-------------------------


--------------------OUTCAR has been truncated-------------------------


--------------------OUTCAR has been truncated-------------------------


--------------------OUTCAR has been truncated-------------------------


--------------------OUTCAR has been truncated-------------------------


--------------------OUTCAR has been truncated-------------------------


--------------------OUTCAR has been truncated-------------------------


--------------------OUTCAR has been truncated-------------------------


--------------------OUTCAR has been truncated-------------------------



  FORCE on cell =-STRESS in cart. coord.  units (eV):
  Direction    XX          YY          ZZ          XY          YZ          ZX
  --------------------------------------------------------------------------------------
  Alpha Z   875.35513   875.35513   875.35513
  Ewald  161553.53917161553.54181************    -0.08560    -0.26515    -0.71096
  Hartree171636.53762171636.54001************    -0.05806    -0.14500    -0.39768
  E(xc)   -2465.54432 -2465.54432 -2473.77018    -0.00016    -0.00065    -0.00217
  Local  ************************343447.17387     0.14511     0.40720     1.10768
  n-local -2795.22240 -2795.22242 -2815.73237    -0.00088    -0.00619    -0.02114
  augment  1046.56572  1046.56571  1037.12468    -0.00104    -0.00081    -0.00392
  Kinetic  7310.41141  7310.41143  7350.58699     0.00066     0.03500     0.12697
  Fock        0.00000     0.00000     0.00000     0.00000     0.00000     0.00000
  vdW       -21.53649   -21.53651   -16.20703     0.00010     0.00026     0.00082
  -------------------------------------------------------------------------------------
  Total     -25.80896   -25.80917     0.16391     0.00013     0.02465     0.09960
  in kB     -27.21050   -27.21073     0.17281     0.00014     0.02599     0.10501
  external pressure =      -18.08 kB  Pullay stress =        0.00 kB


 VOLUME and BASIS-vectors are now :
 -----------------------------------------------------------------------------
  energy-cutoff  :      600.00
  volume of cell :     1519.65
      direct lattice vectors                 reciprocal lattice vectors
     8.440582262  0.000000000  0.000000000     0.118475239  0.000000000  0.000000000
     0.000000000  8.440582262  0.000000000     0.000000000  0.118475239  0.000000000
     0.000000000  0.000000000 21.330436697     0.000000000  0.000000000  0.046881366

  length of vectors
     8.440582262  8.440582262 21.330436697     0.118475239  0.118475239  0.046881366


 FORCES acting on ions:
    Electron-Ion                     Ewald-Force                    Non-Local-Force
 -----------------------------------------------------------------------------------------------
   -.257E-01 0.107E+00 0.207E+04   0.266E-01 -.109E+00 -.206E+04   -.598E-03 0.165E-02 -.716E+01
   -.111E+00 -.332E-01 0.207E+04   0.113E+00 0.335E-01 -.206E+04   -.128E-02 -.156E-03 -.715E+01
   0.111E-01 -.255E-01 0.686E+03   -.222E-01 0.174E-01 -.686E+03   0.754E-02 0.562E-02 0.428E+00
   -.452E+00 0.650E+00 0.685E+03   0.457E+00 -.692E+00 -.686E+03   -.368E-02 0.293E-01 0.474E+00
   -.405E+00 0.395E+00 -.689E+03   0.403E+00 -.393E+00 0.689E+03   0.762E-02 0.553E-02 -.267E+00
   -.502E+00 -.282E+00 -.687E+03   0.508E+00 0.269E+00 0.687E+03   -.888E-02 0.206E-01 -.295E+00
   0.319E+00 0.371E+00 -.206E+04   -.374E+00 -.431E+00 0.205E+04   0.387E-01 0.421E-01 0.637E+01
   -.204E+00 0.228E+01 -.206E+04   0.410E-01 -.226E+01 0.205E+04   0.128E+00 -.547E-01 0.635E+01
   -.257E-01 -.107E+00 0.207E+04   0.257E-01 0.109E+00 -.206E+04   0.608E-04 -.138E-02 -.715E+01
   -.131E+00 0.315E-01 0.207E+04   0.135E+00 -.326E-01 -.206E+04   -.241E-02 0.798E-03 -.717E+01
   -.228E+00 0.230E-01 0.685E+03   0.251E+00 -.208E-01 -.686E+03   -.161E-01 -.184E-02 0.453E+00
   -.666E+00 -.662E+00 0.685E+03   0.692E+00 0.690E+00 -.685E+03   -.191E-01 -.202E-01 0.468E+00
   -.259E+00 -.485E+00 -.687E+03   0.243E+00 0.489E+00 0.687E+03   0.241E-01 -.735E-02 -.305E+00
   -.138E+01 0.516E+00 -.694E+03   0.147E+01 -.508E+00 0.694E+03   -.813E-01 -.177E-01 -.278E+00
   -.177E+01 -.170E+00 -.206E+04   0.188E+01 0.221E+00 0.205E+04   -.591E-01 -.380E-01 0.630E+01
   -.350E+01 -.364E+01 -.205E+04   0.354E+01 0.366E+01 0.205E+04   0.758E-01 0.897E-01 0.626E+01
   0.262E-01 0.129E+00 0.207E+04   -.272E-01 -.132E+00 -.206E+04   0.712E-03 0.220E-02 -.716E+01
   0.109E+00 -.334E-01 0.207E+04   -.112E+00 0.345E-01 -.206E+04   0.179E-02 -.788E-03 -.716E+01
   -.253E-01 -.241E+00 0.685E+03   0.251E-01 0.269E+00 -.686E+03   -.254E-03 -.196E-01 0.457E+00
   0.426E+00 0.412E+00 0.685E+03   -.434E+00 -.418E+00 -.686E+03   0.542E-02 0.384E-02 0.471E+00
   0.542E+00 0.109E+01 -.689E+03   -.545E+00 -.117E+01 0.690E+03   -.755E-02 0.772E-01 -.351E+00
   0.408E+00 -.433E+00 -.689E+03   -.408E+00 0.436E+00 0.689E+03   0.750E-02 0.260E-02 -.268E+00
   -.156E+00 -.181E+01 -.206E+04   0.198E+00 0.192E+01 0.205E+04   -.319E-01 -.461E-01 0.630E+01
   -.127E+00 -.773E-01 -.206E+04   0.290E+00 0.236E+00 0.205E+04   -.124E+00 -.122E+00 0.639E+01
   0.234E-01 -.128E+00 0.207E+04   -.246E-01 0.131E+00 -.206E+04   0.885E-03 -.254E-02 -.717E+01
   0.132E+00 0.341E-01 0.207E+04   -.135E+00 -.350E-01 -.206E+04   0.238E-02 0.664E-03 -.716E+01
   0.219E+00 0.244E+00 0.683E+03   -.241E+00 -.264E+00 -.684E+03   0.157E-01 0.148E-01 0.552E+00
   0.642E+00 -.422E+00 0.685E+03   -.689E+00 0.430E+00 -.685E+03   0.325E-01 -.551E-02 0.483E+00
   0.465E+00 -.134E+01 -.694E+03   -.455E+00 0.143E+01 0.695E+03   -.202E-01 -.806E-01 -.257E+00
   0.109E+01 0.545E+00 -.690E+03   -.117E+01 -.552E+00 0.690E+03   0.783E-01 -.202E-02 -.339E+00
   0.366E+01 0.350E+01 -.207E+04   -.375E+01 -.361E+01 0.206E+04   -.436E-01 -.324E-01 0.649E+01
   0.231E+01 -.196E+00 -.206E+04   -.228E+01 0.390E-01 0.205E+04   -.624E-01 0.124E+00 0.635E+01
   -.105E+00 0.287E+00 0.514E+03   0.111E+00 -.283E+00 -.514E+03   -.742E-02 -.523E-02 -.678E-01
   -.323E+00 -.139E+00 0.514E+03   0.330E+00 0.155E+00 -.514E+03   -.865E-02 -.204E-01 -.523E-01
   -.685E-02 -.137E-01 0.155E+04   0.679E-02 0.136E-01 -.156E+04   0.798E-04 0.234E-03 0.341E+01
   -.818E-01 0.101E+00 0.155E+04   0.831E-01 -.105E+00 -.156E+04   -.191E-02 0.559E-02 0.341E+01
   -.453E+00 0.403E+00 -.156E+04   0.510E+00 -.454E+00 0.157E+04   -.715E-01 0.543E-01 -.479E+01
   -.559E+00 0.373E+00 -.156E+04   0.625E+00 -.434E+00 0.156E+04   -.732E-01 0.536E-01 -.475E+01
   0.219E+00 0.192E+00 -.511E+03   -.218E+00 -.193E+00 0.511E+03   -.382E-02 -.162E-02 0.244E+00
   -.330E+00 0.113E+01 -.512E+03   0.324E+00 -.114E+01 0.511E+03   0.100E-01 0.154E-01 0.323E+00
   -.123E+00 -.307E+00 0.514E+03   0.145E+00 0.311E+00 -.514E+03   -.281E-01 -.483E-02 -.526E-01
   -.438E+00 0.112E+00 0.513E+03   0.424E+00 -.110E+00 -.512E+03   0.186E-01 -.343E-02 -.136E+00
   -.291E-01 0.143E-01 0.155E+04   0.317E-01 -.139E-01 -.156E+04   -.366E-02 -.566E-03 0.341E+01
   -.101E+00 -.995E-01 0.155E+04   0.105E+00 0.104E+00 -.156E+04   -.692E-02 -.657E-02 0.340E+01
   0.361E+00 -.591E+00 -.156E+04   -.426E+00 0.658E+00 0.156E+04   0.580E-01 -.751E-01 -.474E+01
   -.241E+01 0.111E+01 -.156E+04   0.255E+01 -.131E+01 0.157E+04   -.101E+00 0.245E+00 -.490E+01
   -.669E+00 -.109E+00 -.511E+03   0.695E+00 0.989E-01 0.511E+03   -.388E-01 0.148E-01 0.323E+00
   -.125E+01 -.127E+01 -.511E+03   0.126E+01 0.128E+01 0.511E+03   -.876E-02 -.138E-01 0.413E+00
   0.110E+00 0.429E+00 0.513E+03   -.113E+00 -.421E+00 -.513E+03   0.354E-02 -.110E-01 -.877E-01
   0.291E+00 -.123E+00 0.514E+03   -.283E+00 0.124E+00 -.514E+03   -.105E-01 -.943E-03 -.688E-01
   0.767E-02 -.342E-01 0.155E+04   -.717E-02 0.368E-01 -.156E+04   -.706E-03 -.366E-02 0.341E+01
   0.814E-01 0.781E-01 0.155E+04   -.827E-01 -.796E-01 -.156E+04   0.182E-02 0.200E-02 0.341E+01
   0.724E+00 0.629E+00 -.156E+04   -.789E+00 -.511E+00 0.156E+04   0.779E-01 -.175E+00 -.454E+01
   0.404E+00 -.446E+00 -.156E+04   -.452E+00 0.499E+00 0.157E+04   0.503E-01 -.659E-01 -.478E+01
   -.129E+00 -.704E+00 -.511E+03   0.116E+00 0.727E+00 0.511E+03   0.190E-01 -.349E-01 0.320E+00
   0.210E+00 0.214E+00 -.511E+03   -.192E+00 -.197E+00 0.511E+03   -.235E-01 -.224E-01 0.303E+00
   0.801E-01 -.419E+00 0.512E+03   -.750E-01 0.402E+00 -.512E+03   -.711E-02 0.236E-01 -.138E+00
   0.432E+00 0.137E+00 0.513E+03   -.419E+00 -.142E+00 -.513E+03   -.173E-01 0.571E-02 -.887E-01
   0.288E-01 0.334E-01 0.155E+04   -.315E-01 -.365E-01 -.156E+04   0.386E-02 0.426E-02 0.340E+01
   0.102E+00 -.787E-01 0.155E+04   -.106E+00 0.800E-01 -.156E+04   0.555E-02 -.182E-02 0.341E+01
   0.102E+01 -.233E+01 -.156E+04   -.123E+01 0.248E+01 0.157E+04   0.254E+00 -.107E+00 -.491E+01
   0.574E+00 0.665E+00 -.156E+04   -.456E+00 -.723E+00 0.156E+04   -.172E+00 0.705E-01 -.455E+01
   0.878E+00 0.878E+00 -.518E+03   -.911E+00 -.903E+00 0.518E+03   0.461E-01 0.381E-01 0.358E-01
   0.114E+01 -.314E+00 -.512E+03   -.115E+01 0.307E+00 0.512E+03   0.132E-01 0.998E-02 0.312E+00
 -----------------------------------------------------------------------------------------------
   0.746E-01 0.434E-01 0.142E+02   0.959E-13 -.244E-12 -.227E-12   -.779E-01 -.442E-01 -.142E+02


 POSITION                                       TOTAL-FORCE (eV/Angst)
 -----------------------------------------------------------------------------------
      2.11015      0.00000      7.50000         0.000321     -0.000567      0.338776
      4.22029      2.11015      7.50000         0.000536      0.000123      0.337761
      2.11015      2.11015      9.61015        -0.003346     -0.002391      0.055896
      4.22029      0.00000      9.61015         0.001974     -0.012623      0.059871
      2.10918      8.43934     11.72893         0.005463      0.007176     -0.019418
      4.21970      2.10790     11.72783        -0.003233      0.006474     -0.032604
      2.10815      2.10922     13.82671        -0.015664     -0.018458     -0.029103
      4.21925      0.00110     13.82579        -0.034151     -0.034151     -0.001461
      2.11015      4.22029      7.50000         0.000124      0.000527      0.337705
      4.22029      6.33044      7.50000         0.000837     -0.000286      0.341754
      2.11015      6.33044      9.61015         0.006667      0.000343      0.063938
      4.22029      4.22029      9.61015         0.006579      0.007392      0.065453
      2.10704      4.22026     11.72800         0.007544     -0.003414     -0.034183
      4.22229      6.33023     11.73517         0.005617     -0.008642     -0.018954
      2.10725      6.32942     13.82574         0.056964      0.012348      0.009966
      4.20808      4.20918     13.81868         0.108853      0.109463      0.071681
      6.33044      0.00000      7.50000        -0.000242     -0.000694      0.338606
      0.00000      2.11015      7.50000        -0.000565      0.000308      0.338737
      6.33044      2.11015      9.61015        -0.000393      0.008142      0.064264
      0.00000      0.00000      9.61015        -0.002401     -0.001613      0.056025
      6.33083      8.43897     11.73259        -0.010027     -0.002378     -0.059959
      8.43869      2.10994     11.72919         0.007378      0.004927     -0.020812
      6.32850      2.10848     13.82632         0.009555      0.055481      0.007382
      0.00003      0.00112     13.82744         0.038493      0.036248     -0.032043
      6.33044      4.22029      7.50000        -0.000297      0.000838      0.341826
      0.00000      6.33044      7.50000        -0.000701     -0.000243      0.338660
      6.33044      6.33044      9.61015        -0.005909     -0.005190      0.076347
      0.00000      4.22029      9.61015        -0.013994      0.002758      0.060420
      6.32965      4.22299     11.73535        -0.009137      0.005139     -0.018382
      8.43823      6.33119     11.73265        -0.001938     -0.008819     -0.059030
      6.33927      6.34037     13.85497        -0.132838     -0.130930     -0.172616
      8.44033      4.22024     13.82724        -0.032538     -0.032929     -0.009101
      2.11015      0.00000      9.61015        -0.001552     -0.001213      0.058417
      4.22029      2.11015      9.61015        -0.002056     -0.004706      0.057891
      2.11015      2.11015      7.50000         0.000068      0.000079     -0.500830
      4.22029      0.00000      7.50000        -0.000507      0.001626     -0.502099
      2.10942      0.00009     13.86719        -0.015129      0.003934      0.085167
      4.21736      2.10742     13.86219        -0.007344     -0.007333      0.108150
      2.10921      2.10977     11.72255        -0.003431     -0.002677     -0.007908
      4.21979      8.43890     11.72463         0.003770      0.004820     -0.012098
      2.11015      4.22029      9.61015        -0.006596     -0.001190      0.058780
      4.22029      6.33044      9.61015         0.004873     -0.001170      0.069320
      2.11015      6.33044      7.50000        -0.001014     -0.000161     -0.502016
      4.22029      4.22029      7.50000        -0.001969     -0.001904     -0.502620
      2.10633      4.21834     13.86171        -0.006897     -0.007498      0.112575
      4.21584      6.32700     13.87942         0.039917      0.042573      0.041400
      2.11073      6.32966     11.72408        -0.012631      0.004823     -0.008577
      4.21930      4.21981     11.72459        -0.005208     -0.004804     -0.022796
      6.33044      0.00000      9.61015         0.000657     -0.002823      0.071547
      0.00000      2.11015      9.61015        -0.002481      0.000031      0.059494
      6.33044      2.11015      7.50000        -0.000164     -0.001044     -0.502014
      0.00000      0.00000      7.50000         0.000573      0.000586     -0.501460
      6.33020      0.00591     13.86291         0.013561     -0.057144      0.163389
      8.43974      2.11041     13.86738         0.002555     -0.013525      0.087238
      6.32907      2.11159     11.72431         0.005787     -0.012588     -0.008418
      8.44032      0.00029     11.72409        -0.005214     -0.005070     -0.005364
      6.33044      4.22029      9.61015        -0.001991      0.006045      0.069491
      0.00000      6.33044      9.61015        -0.004379      0.001137      0.071499
      6.33044      6.33044      7.50000         0.001176      0.001248     -0.503571
      0.00000      4.22029      7.50000         0.001647     -0.000513     -0.502096
      6.32513      4.21747     13.88102         0.050102      0.034503      0.035008
      0.00461      6.33118     13.86378        -0.054741      0.012603      0.159205
      6.32935      6.32987     11.73172         0.013880      0.013513     -0.011709
      8.43804      4.22037     11.72516         0.005211      0.003484     -0.012397
 -----------------------------------------------------------------------------------
    total drift:                               -0.003274     -0.000773      0.022875


--------------------------------------------------------------------------------------------------------



  FREE ENERGIE OF THE ION-ELECTRON SYSTEM (eV)
  ---------------------------------------------------
  free  energy   TOTEN  =      -371.28143966 eV

  energy  without entropy=     -371.28143966  energy(sigma->0) =     -371.28143966



--------------------------------------------------------------------------------------------------------


    POTLOK:  cpu time      0.3562: real time      0.3563


--------------------------------------------------------------------------------------------------------


     LOOP+:  cpu time     88.2245: real time     88.3752
    4ORBIT:  cpu time      0.0000: real time      0.0000

 total amount of memory used by VASP MPI-rank0    60508. kBytes
=======================================================================

   base      :      30000. kBytes
   nonl-proj :      11878. kBytes
   fftplans  :       4923. kBytes
   grid      :       7379. kBytes
   one-center:         64. kBytes
   wavefun   :       6264. kBytes

  
  
 General timing and accounting informations for this job:
 ========================================================
  
                  Total CPU time used (sec):      124.788
                            User time (sec):      123.347
                          System time (sec):        1.440
                         Elapsed time (sec):      135.124
  
                   Maximum memory used (kb):      157916.
                   Average memory used (kb):          N/A
  
                          Minor page faults:        34019
                          Major page faults:            0
                 Voluntary context switches:        12311
