 vasp.6.3.0 20Jan22 (build Apr  1 2022 16:44:48) gamma-only                      
 executed on        HPECrayEX_GCC date 2023.03.02  07:03:27
 running 1024 mpi-ranks, with    1 threads/rank
 distrk:  each k-point on 1024 cores,    1 groups
 distr:  one band on NCORE=   8 cores,  128 groups


--------------------------------------------------------------------------------------------------------


 INCAR:
   SYSTEM = MgO-rocksalt
   ISMEAR = 0
   SIGMA = 0.05
   EDIFF = 1E-8
   ALGO = ALL
   ISTART = 0
   IBRION = 5
   POTIM = 0.01
   NFREE = 2
   ISYM = 0
   DIPOL = 0.5 0.5 0.5
   IDIPOL = 4
   LDIPOL = .TRUE.
   GGA = RE
   AGGAC = 0.0
   LUSE_VDW = .TRUE.
   LASPH = .TRUE.
   ENCUT = 600
   PREC = Accurate
   LASPH = .TRUE.
   LREAL = .FALSE.
   ISPIN = 1
   NELM = 200
   NELMIN = 8
   NCORE = 8
   KPAR = 1
   LWAVE = .FALSE.
   LCHARG = .FALSE.

 POTCAR:    PAW_PBE C 08Apr2002                   
 POTCAR:    PAW_PBE H 15Jun2001                   
 -----------------------------------------------------------------------------
|                                                                             |
|               ----> ADVICE to this user running VASP <----                  |
|                                                                             |
|     You have switched on vdW-DFT.                                           |
|     This routine was written and supplied by Jiri Klimes. We recommend      |
|     that you carefully read and cite the following publications:            |
|       J. Klimes, D.R. Bowler, A. Michelides                                 |
|          J. Phys.: Cond Matt. 22 022201 (2010)                              |
|       J. Klimes, D.R. Bowler, A. Michelides                                 |
|          Phys. Rev. B. 83, 195131 (2011)                                    |
|     and references therein.                                                 |
|                                                                             |
 -----------------------------------------------------------------------------

 POTCAR:    PAW_PBE C 08Apr2002                   
   SHA256 =  253f7b50bb8d59471dbedb8285d89021f4a42ed1a2c5d38a03a736e69125dd95 C/POTCAR              
   COPYR  = (c) Copyright 08Apr2002 Georg Kresse                                                    
   COPYR  = This file is part of the software VASP. Any use, copying, and all other rights are regul
   COPYR  = If you do not have a valid VASP license, you may not use, copy or distribute this file. 
   VRHFIN =C: s2p2                                                                                  
   LEXCH  = PE                                                                                      
   EATOM  =   147.1560 eV,   10.8157 Ry                                                             
                                                                                                    
   TITEL  = PAW_PBE C 08Apr2002                                                                     
   LULTRA =        F    use ultrasoft PP ?                                                          
   IUNSCR =        1    unscreen: 0-lin 1-nonlin 2-no                                               
   RPACOR =    1.200    partial core radius                                                         
   POMASS =   12.011; ZVAL   =    4.000    mass and valenz                                          
   RCORE  =    1.500    outmost cutoff radius                                                       
   RWIGS  =    1.630; RWIGS  =    0.863    wigner-seitz radius (au A)                               
   ENMAX  =  400.000; ENMIN  =  300.000 eV                                                          
   ICORE  =        2    local potential                                                             
   LCOR   =        T    correct aug charges                                                         
   LPAW   =        T    paw PP                                                                      
   EAUG   =  644.873                                                                                
   DEXC   =    0.000                                                                                
   RMAX   =    1.529    core radius for proj-oper                                                   
   RAUG   =    1.300    factor for augmentation sphere                                              
   RDEP   =    1.501    radius for radial grids                                                     
   RDEPT  =    1.300    core radius for aug-charge                                                  
                                                                                                    
   Atomic configuration                                                                             
    4 entries                                                                                       
     n  l   j            E        occ.                                                              
     1  0  0.50      -273.3789   2.0000                                                             
     2  0  0.50       -13.7508   2.0000                                                             
     2  1  0.50        -5.2854   2.0000                                                             
     3  2  1.50        -5.4423   0.0000                                                             
   Description                                                                                      
     l       E           TYP  RCUT    TYP  RCUT                                                     
     0    -13.7508458     23  1.200                                                                 
     0     -8.2022199     23  1.200                                                                 
     1     -5.2854383     23  1.500                                                                 
     1     34.0145650     23  1.500                                                                 
     2     -5.4423304      7  1.500                                                                 
  local pseudopotential read in
  partial core-charges read in
  partial kinetic energy density read in
  atomic valenz-charges read in
  non local Contribution for L=           0  read in
    real space projection operators read in
  non local Contribution for L=           0  read in
    real space projection operators read in
  non local Contribution for L=           1  read in
    real space projection operators read in
  non local Contribution for L=           1  read in
    real space projection operators read in
    PAW grid and wavefunctions read in

   number of l-projection  operators is LMAX  =           4
   number of lm-projection operators is LMMAX =           8

 POTCAR:    PAW_PBE H 15Jun2001                   
   SHA256 =  030f79b5d3ab3cf0e668861823c8fb652ff669f3e15e46930bd03bfd63a607b6 H/POTCAR              
   COPYR  = (c) Copyright 15Jun2001 Georg Kresse                                                    
   COPYR  = This file is part of the software VASP. Any use, copying, and all other rights are regul
   COPYR  = If you do not have a valid VASP license, you may not use, copy or distribute this file. 
   VRHFIN =H: ultrasoft test                                                                        
   LEXCH  = PE                                                                                      
   EATOM  =    12.4884 eV,    0.9179 Ry                                                             
                                                                                                    
   TITEL  = PAW_PBE H 15Jun2001                                                                     
   LULTRA =        F    use ultrasoft PP ?                                                          
   IUNSCR =        0    unscreen: 0-lin 1-nonlin 2-no                                               
   RPACOR =    0.000    partial core radius                                                         
   POMASS =    1.000; ZVAL   =    1.000    mass and valenz                                          
   RCORE  =    1.100    outmost cutoff radius                                                       
   RWIGS  =    0.700; RWIGS  =    0.370    wigner-seitz radius (au A)                               
   ENMAX  =  250.000; ENMIN  =  200.000 eV                                                          
   RCLOC  =    0.701    cutoff for local pot                                                        
   LCOR   =        T    correct aug charges                                                         
   LPAW   =        T    paw PP                                                                      
   EAUG   =  400.000                                                                                
   RMAX   =    1.123    core radius for proj-oper                                                   
   RAUG   =    1.200    factor for augmentation sphere                                              
   RDEP   =    1.112    radius for radial grids                                                     
   RDEPT  =    0.926    core radius for aug-charge                                                  
                                                                                                    
   Atomic configuration                                                                             
    2 entries                                                                                       
     n  l   j            E        occ.                                                              
     1  0  0.50        -6.4927   1.0000                                                             
     2  1  0.50        -3.4015   0.0000                                                             
   Description                                                                                      
     l       E           TYP  RCUT    TYP  RCUT                                                     
     0     -6.4927494     23  1.100                                                                 
     0      6.8029130     23  1.100                                                                 
     1     -4.0817478     23  1.100                                                                 
  local pseudopotential read in
  atomic valenz-charges read in
  non local Contribution for L=           0  read in
    real space projection operators read in
  non local Contribution for L=           0  read in
    real space projection operators read in
  non local Contribution for L=           1  read in
    real space projection operators read in
    PAW grid and wavefunctions read in

   number of l-projection  operators is LMAX  =           3
   number of lm-projection operators is LMMAX =           5

 -----------------------------------------------------------------------------
|                                                                             |
|               ----> ADVICE to this user running VASP <----                  |
|                                                                             |
|     You enforced a specific xc type in the INCAR file but a different       |
|     type was found in the POTCAR file.                                      |
|     I HOPE YOU KNOW WHAT YOU ARE DOING!                                     |
|                                                                             |
 -----------------------------------------------------------------------------

  PAW_PBE C 08Apr2002                   :
 energy of atom  1       EATOM= -147.1560
 kinetic energy error for atom=    0.0057 (will be added to EATOM!!)
  PAW_PBE H 15Jun2001                   :
 energy of atom  2       EATOM=  -12.4884
 kinetic energy error for atom=    0.0004 (will be added to EATOM!!)


 POSCAR:  C  H
  positions in direct lattice
  No initial velocities read in
 exchange correlation table for  LEXCH =       40
   RHO(1)=    0.500       N(1)  =     2000
   RHO(2)=  100.500       N(2)  =     4000



--------------------------------------------------------------------------------------------------------


 ion  position               nearest neighbor table
   1  0.465  0.500  0.500-   4 1.10   3 1.10   5 1.10   2 1.54
   2  0.535  0.500  0.500-   7 1.10   8 1.10   6 1.10   1 1.54
   3  0.447  0.539  0.526-   1 1.10
   4  0.447  0.458  0.520-   1 1.10
   5  0.447  0.503  0.454-   1 1.10
   6  0.553  0.497  0.546-   2 1.10
   7  0.553  0.542  0.480-   2 1.10
   8  0.553  0.461  0.474-   2 1.10


IMPORTANT INFORMATION: All symmetrisations will be switched off!
NOSYMM: (Re-)initialisation of all symmetry stuff for point group C_1.


----------------------------------------------------------------------------------------

                                     Primitive cell                                     

  volume of cell :   10705.0962

  direct lattice vectors                    reciprocal lattice vectors
    22.177880000  0.000000000  0.000000000     0.045089973  0.000000000  0.000000000
     0.000000000 21.867570000  0.000000000     0.000000000  0.045729818  0.000000000
     0.000000000  0.000000000 22.073440000     0.000000000  0.000000000  0.045303315

  length of vectors
    22.177880000 21.867570000 22.073440000     0.045089973  0.045729818  0.045303315

  position of ions in fractional coordinates (direct lattice)
     0.465276138  0.499999629  0.500000297
     0.534723531  0.500000199  0.499999621
     0.447365509  0.538787410  0.525887112
     0.447365480  0.457976025  0.520333745
     0.447365494  0.503236342  0.453778569
     0.552634291  0.496763511  0.546221534
     0.552634322  0.542023730  0.479666220
     0.552634333  0.461212239  0.474112902

  ion indices of the primitive-cell ions
   primitive index   ion index
                 1           1
                 2           2
                 3           3
                 4           4
                 5           5
                 6           6
                 7           7
                 8           8

----------------------------------------------------------------------------------------



 KPOINTS: pymatgen v2020.8.13 with grid density = 

Automatic generation of k-mesh.
 Grid dimensions read from file:
 generate k-points for:    1    1    1

 Generating k-lattice:

  Cartesian coordinates                     Fractional coordinates (reciprocal lattice)
     0.045089973  0.000000000  0.000000000     1.000000000  0.000000000  0.000000000
     0.000000000  0.045729818  0.000000000     0.000000000  1.000000000  0.000000000
     0.000000000  0.000000000  0.045303315     0.000000000  0.000000000  1.000000000

  Length of vectors
     0.045089973  0.045729818  0.045303315

  Shift w.r.t. Gamma in fractional coordinates (k-lattice)
     0.000000000  0.000000000  0.000000000

 
 Subroutine IBZKPT returns following result:
 ===========================================
 
 Found      1 irreducible k-points:
 
 Following reciprocal coordinates:
            Coordinates               Weight
  0.000000  0.000000  0.000000      1.000000
 
 Following cartesian coordinates:
            Coordinates               Weight
  0.000000  0.000000  0.000000      1.000000
 
 
 Subroutine IBZKPT_HF returns following result:
 ==============================================
 
 Found      1 k-points in 1st BZ
 the following      1 k-points will be used (e.g. in the exchange kernel)
 Following reciprocal coordinates:   # in IRBZ
  0.000000  0.000000  0.000000    1.00000000   1 t-inv F


--------------------------------------------------------------------------------------------------------




 Dimension of arrays:
   k-points           NKPTS =      1   k-points in BZ     NKDIM =      1   number of bands    NBANDS=    128
   number of dos      NEDOS =    301   number of ions     NIONS =      8
   non local maximal  LDIM  =      4   non local SUM 2l+1 LMDIM =      8
   total plane-waves  NPLWV = ******
   max r-space proj   IRMAX =      1   max aug-charges    IRDMAX=   6628
   dimension x,y,z NGX =   180 NGY =  180 NGZ =  180
   dimension x,y,z NGXF=   360 NGYF=  360 NGZF=  360
   support grid    NGXF=   360 NGYF=  360 NGZF=  360
   ions per type =               2   6
   NGX,Y,Z   is equivalent  to a cutoff of  13.49, 13.68, 13.56 a.u.
   NGXF,Y,Z  is equivalent  to a cutoff of  26.99, 27.37, 27.11 a.u.

 SYSTEM =  MgO-rocksalt                            
 POSCAR =   C  H                                   

--------------------------------------------------------------------------------------------------------


  energy-cutoff  :      600.00
  volume of cell :    10705.10
      direct lattice vectors                 reciprocal lattice vectors
    22.177880000  0.000000000  0.000000000     0.045089973  0.000000000  0.000000000
     0.000000000 21.867570000  0.000000000     0.000000000  0.045729818  0.000000000
     0.000000000  0.000000000 22.073440000     0.000000000  0.000000000  0.045303315

  length of vectors
    22.177880000 21.867570000 22.073440000     0.045089973  0.045729818  0.045303315



 k-points in units of 2pi/SCALE and weight: pymatgen v2020.8.13 with grid density = 
   0.00000000  0.00000000  0.00000000       1.000

 k-points in reciprocal lattice and weights: pymatgen v2020.8.13 with grid density = 
   0.00000000  0.00000000  0.00000000       1.000

 position of ions in fractional coordinates (direct lattice) 
   0.46527614  0.49999963  0.50000030
   0.53472353  0.50000020  0.49999962
   0.44736551  0.53878741  0.52588711
   0.44736548  0.45797602  0.52033374
   0.44736549  0.50323634  0.45377857
   0.55263429  0.49676351  0.54622153
   0.55263432  0.54202373  0.47966622
   0.55263433  0.46121224  0.47411290

 position of ions in cartesian coordinates  (Angst):
  10.31883835 10.93377689 11.03672657
  11.85903430 10.93378935 11.03671162
   9.92161857 11.78197141 11.60813762
   9.92161793 10.01482278 11.48555569
   9.92161825 11.00455593 10.01645402
  12.25625700 10.86301084 12.05698826
  12.25625767 11.85274186 10.58788354
  12.25625792 10.08559093 10.46530269



--------------------------------------------------------------------------------------------------------


--------------------------------------- Iteration      FINAL  ---------------------------------------


--------------------OUTCAR has been truncated-------------------------


--------------------OUTCAR has been truncated-------------------------


--------------------OUTCAR has been truncated-------------------------


--------------------OUTCAR has been truncated-------------------------


--------------------OUTCAR has been truncated-------------------------


--------------------OUTCAR has been truncated-------------------------


--------------------OUTCAR has been truncated-------------------------


--------------------OUTCAR has been truncated-------------------------


--------------------OUTCAR has been truncated-------------------------


--------------------OUTCAR has been truncated-------------------------


  FORCE on cell =-STRESS in cart. coord.  units (eV):
  Direction    XX          YY          ZZ          XY          YZ          ZX
  --------------------------------------------------------------------------------------
  Alpha Z     0.07283     0.07283     0.07283
  Ewald     289.56724   124.48075   123.62283     0.24459     0.12797    -0.15165
  Hartree   362.51429   235.07095   233.58629     0.03546     0.11036    -0.13013
  E(xc)     -50.47189   -50.10750   -50.09848     0.00221     0.00252    -0.00138
  Local    -766.06213  -467.30840  -464.80268    -0.21875    -0.26006     0.29323
  n-local   -24.82256   -26.12196   -26.12406    -0.00600     0.00913    -0.00232
  augment     0.14185     0.06374     0.06195    -0.00072     0.00052    -0.00022
  Kinetic   188.95875   183.68499   183.50761    -0.02309    -0.07994     0.03169
  Fock        0.00000     0.00000     0.00000     0.00000     0.00000     0.00000
  -------------------------------------------------------------------------------------
  Total      -0.10161    -0.16460    -0.17373     0.03370    -0.08949     0.03923
  in kB      -0.01521    -0.02463    -0.02600     0.00504    -0.01339     0.00587
  external pressure =       -0.02 kB  Pullay stress =        0.00 kB


 VOLUME and BASIS-vectors are now :
 -----------------------------------------------------------------------------
  energy-cutoff  :      600.00
  volume of cell :    10705.10
      direct lattice vectors                 reciprocal lattice vectors
    22.177880000  0.000000000  0.000000000     0.045089973  0.000000000  0.000000000
     0.000000000 21.867570000  0.000000000     0.000000000  0.045729818  0.000000000
     0.000000000  0.000000000 22.073440000     0.000000000  0.000000000  0.045303315

  length of vectors
    22.177880000 21.867570000 22.073440000     0.045089973  0.045729818  0.045303315


 FORCES acting on ions:
    Electron-Ion                     Ewald-Force                    Non-Local-Force
 -----------------------------------------------------------------------------------------------
   0.769E+02 0.154E-01 -.451E-01   -.767E+02 -.173E-01 0.438E-01   -.189E+00 0.325E-02 0.964E-03
   -.772E+02 0.454E+00 -.106E+00   0.770E+02 -.525E+00 0.753E-01   0.199E+00 -.248E-01 -.789E-01
   0.309E+02 -.453E+02 -.306E+02   -.330E+02 0.497E+02 0.335E+02   0.209E+01 -.437E+01 -.294E+01
   0.309E+02 0.491E+02 -.240E+02   -.330E+02 -.539E+02 0.263E+02   0.209E+01 0.473E+01 -.231E+01
   0.309E+02 -.379E+01 0.545E+02   -.330E+02 0.415E+01 -.598E+02   0.209E+01 -.364E+00 0.525E+01
   -.309E+02 0.380E+01 -.545E+02   0.330E+02 -.418E+01 0.598E+02   -.209E+01 0.360E+00 -.526E+01
   -.309E+02 -.491E+02 0.240E+02   0.330E+02 0.539E+02 -.263E+02   -.209E+01 -.473E+01 0.231E+01
   -.307E+02 0.450E+02 0.308E+02   0.327E+02 -.491E+02 -.336E+02   -.205E+01 0.428E+01 0.294E+01
 -----------------------------------------------------------------------------------------------
   -.500E-01 0.109E+00 0.757E-01   0.284E-13 0.142E-13 -.711E-14   0.499E-01 -.109E+00 -.757E-01


 POSITION                                       TOTAL-FORCE (eV/Angst)
 -----------------------------------------------------------------------------------
     10.31884     10.93378     11.03673         0.000267      0.001292     -0.000382
     11.85903     10.93379     11.03671         0.041581     -0.094636     -0.108777
      9.92162     11.78197     11.60814        -0.001244      0.002947      0.002958
      9.92162     10.01482     11.48556        -0.000691     -0.003034      0.001322
      9.92162     11.00456     10.01645        -0.000624      0.000598     -0.002245
     12.25626     10.86301     12.05699         0.010852     -0.023147     -0.012451
     12.25626     11.85274     10.58788        -0.004235      0.013134      0.005562
     12.25626     10.08559     10.45530        -0.045907      0.102846      0.114012
 -----------------------------------------------------------------------------------
    total drift:                               -0.000034      0.000006      0.000019


--------------------------------------------------------------------------------------------------------



  FREE ENERGIE OF THE ION-ELECTRON SYSTEM (eV)
  ---------------------------------------------------
  free  energy   TOTEN  =       -37.41079194 eV

  energy  without entropy=      -37.41079194  energy(sigma->0) =      -37.41079194

 d Force = 0.3901208E-04[-0.228E-02, 0.236E-02]  d Energy = 0.3318870E-04 0.582E-05
 d Force = 0.6698124E+00[ 0.672E+00, 0.667E+00]  d Ewald  = 0.6698824E+00-0.701E-04


--------------------------------------------------------------------------------------------------------


    POTLOK:  cpu time     13.9684: real time     13.9693


--------------------------------------------------------------------------------------------------------


 Finite differences progress:
  Degree of freedom:  24/ 24
  Displacement:        2/  2
  Total:              48/ 48

 SECOND DERIVATIVES (NOT SYMMETRIZED)
 ------------------------------------
               1X          1Y          1Z          2X          2Y          2Z          3X          3Y          3Z          4X          4Y          4Z          5X          5Y          5Z          6X          6Y          6Z          7X          7Y          7Z          8X          8Y          8Z 
  1X   -41.947312   -0.000682    0.001055   16.802255    0.000047   -0.000099    7.122920   -6.349975   -4.277809    7.123046    6.880507   -3.360455    7.122908   -0.529791    7.637203    1.258810    0.002478   -0.035952    1.258656   -0.032481    0.015878    1.258718    0.029897    0.020179
  1Y    -0.002568  -51.565273    0.000630   -0.000018    7.211642    0.000062   -6.287426   18.726762    9.595576    6.813190   21.205785   -8.168110   -0.524263    4.589876   -1.428078   -0.212196    0.047172    0.014580    2.760825   -0.120277    0.082265   -2.547545   -0.095686   -0.096924
  1Z    -0.007291   -0.000399  -51.568019    0.000002   -0.000036    7.211315   -4.233546    9.590879   10.949782   -3.324921   -8.160892    8.475402    7.565162   -1.430235   25.096945    3.065409    0.014594   -0.158193   -1.348307    0.082689    0.008834   -1.716508   -0.096601   -0.016067
  2X    16.801654    0.000058    0.001025  -41.948342   -0.000735    0.003544    1.259490    0.029743    0.019071    1.259517   -0.032373    0.014769    1.260035    0.002354   -0.036447    7.122300   -0.529797    7.637175    7.122783    6.881105   -3.360925    7.122564   -6.350354   -4.278212
  2Y    -0.002576    7.213205   -0.000158    0.000674  -51.564300    0.001269   -2.548375   -0.095186   -0.096449    2.760550   -0.121145    0.082656   -0.212786    0.047073    0.013768   -0.524098    4.589358   -1.427369    6.814039   21.205773   -8.168424   -6.287428   18.725222    9.594707
  2Z     0.000233    0.002017    7.215198   -0.007970   -0.000711  -51.570185   -1.715263   -0.097334   -0.016634   -1.347824    0.082959    0.008392    3.065038    0.014339   -0.157687    7.564635   -1.430452   25.096297   -3.325329   -8.161716    8.475302   -4.233520    9.590897   10.949317
  3X     7.126533   -6.282223   -4.231258    1.258580   -2.549562   -1.714952   -8.075007    7.067375    4.760046   -0.342389    0.789323    0.642575   -0.342410    0.891882    0.490494   -0.141665   -0.004916    0.047315   -0.142817    0.042342   -0.023808    0.659175    0.045779    0.029590
  3Y    -6.353249   18.728859    9.594358    0.027756   -0.095428   -0.097026    7.073163  -20.276772  -10.710082   -0.869142    2.053439    1.407719    0.162508   -0.185982   -0.114151   -0.043266   -0.000756   -0.027968   -0.041265   -0.073533   -0.013830    0.043496   -0.149827   -0.039021
  3Z    -4.279349    9.589140   10.951717    0.019371   -0.095631   -0.015058    4.760742  -10.705799  -11.596794    0.528221   -1.021889   -0.710233   -1.003635    2.315539    1.528953   -0.026197   -0.043394   -0.056180   -0.028992    0.002078    0.016050    0.029840   -0.040043   -0.118454
  4X     7.130801    6.808734   -3.324957    1.255668    2.762271   -1.348944   -0.341292   -0.871358    0.527076   -8.073896   -7.657600    3.739671   -0.341591   -0.951282    0.363694   -0.144515   -0.001934    0.047108    0.658894   -0.050551    0.024362   -0.144068   -0.038280   -0.028009
  4Y     6.886604   21.202754   -8.164522   -0.030917   -0.121014    0.082491    0.788207    2.053909   -1.022993   -7.664484  -23.041129    9.116162   -0.022249    0.147964   -0.078487    0.046311   -0.010742    0.033968   -0.048099   -0.158841    0.032693    0.044628   -0.072901    0.000687
  4Z    -3.360735   -8.159323    8.479010    0.015588    0.082481    0.010286    0.643371    1.407709   -0.710373    3.738505    9.109036   -8.834156   -1.016463   -2.508123    1.194136   -0.020522    0.049427   -0.046665    0.023276    0.032978   -0.108207   -0.023020   -0.014185    0.015969
  5X     7.126897   -0.523583    7.554616    1.260540   -0.213074    3.067050   -0.343254    0.162437   -1.004092   -0.343245   -0.022059   -1.017177   -8.076836    0.589869   -8.501193    0.659422    0.003552   -0.053553   -0.141754    0.045054   -0.019823   -0.141770   -0.042195   -0.025827
  5Y    -0.528243    4.591606   -1.426929    0.001350    0.046334    0.015429    0.891898   -0.186999    2.314188   -0.950790    0.148669   -2.508535    0.590391   -4.496961    1.594378    0.003114   -0.091239    0.004327   -0.001914   -0.011969    0.050035   -0.005807    0.000559   -0.042893
  5Z     7.646924   -1.428877   25.096763   -0.034859    0.015135   -0.158229    0.489080   -0.115668    1.528977    0.361442   -0.078071    1.195148   -8.509952    1.596134  -27.384291   -0.052732    0.005774   -0.176663    0.050234    0.033580   -0.045400    0.049863   -0.028007   -0.056306
  6X     1.260592   -0.212623    3.065276    7.125710   -0.524036    7.553823   -0.141410   -0.042891   -0.026457   -0.141422    0.045961   -0.020330    0.660037    0.003601   -0.052440   -8.076849    0.590055   -8.500455   -0.343334   -0.023124   -1.016160   -0.343323    0.163057   -1.003257
  6Y     0.003230    0.048079    0.015112   -0.529659    4.593348   -1.429396   -0.004930   -0.000697   -0.043289   -0.001561   -0.011518    0.050105    0.003493   -0.091808    0.006140    0.588972   -4.498076    1.593457   -0.951105    0.146788   -2.508093    0.891561   -0.186116    2.315965
  6Z    -0.035141    0.014756   -0.159061    7.647139   -1.428815   25.096088    0.049726   -0.027351   -0.055755    0.050272    0.033507   -0.044845   -0.052958    0.005911   -0.176340   -8.509931    1.595459  -27.385267    0.361583   -0.078036    1.195360    0.489310   -0.115431    1.529820
  7X     1.260639    2.762705   -1.348775    7.125838    6.806646   -3.324303   -0.141822   -0.040261   -0.028760    0.660184   -0.048141    0.023799   -0.141918   -0.001850    0.049789   -0.344326   -0.950557    0.358603   -8.075144   -7.659958    3.740760   -0.343450   -0.868584    0.528886
  7Y    -0.030743   -0.119102    0.081458    6.887059   21.205308   -8.166789    0.044626   -0.072159    0.001493   -0.047967   -0.159709    0.033355    0.046329   -0.010716    0.033427   -0.022272    0.148005   -0.078395   -7.665046  -23.045916    9.118149    0.788014    2.054288   -1.022699
  7Z     0.014215    0.082381    0.006624   -3.358056   -8.159124    8.475778   -0.024231   -0.012922    0.017336    0.022453    0.032074   -0.107026   -0.021089    0.049800   -0.046134   -1.015799   -2.507567    1.196650    3.739076    9.107982   -8.833554    0.643430    1.407377   -0.709675
  8X     1.260365   -2.549283   -1.716349    7.125831   -6.279225   -4.229678    0.659906    0.043343    0.029494   -0.141414    0.043807   -0.023570   -0.141474   -0.005572    0.049610   -0.343225    0.890931    0.488519   -0.342980    0.788288    0.642197   -8.077008    7.067711    4.759776
  8Y     0.028545   -0.095320   -0.096854   -6.354366   18.728245    9.593331    0.043795   -0.150345   -0.039298   -0.040791   -0.072747   -0.014013   -0.042903   -0.000642   -0.026990    0.162234   -0.186006   -0.114096   -0.869466    2.053659    1.408161    7.072953  -20.276843  -10.710241
  8Z     0.019025   -0.094845   -0.016301   -4.276962    9.588923   10.949940    0.029180   -0.039051   -0.117540   -0.029741    0.000740    0.016979   -0.026731   -0.043407   -0.056751   -1.003223    2.314960    1.529464    0.528216   -1.022283   -0.709488    4.760236  -10.705038  -11.596302


 Eigenvectors and eigenvalues of the dynamical matrix
 ----------------------------------------------------


   1 f  =   90.656197 THz   569.609682 2PiTHz 3023.965217 cm-1   374.923734 meV
             X         Y         Z           dx          dy          dz
     10.318838 10.933777 11.036727     0.000209   -0.065968    0.204651  
     11.859034 10.933789 11.036712     0.000080   -0.066372    0.204625  
      9.921619 11.781971 11.608138     0.054573   -0.125964   -0.066308  
      9.921618 10.014823 11.485556     0.136869    0.323918   -0.145386  
      9.921618 11.004556 10.016454    -0.192216    0.030637   -0.497601  
     12.256257 10.863011 12.056988    -0.192020    0.030584   -0.497169  
     12.256258 11.852742 10.587884     0.137340    0.325135   -0.145913  
     12.256258 10.085591 10.465303     0.054420   -0.125658   -0.066036  

   2 f  =   90.651373 THz   569.579373 2PiTHz 3023.804313 cm-1   374.903785 meV
             X         Y         Z           dx          dy          dz
     10.318838 10.933777 11.036727     0.000119    0.204447    0.066412  
     11.859034 10.933789 11.036712     0.000271    0.204835    0.065935  
      9.921619 11.781971 11.608138     0.189917   -0.406009   -0.278825  
      9.921618 10.014823 11.485556    -0.142272   -0.326647    0.171903  
      9.921618 11.004556 10.016454    -0.048041    0.024123   -0.123272  
     12.256257 10.863011 12.056988    -0.047786    0.024100   -0.122608  
     12.256258 11.852742 10.587884    -0.142976   -0.328392    0.172736  
     12.256258 10.085591 10.465303     0.189776   -0.405674   -0.278657  

   3 f  =   89.881658 THz   564.743116 2PiTHz 2998.129407 cm-1   371.720504 meV
             X         Y         Z           dx          dy          dz
     10.318838 10.933777 11.036727     0.000179   -0.096067    0.189896  
     11.859034 10.933789 11.036712    -0.000033    0.095432   -0.189922  
      9.921619 11.781971 11.608138     0.024109   -0.062911   -0.019952  
      9.921618 10.014823 11.485556     0.155885    0.373096   -0.169620  
      9.921618 11.004556 10.016454    -0.180602    0.025593   -0.474155  
     12.256257 10.863011 12.056988     0.180406   -0.025600    0.473635  
     12.256258 11.852742 10.587884    -0.155506   -0.372402    0.169210  
     12.256258 10.085591 10.465303    -0.024766    0.064394    0.020962  

   4 f  =   89.876663 THz   564.711728 2PiTHz 2997.962776 cm-1   371.699844 meV
             X         Y         Z           dx          dy          dz
     10.318838 10.933777 11.036727     0.000232    0.190050    0.095598  
     11.859034 10.933789 11.036712    -0.000526   -0.189783   -0.095914  
      9.921619 11.781971 11.608138     0.193874   -0.421316   -0.286673  
      9.921618 10.014823 11.485556    -0.118759   -0.273993    0.150405  
      9.921618 11.004556 10.016454    -0.075890    0.031034   -0.197865  
     12.256257 10.863011 12.056988     0.076535   -0.031148    0.199654  
     12.256258 11.852742 10.587884     0.118756    0.274090   -0.150460  
     12.256258 10.085591 10.465303    -0.193497    0.420435    0.286034  

   5 f  =   88.792950 THz   557.902558 2PiTHz 2961.813999 cm-1   367.217969 meV
             X         Y         Z           dx          dy          dz
     10.318838 10.933777 11.036727     0.108899    0.000081   -0.000333  
     11.859034 10.933789 11.036712     0.121188   -0.000607   -0.000374  
      9.921619 11.781971 11.608138    -0.125967    0.298664    0.201178  
      9.921618 10.014823 11.485556    -0.126066   -0.323769    0.158079  
      9.921618 11.004556 10.016454    -0.125526    0.024835   -0.358088  
     12.256257 10.863011 12.056988    -0.139692    0.027508   -0.397696  
     12.256258 11.852742 10.587884    -0.139712   -0.358216    0.174807  
     12.256258 10.085591 10.465303    -0.140677    0.332785    0.224145  

   6 f  =   88.744195 THz   557.596222 2PiTHz 2960.187709 cm-1   367.016335 meV
             X         Y         Z           dx          dy          dz
     10.318838 10.933777 11.036727     0.123412   -0.000332   -0.000561  
     11.859034 10.933789 11.036712    -0.111340    0.000673    0.000377  
      9.921619 11.781971 11.608138    -0.142663    0.331745    0.223426  
      9.921618 10.014823 11.485556    -0.142027   -0.358041    0.174772  
      9.921618 11.004556 10.016454    -0.141671    0.027495   -0.396230  
     12.256257 10.863011 12.056988     0.127952   -0.024677    0.357010  
     12.256258 11.852742 10.587884     0.127834    0.321375   -0.156892  
     12.256258 10.085591 10.465303     0.128948   -0.299026   -0.201472  

   7 f  =   44.629688 THz   280.416600 2PiTHz 1488.686148 cm-1   184.573476 meV
             X         Y         Z           dx          dy          dz
     10.318838 10.933777 11.036727    -0.000137   -0.166433   -0.015063  
     11.859034 10.933789 11.036712     0.000126   -0.167033   -0.014795  
      9.921619 11.781971 11.608138    -0.192065    0.050711   -0.256556  
      9.921618 10.014823 11.485556     0.187378    0.025205    0.276852  
      9.921618 11.004556 10.016454     0.004857    0.499980    0.032142  
     12.256257 10.863011 12.056988     0.004077    0.503360    0.032683  
     12.256258 11.852742 10.587884     0.189234    0.024718    0.277620  
     12.256258 10.085591 10.465303    -0.193430    0.051886   -0.259203  

   8 f  =   44.618141 THz   280.344048 2PiTHz 1488.300983 cm-1   184.525721 meV
             X         Y         Z           dx          dy          dz
     10.318838 10.933777 11.036727    -0.000315    0.014645   -0.166925  
     11.859034 10.933789 11.036712    -0.000254    0.015261   -0.166646  
      9.921619 11.781971 11.608138    -0.106743   -0.292447    0.333670  
      9.921618 10.014823 11.485556    -0.112460    0.242922    0.362061  
      9.921618 11.004556 10.016454     0.220811   -0.000181   -0.116598  
     12.256257 10.863011 12.056988     0.219687   -0.004010   -0.116346  
     12.256258 11.852742 10.587884    -0.114398    0.242194    0.358831  
     12.256258 10.085591 10.465303    -0.104755   -0.292127    0.334561  

   9 f  =   44.487426 THz   279.522740 2PiTHz 1483.940792 cm-1   183.985127 meV
             X         Y         Z           dx          dy          dz
     10.318838 10.933777 11.036727     0.000057    0.077796    0.006381  
     11.859034 10.933789 11.036712     0.000102   -0.076546   -0.007578  
      9.921619 11.781971 11.608138     0.252404   -0.049137    0.250788  
      9.921618 10.014823 11.485556    -0.247218   -0.021985   -0.266991  
      9.921618 11.004556 10.016454    -0.005031   -0.484064   -0.031694  
     12.256257 10.863011 12.056988     0.006618    0.480640    0.030616  
     12.256258 11.852742 10.587884     0.244797    0.023805    0.267910  
     12.256258 10.085591 10.465303    -0.252154    0.046430   -0.246455  

  10 f  =   44.474637 THz   279.442386 2PiTHz 1483.514207 cm-1   183.932237 meV
             X         Y         Z           dx          dy          dz
     10.318838 10.933777 11.036727    -0.000322    0.007205   -0.076845  
     11.859034 10.933789 11.036712     0.000395   -0.006778    0.077396  
      9.921619 11.781971 11.608138    -0.137802   -0.281395    0.320819  
      9.921618 10.014823 11.485556    -0.148713    0.233608    0.344998  
      9.921618 11.004556 10.016454     0.287879   -0.002922   -0.113723  
     12.256257 10.863011 12.056988    -0.288662    0.001489    0.113986  
     12.256258 11.852742 10.587884     0.148437   -0.234289   -0.346898  
     12.256258 10.085591 10.465303     0.138540    0.281986   -0.321073  

  11 f  =   41.918083 THz   263.379082 2PiTHz 1398.236737 cm-1   173.359183 meV
             X         Y         Z           dx          dy          dz
     10.318838 10.933777 11.036727    -0.302387   -0.000137    0.000156  
     11.859034 10.933789 11.036712     0.305156    0.000189    0.000011  
      9.921619 11.781971 11.608138     0.334848    0.125546    0.083584  
      9.921618 10.014823 11.485556     0.334761   -0.135832    0.065564  
      9.921618 11.004556 10.016454     0.333895    0.010616   -0.150087  
     12.256257 10.863011 12.056988    -0.337344   -0.010903    0.151577  
     12.256258 11.852742 10.587884    -0.337950    0.136862   -0.066606  
     12.256258 10.085591 10.465303    -0.337947   -0.126480   -0.084580  

  12 f  =   41.781100 THz   262.518395 2PiTHz 1393.667490 cm-1   172.792669 meV
             X         Y         Z           dx          dy          dz
     10.318838 10.933777 11.036727    -0.295911    0.000062    0.000225  
     11.859034 10.933789 11.036712    -0.292689   -0.000126    0.000145  
      9.921619 11.781971 11.608138     0.341786    0.124256    0.083278  
      9.921618 10.014823 11.485556     0.341578   -0.134574    0.065150  
      9.921618 11.004556 10.016454     0.341527    0.010203   -0.149058  
     12.256257 10.863011 12.056988     0.338180    0.010480   -0.147609  
     12.256258 11.852742 10.587884     0.338568   -0.133316    0.064662  
     12.256258 10.085591 10.465303     0.338778    0.123252    0.082317  

  13 f  =   36.016726 THz   226.299765 2PiTHz 1201.388668 cm-1   148.953144 meV
             X         Y         Z           dx          dy          dz
     10.318838 10.933777 11.036727    -0.000211   -0.065901   -0.407165  
     11.859034 10.933789 11.036712     0.000076    0.066016    0.407224  
      9.921619 11.781971 11.608138     0.283002   -0.058200    0.149403  
      9.921618 10.014823 11.485556     0.119791    0.076613    0.190827  
      9.921618 11.004556 10.016454    -0.403018    0.045170    0.053448  
     12.256257 10.863011 12.056988     0.403165   -0.045348   -0.053504  
     12.256258 11.852742 10.587884    -0.119499   -0.076775   -0.190975  
     12.256258 10.085591 10.465303    -0.283047    0.058187   -0.149407  

  14 f  =   36.014294 THz   226.284480 2PiTHz 1201.307524 cm-1   148.943083 meV
             X         Y         Z           dx          dy          dz
     10.318838 10.933777 11.036727    -0.000245    0.407212   -0.065970  
     11.859034 10.933789 11.036712     0.000353   -0.407187    0.065988  
      9.921619 11.781971 11.608138    -0.301786   -0.112993    0.100530  
      9.921618 10.014823 11.485556     0.396039   -0.071465   -0.033996  
      9.921618 11.004556 10.016454    -0.094299   -0.209223   -0.002747  
     12.256257 10.863011 12.056988     0.094227    0.209167    0.002810  
     12.256258 11.852742 10.587884    -0.396321    0.071523    0.033864  
     12.256258 10.085591 10.465303     0.301838    0.112971   -0.100492  

  15 f  =   28.802262 THz   180.969950 2PiTHz  960.740047 cm-1   119.116531 meV
             X         Y         Z           dx          dy          dz
     10.318838 10.933777 11.036727     0.627425    0.000027   -0.000098  
     11.859034 10.933789 11.036712    -0.627811   -0.000169    0.000319  
      9.921619 11.781971 11.608138     0.188064    0.002022    0.001127  
      9.921618 10.014823 11.485556     0.188185   -0.002096    0.000971  
      9.921618 11.004556 10.016454     0.188037    0.000258   -0.002318  
     12.256257 10.863011 12.056988    -0.187683   -0.000124    0.002209  
     12.256258 11.852742 10.587884    -0.188338    0.002069   -0.001035  
     12.256258 10.085591 10.465303    -0.187945   -0.001714   -0.001434  

  16 f  =   24.448212 THz   153.612648 2PiTHz  815.504578 cm-1   101.109636 meV
             X         Y         Z           dx          dy          dz
     10.318838 10.933777 11.036727     0.000175   -0.049587   -0.152237  
     11.859034 10.933789 11.036712    -0.000095   -0.049611   -0.152024  
      9.921619 11.781971 11.608138     0.390865    0.025562    0.178190  
      9.921618 10.014823 11.485556     0.068902    0.074983    0.202016  
      9.921618 11.004556 10.016454    -0.459675    0.071439    0.147331  
     12.256257 10.863011 12.056988    -0.459697    0.071458    0.147348  
     12.256258 11.852742 10.587884     0.068853    0.074931    0.202026  
     12.256258 10.085591 10.465303     0.390656    0.025563    0.178169  

  17 f  =   24.426804 THz   153.478137 2PiTHz  814.790480 cm-1   101.021099 meV
             X         Y         Z           dx          dy          dz
     10.318838 10.933777 11.036727    -0.000071   -0.152383    0.049482  
     11.859034 10.933789 11.036712     0.000341   -0.152076    0.049724  
      9.921619 11.781971 11.608138     0.305054    0.173269   -0.088608  
      9.921618 10.014823 11.485556    -0.491086    0.149366   -0.039914  
      9.921618 11.004556 10.016454     0.185714    0.204945   -0.043348  
     12.256257 10.863011 12.056988     0.185915    0.204945   -0.043286  
     12.256258 11.852742 10.587884    -0.490976    0.149357   -0.040028  
     12.256258 10.085591 10.465303     0.305073    0.173316   -0.088573  

  18 f  =    8.956779 THz    56.277102 2PiTHz  298.765985 cm-1    37.042244 meV
             X         Y         Z           dx          dy          dz
     10.318838 10.933777 11.036727    -0.000105   -0.000352    0.000204  
     11.859034 10.933789 11.036712     0.000009   -0.000401   -0.000154  
      9.921619 11.781971 11.608138     0.000552    0.228108   -0.338249  
      9.921618 10.014823 11.485556    -0.000545    0.179160    0.366658  
      9.921618 11.004556 10.016454    -0.000081   -0.406620   -0.028135  
     12.256257 10.863011 12.056988     0.000108   -0.407344   -0.028323  
     12.256258 11.852742 10.587884    -0.000588    0.179456    0.367128  
     12.256258 10.085591 10.465303     0.000531    0.228505   -0.339047  

  19 f  =    0.382421 THz     2.402819 2PiTHz   12.756177 cm-1     1.581564 meV
             X         Y         Z           dx          dy          dz
     10.318838 10.933777 11.036727    -0.009122    0.141074    0.274980  
     11.859034 10.933789 11.036712    -0.009280   -0.336384   -0.599215  
      9.921619 11.781971 11.608138     0.166944    0.043890    0.192486  
      9.921618 10.014823 11.485556    -0.011374    0.050869    0.092354  
      9.921618 11.004556 10.016454    -0.163499    0.134123    0.148473  
     12.256257 10.863011 12.056988     0.158187   -0.189971   -0.241992  
     12.256258 11.852742 10.587884     0.005982   -0.107297   -0.186241  
     12.256258 10.085591 10.465303    -0.172057   -0.100349   -0.285768  

  20 f  =    0.168604 THz     1.059369 2PiTHz    5.624018 cm-1     0.697289 meV
             X         Y         Z           dx          dy          dz
     10.318838 10.933777 11.036727    -0.176622   -0.105459   -0.255836  
     11.859034 10.933789 11.036712    -0.176486   -0.694851    0.219609  
      9.921619 11.781971 11.608138    -0.008189   -0.004994   -0.081806  
      9.921618 10.014823 11.485556    -0.192483   -0.001064   -0.138944  
      9.921618 11.004556 10.016454     0.047827    0.046514   -0.106955  
     12.256257 10.863011 12.056988    -0.149596   -0.277266    0.096481  
     12.256258 11.852742 10.587884     0.090555   -0.229829    0.128447  
     12.256258 10.085591 10.465303    -0.093677   -0.225936    0.071408  

  21 f/i=    0.007123 THz     0.044753 2PiTHz    0.237589 cm-1     0.029457 meV
             X         Y         Z           dx          dy          dz
     10.318838 10.933777 11.036727     0.565158   -0.256854    0.123617  
     11.859034 10.933789 11.036712     0.564990   -0.255695    0.122219  
      9.921619 11.781971 11.608138     0.162980   -0.073643    0.034904  
      9.921618 10.014823 11.485556     0.163413   -0.073767    0.036694  
      9.921618 11.004556 10.016454     0.162752   -0.075257    0.035712  
     12.256257 10.863011 12.056988     0.163249   -0.072646    0.035217  
     12.256258 11.852742 10.587884     0.162710   -0.074205    0.034175  
     12.256258 10.085591 10.465303     0.162949   -0.074298    0.036036  

  22 f/i=    0.084898 THz     0.533429 2PiTHz    2.831890 cm-1     0.351109 meV
             X         Y         Z           dx          dy          dz
     10.318838 10.933777 11.036727     0.178565    0.168243   -0.713210  
     11.859034 10.933789 11.036712     0.178497    0.076303   -0.415267  
      9.921619 11.781971 11.608138     0.034238    0.056043   -0.228928  
      9.921618 10.014823 11.485556     0.010641    0.055914   -0.226892  
      9.921618 11.004556 10.016454     0.109695    0.054222   -0.228047  
     12.256257 10.863011 12.056988    -0.006749    0.016178   -0.097556  
     12.256258 11.852742 10.587884     0.092398    0.014736   -0.098521  
     12.256258 10.085591 10.465303     0.068769    0.014588   -0.096767  

  23 f/i=    0.196953 THz     1.237490 2PiTHz    6.569636 cm-1     0.814531 meV
             X         Y         Z           dx          dy          dz
     10.318838 10.933777 11.036727     0.132957    0.735805    0.111659  
     11.859034 10.933789 11.036712     0.132945    0.038218    0.288378  
      9.921619 11.781971 11.608138     0.130286    0.234727    0.062854  
      9.921618 10.014823 11.485556    -0.096689    0.241052   -0.028478  
      9.921618 11.004556 10.016454     0.081465    0.317012    0.022693  
     12.256257 10.863011 12.056988    -0.004643   -0.093712    0.092674  
     12.256258 11.852742 10.587884     0.173323   -0.017667    0.143913  
     12.256258 10.085591 10.465303    -0.053631   -0.011333    0.052461  

  24 f/i=    1.205282 THz     7.573008 2PiTHz   40.203869 cm-1     4.984642 meV
             X         Y         Z           dx          dy          dz
     10.318838 10.933777 11.036727    -0.000287    0.109206    0.035038  
     11.859034 10.933789 11.036712    -0.000331   -0.100449   -0.029506  
      9.921619 11.781971 11.608138     0.040372    0.270546   -0.316586  
      9.921618 10.014823 11.485556    -0.030955    0.222598    0.374050  
      9.921618 11.004556 10.016454    -0.009610   -0.351358   -0.012750  
     12.256257 10.863011 12.056988     0.009431    0.353169    0.014277  
     12.256258 11.852742 10.587884     0.030770   -0.219761   -0.371854  
     12.256258 10.085591 10.465303    -0.040559   -0.267652    0.317623  

 Finite differences POTIM=   1.0000000000000000E-002
     LOOP+:  cpu time    369.2547: real time    369.5073
    4ORBIT:  cpu time      0.0001: real time      0.0223

 total amount of memory used by VASP MPI-rank0    93587. kBytes
=======================================================================

   base      :      30000. kBytes
   nonl-proj :       5734. kBytes
   fftplans  :      19615. kBytes
   grid      :      37160. kBytes
   one-center:          1. kBytes
   wavefun   :       1077. kBytes

  
  
 General timing and accounting informations for this job:
 ========================================================
  
                  Total CPU time used (sec):    19172.703
                            User time (sec):    19166.439
                          System time (sec):        6.264
                         Elapsed time (sec):    19195.365
  
                   Maximum memory used (kb):      358208.
                   Average memory used (kb):          N/A
  
                          Minor page faults:        42891
                          Major page faults:           40
                 Voluntary context switches:        50812
