 **********************************************************************
                          MRCC program system
 **********************************************************************
 
                              Written by
     Mihaly Kallay, Peter R. Nagy, David Mester, Laszlo Gyevi-Nagy,
        Jozsef Csoka, P. Bernat Szabo, Zoltan Rolik, Gyula Samu,
     Jozsef Csontos, Bence Hegely, Adam Ganyecz, Istvan Ladjanszki,
       Lorant Szegedy, Bence Ladoczki, Klara Petrov, Mate Farkas,
                    Pal D. Mezei, and Reka A. Horvath
 
        Department of Physical Chemistry and Materials Science
            Budapest University of Technology and Economics
                  Budapest P.O.Box 91, H-1521 Hungary
 
                              www.mrcc.hu
 
                      Release date: March 18, 2022

 ************************ 2023-02-05 13:12:26 *************************
 Executing minp...

 Reading input from MINP...
 
 Input file:
 
calc=FNO-CCSD(T)
verbosity=3
mem=220GB
unit=angs
scfiguess=small
scfalg=locfit1
ccmaxit=400
ccsdalg=dfdirect
ccsdthreads=4
ccsdmkl=thr
ptthreads=4
lnoepsv=1e-5
naf_cor=1e-2
basis=aug-cc-pVTZ
basis_sm=def2-SVP
dfbasis_scf=def2-QZVPP-RI-JK
dfbasis_cor=aug-cc-pVTZ-RI
unit=angs
geom=xyz
16

C    34.41670262    34.07107264    10.41543014
C    33.11117461    33.45680459    10.91530835
H    34.24160149    35.00442132     9.86225048
H    34.94674030    33.36940783     9.75379242
H    35.10002891    34.30603621    11.24227357
H    32.42643037    33.26105434    10.07939442
H    32.59136835    34.12756100    11.61262818
H    33.28915165    32.50678735    11.43686767
C    34.41672034    38.29159093    10.41548088
C    33.11116301    37.67729539    10.91529140
H    34.24151778    39.22503006     9.86250154
H    34.94669279    37.58971855     9.75399090
H    35.10030311    38.52667515    11.24209422
H    32.42628860    37.48139737    10.07951373
H    32.59132561    38.34822797    11.61243196
H    33.28922462    36.72719264    11.43663402

--------------------Output has been truncated-------------------------


--------------------Output has been truncated-------------------------


--------------------Output has been truncated-------------------------


--------------------Output has been truncated-------------------------


--------------------Output has been truncated-------------------------


--------------------Output has been truncated-------------------------


--------------------Output has been truncated-------------------------


--------------------Output has been truncated-------------------------


--------------------Output has been truncated-------------------------


--------------------Output has been truncated-------------------------


 
 Reference energy [au]:                       -79.259570360905
 DF-MP2 singlet pair energy [au]:              -0.300451454143
 DF-MP2 triplet pair energy [au]:              -0.075054285786
 DF-SCS-MP2 correlation energy [au]:           -0.385559840234
 DF-SCS-MP2 energy [au]:                      -79.645130201139
 DF-SOS-MP2 correlation energy [au]:           -0.390586890386
 DF-SOS-MP2 energy [au]:                      -79.650157251291
 DF-MP2 correlation energy [au]:               -0.375505739929
 DF-MP2 energy [au]:                          -79.635076100834

 Results in FNO basis:
 
 
 Reference energy [au]:                       -79.259570360905
 DF-MP2 singlet pair energy [au]:              -0.299249444112
 DF-MP2 triplet pair energy [au]:              -0.074946051306
 DF-SCS-MP2 correlation energy [au]:           -0.384081350037
 DF-SCS-MP2 energy [au]:                      -79.643651710942
 DF-SOS-MP2 correlation energy [au]:           -0.389024277346
 DF-SOS-MP2 energy [au]:                      -79.648594638251
 DF-MP2 correlation energy [au]:               -0.374195495418
 DF-MP2 energy [au]:                          -79.633765856324

 Results in NAF basis:
 
 
 Reference energy [au]:                       -79.259570360905
 DF-MP2 singlet pair energy [au]:              -0.299187004969
 DF-MP2 triplet pair energy [au]:              -0.074984647671
 DF-SCS-MP2 correlation energy [au]:           -0.384019288519
 DF-SCS-MP2 energy [au]:                      -79.643589649425
 DF-SOS-MP2 correlation energy [au]:           -0.388943106459
 DF-SOS-MP2 energy [au]:                      -79.648513467365
 DF-MP2 correlation energy [au]:               -0.374171652639
 DF-MP2 energy [au]:                          -79.633742013545

 ************************ 2023-02-05 13:13:03 *************************
 Executing ccsd...

 Allocation of 220.0 Gbytes of memory...

 Direct DF-CCSD(T) calculation
 
 Convergence criterion:  1.0E-06
 
 Number of occupied/virtual/auxiliary orbitals:     7   140   380
    430.12 MB is the minimal memory requirement for (T)
     96.48 MB is the minimal memory requirement for CCSD
 
 Reference energy [au]:             -79.259570360905
 T1 contribution [au]:                0.000000000000
 Same spin MP2 energy [au]:          -0.074965290249
 Opposite spin MP2 energy [au]:      -0.299218052303
 MP2 correlation energy [au]:        -0.374183342552
 Total MP2 energy [au]:             -79.633753703457
 MP2 correction [au]:                -0.001322397377
 
 
 CPU time [min]:     0.318                   Wall time [min]:     0.017
 
 Starting CCSD iterations...
 
                     Residual norm          Energy
 Iteration  1        0.170769120653      -79.654660870683
 Iteration  2        0.042474189726      -79.664226324794
 Iteration  3        0.011308401736      -79.665183823013
 Iteration  4        0.002550192501      -79.665192105496
 Iteration  5        0.000537252000      -79.665197305986
 Iteration  6        0.000152494865      -79.665200375644
 Iteration  7        0.000036314446      -79.665200157001
 Iteration  8        0.000009263380      -79.665200450395
 
 CCSD iteration has converged in  8 steps.
     1577.91 MB memory was utilized by CCSD
 
 T1 diagnostic:      7.817E-03            D1 diagnostic:      1.354E-02
 
 T1 contribution [au]:                                  0.000000000000
 PPL energy contribution [au]:                          0.102992301420
 Scaled PPL energy contribution [au]:                   0.103360962063

 OS-PPL energy contribution [au]:                       0.090036428041
 Scaled OS-PPL energy contribution [au]:                0.090417670839
 SS-PPL energy contribution [au]:                       0.012955873379
 Scaled SS-PPL energy contribution [au]:                0.012968109175

 Opposite spin CCSD energy [au]:                       -0.334432181425
 Same spin CCSD energy [au]:                           -0.071217674771
 CCSD correlation energy [au]:                         -0.405649856196
 CCSD correlation energy + MP2 correction [au]:        -0.406972253572
 CCSD correlation energy + MP2 + PPL corr. [au]:       -0.406603592929
 Total CCSD energy [au]:                              -79.665220217101
 Total CCSD energy + MP2 correction [au]:             -79.666542614478
 Total CCSD energy + MP2 + PPL corr. [au]:            -79.666173953835
 
 CPU time [min]:     2.774                   Wall time [min]:     0.089
 
 Calculation of (T) correction...
 
 
      397.08 MB memory is utilized for (T)

 0%       25%       50%       75%       100%
 |---------|---------|---------|---------| 
 
 (T) correction [au]:                                    -0.013971035272
 (T*) correction [au]:                                   -0.014020410159
 (T+) correction [au]:                                   -0.014019866866
 CCSD(T) correlation energy [au]:                        -0.419620891468
 CCSD(T) correlation energy + MP2 correction [au]:       -0.420943288844
 CCSD(T+) correlation en. + MP2 + PPL corr. [au]:        -0.420623459795
 Total CCSD(T) energy [au]:                             -79.679191252373
 Total CCSD(T) energy + MP2 correction [au]:            -79.680513649750
 Total CCSD(T+) energy + MP2 + PPL corr. [au]:          -79.680193820701
 
 CPU time [min]:     3.484                   Wall time [min]:     0.115
 
 ************************ 2023-02-05 13:13:10 *************************
                      Normal termination of mrcc.
 **********************************************************************
