 vasp.6.3.0 20Jan22 (build Dec 25 2023 18:06:01) complex                         
 executed on        HPECrayEX_GCC date 2024.11.20  21:22:14
 running 1024 mpi-ranks, with    1 threads/rank
 distrk:  each k-point on 1024 cores,    1 groups
 distr:  one band on NCORE=   8 cores,  128 groups


--------------------------------------------------------------------------------------------------------


 INCAR:
   SYSTEM = TiO2
   ISMEAR = 0
   SIGMA = 0.05
   EDIFF = 1E-7
   ALGO = Normal
   ISTART = 0
   IBRION = 2
   NSW = 1000
   ISYM = 0
   ISIF = 2
   EDIFFG = -0.01
   DIPOL = 0.5 0.5 0.5
   IDIPOL = 3
   LDIPOL = .TRUE.
   GGA = RE
   IVDW = 13
   VDW_S8 = 1.7468
   VDW_A1 = 0.5363
   VDW_A2 = 3.0726
   ENCUT = 600
   PREC = Accurate
   LASPH = .TRUE.
   LREAL = .FALSE.
   ISPIN = 1
   NELM = 200
   NELMIN = 8
   NCORE = 8
   KPAR = 1
   LWAVE = .FALSE.
   LCHARG = .FALSE.

 POTCAR:    PAW_PBE N 08Apr2002                   
 POTCAR:    PAW_PBE H 15Jun2001                   
 POTCAR:    PAW_PBE Ti_pv 07Sep2000               
 POTCAR:    PAW_PBE O 08Apr2002                   
 POTCAR:    PAW_PBE N 08Apr2002                   
   SHA256 =  e053789ff3a61a86a1b75d8a110fcc91f86041011e7b0817c7c99e4e8a6349d7 N/POTCAR              
   COPYR  = (c) Copyright 08Apr2002 Georg Kresse                                                    
   COPYR  = This file is part of the software VASP. Any use, copying, and all other rights are regul
   COPYR  = If you do not have a valid VASP license, you may not use, copy or distribute this file. 
   VRHFIN =N: s2p3                                                                                  
   LEXCH  = PE                                                                                      
   EATOM  =   264.5486 eV,   19.4438 Ry                                                             
                                                                                                    
   TITEL  = PAW_PBE N 08Apr2002                                                                     
   LULTRA =        F    use ultrasoft PP ?                                                          
   IUNSCR =        1    unscreen: 0-lin 1-nonlin 2-no                                               
   RPACOR =    1.200    partial core radius                                                         
   POMASS =   14.001; ZVAL   =    5.000    mass and valenz                                          
   RCORE  =    1.500    outmost cutoff radius                                                       
   RWIGS  =    1.400; RWIGS  =    0.741    wigner-seitz radius (au A)                               
   ENMAX  =  400.000; ENMIN  =  300.000 eV                                                          
   ICORE  =        2    local potential                                                             
   LCOR   =        T    correct aug charges                                                         
   LPAW   =        T    paw PP                                                                      
   EAUG   =  627.112                                                                                
   DEXC   =    0.000                                                                                
   RMAX   =    1.529    core radius for proj-oper                                                   
   RAUG   =    1.300    factor for augmentation sphere                                              
   RDEP   =    1.514    radius for radial grids                                                     
   RDEPT  =    1.338    core radius for aug-charge                                                  
                                                                                                    
   Atomic configuration                                                                             
    4 entries                                                                                       
     n  l   j            E        occ.                                                              
     1  0  0.50      -384.7179   2.0000                                                             
     2  0  0.50       -18.5828   2.0000                                                             
     2  1  0.50        -7.0898   3.0000                                                             
     3  2  1.50        -6.8029   0.0000                                                             
   Description                                                                                      
     l       E           TYP  RCUT    TYP  RCUT                                                     
     0    -18.5828119     23  1.200                                                                 
     0    -13.5018863     23  1.200                                                                 
     1     -7.0897853     23  1.500                                                                 
     1      9.5240782     23  1.500                                                                 
     2     -6.8029130      7  1.500                                                                 
  local pseudopotential read in
  partial core-charges read in
  partial kinetic energy density read in
  atomic valenz-charges read in
  non local Contribution for L=           0  read in
    real space projection operators read in
  non local Contribution for L=           0  read in
    real space projection operators read in
  non local Contribution for L=           1  read in
    real space projection operators read in
  non local Contribution for L=           1  read in
    real space projection operators read in
    PAW grid and wavefunctions read in

   number of l-projection  operators is LMAX  =           4
   number of lm-projection operators is LMMAX =           8

 POTCAR:    PAW_PBE H 15Jun2001                   
   SHA256 =  030f79b5d3ab3cf0e668861823c8fb652ff669f3e15e46930bd03bfd63a607b6 H/POTCAR              
   COPYR  = (c) Copyright 15Jun2001 Georg Kresse                                                    
   COPYR  = This file is part of the software VASP. Any use, copying, and all other rights are regul
   COPYR  = If you do not have a valid VASP license, you may not use, copy or distribute this file. 
   VRHFIN =H: ultrasoft test                                                                        
   LEXCH  = PE                                                                                      
   EATOM  =    12.4884 eV,    0.9179 Ry                                                             
                                                                                                    
   TITEL  = PAW_PBE H 15Jun2001                                                                     
   LULTRA =        F    use ultrasoft PP ?                                                          
   IUNSCR =        0    unscreen: 0-lin 1-nonlin 2-no                                               
   RPACOR =    0.000    partial core radius                                                         
   POMASS =    1.000; ZVAL   =    1.000    mass and valenz                                          
   RCORE  =    1.100    outmost cutoff radius                                                       
   RWIGS  =    0.700; RWIGS  =    0.370    wigner-seitz radius (au A)                               
   ENMAX  =  250.000; ENMIN  =  200.000 eV                                                          
   RCLOC  =    0.701    cutoff for local pot                                                        
   LCOR   =        T    correct aug charges                                                         
   LPAW   =        T    paw PP                                                                      
   EAUG   =  400.000                                                                                
   RMAX   =    1.123    core radius for proj-oper                                                   
   RAUG   =    1.200    factor for augmentation sphere                                              
   RDEP   =    1.112    radius for radial grids                                                     
   RDEPT  =    0.926    core radius for aug-charge                                                  
                                                                                                    
   Atomic configuration                                                                             
    2 entries                                                                                       
     n  l   j            E        occ.                                                              
     1  0  0.50        -6.4927   1.0000                                                             
     2  1  0.50        -3.4015   0.0000                                                             
   Description                                                                                      
     l       E           TYP  RCUT    TYP  RCUT                                                     
     0     -6.4927494     23  1.100                                                                 
     0      6.8029130     23  1.100                                                                 
     1     -4.0817478     23  1.100                                                                 
  local pseudopotential read in
  atomic valenz-charges read in
  non local Contribution for L=           0  read in
    real space projection operators read in
  non local Contribution for L=           0  read in
    real space projection operators read in
  non local Contribution for L=           1  read in
    real space projection operators read in
    PAW grid and wavefunctions read in

   number of l-projection  operators is LMAX  =           3
   number of lm-projection operators is LMMAX =           5

 POTCAR:    PAW_PBE Ti_pv 07Sep2000               
   SHA256 =  f757a1b2c6d082f4c628fa3d987464a8763bf92e53844ac0500b0e2ddc9ce5c0 Ti_pv/POTCAR          
   COPYR  = (c) Copyright 07Sep2000 Georg Kresse                                                    
   COPYR  = This file is part of the software VASP. Any use, copying, and all other rights are regul
   COPYR  = If you do not have a valid VASP license, you may not use, copy or distribute this file. 
   VRHFIN =Ti: d3 s1                                                                                
   LEXCH  = PE                                                                                      
   EATOM  =  1042.5995 eV,   76.6289 Ry                                                             
                                                                                                    
   TITEL  = PAW_PBE Ti_pv 07Sep2000                                                                 
   LULTRA =        F    use ultrasoft PP ?                                                          
   IUNSCR =        1    unscreen: 0-lin 1-nonlin 2-no                                               
   RPACOR =    2.200    partial core radius                                                         
   POMASS =   47.880; ZVAL   =   10.000    mass and valenz                                          
   RCORE  =    2.500    outmost cutoff radius                                                       
   RWIGS  =    2.500; RWIGS  =    1.323    wigner-seitz radius (au A)                               
   ENMAX  =  222.335; ENMIN  =  166.751 eV                                                          
   RCLOC  =    1.701    cutoff for local pot                                                        
   LCOR   =        T    correct aug charges                                                         
   LPAW   =        T    paw PP                                                                      
   EAUG   =  482.848                                                                                
   DEXC   =    0.000                                                                                
   RMAX   =    2.564    core radius for proj-oper                                                   
   RAUG   =    1.300    factor for augmentation sphere                                              
   RDEP   =    2.538    radius for radial grids                                                     
   RDEPT  =    1.952    core radius for aug-charge                                                  
                                                                                                    
   Atomic configuration                                                                             
    8 entries                                                                                       
     n  l   j            E        occ.                                                              
     1  0  0.50     -4865.3608   2.0000                                                             
     2  0  0.50      -533.1368   2.0000                                                             
     2  1  1.50      -440.5031   6.0000                                                             
     3  0  0.50       -59.3186   2.0000                                                             
     3  1  1.50       -35.7012   6.0000                                                             
     3  2  2.50        -1.9157   3.0000                                                             
     4  0  0.50        -3.7291   1.0000                                                             
     4  3  2.50        -1.3606   0.0000                                                             
   Description                                                                                      
     l       E           TYP  RCUT    TYP  RCUT                                                     
     1    -35.7012140     23  2.300                                                                 
     1     -1.3605826     23  2.300                                                                 
     2     -1.9156996     23  2.500                                                                 
     2     -0.4063033     23  2.500                                                                 
     0     -3.7290856     23  2.500                                                                 
     0     20.4087390     23  2.500                                                                 
  local pseudopotential read in
  partial core-charges read in
  partial kinetic energy density read in
  atomic valenz-charges read in
  non local Contribution for L=           1  read in
    real space projection operators read in
  non local Contribution for L=           1  read in
    real space projection operators read in
  non local Contribution for L=           2  read in
    real space projection operators read in
  non local Contribution for L=           2  read in
    real space projection operators read in
  non local Contribution for L=           0  read in
    real space projection operators read in
  non local Contribution for L=           0  read in
    real space projection operators read in
    PAW grid and wavefunctions read in

   number of l-projection  operators is LMAX  =           6
   number of lm-projection operators is LMMAX =          18

 POTCAR:    PAW_PBE O 08Apr2002                   
   SHA256 =  818f92134a0a090dccd8ba1447fa70422a3b330e708bb4f08108d8ae51209ddf O/POTCAR              
   COPYR  = (c) Copyright 08Apr2002 Georg Kresse                                                    
   COPYR  = This file is part of the software VASP. Any use, copying, and all other rights are regul
   COPYR  = If you do not have a valid VASP license, you may not use, copy or distribute this file. 
   VRHFIN =O: s2p4                                                                                  
   LEXCH  = PE                                                                                      
   EATOM  =   432.3788 eV,   31.7789 Ry                                                             
                                                                                                    
   TITEL  = PAW_PBE O 08Apr2002                                                                     
   LULTRA =        F    use ultrasoft PP ?                                                          
   IUNSCR =        1    unscreen: 0-lin 1-nonlin 2-no                                               
   RPACOR =    1.200    partial core radius                                                         
   POMASS =   16.000; ZVAL   =    6.000    mass and valenz                                          
   RCORE  =    1.520    outmost cutoff radius                                                       
   RWIGS  =    1.550; RWIGS  =    0.820    wigner-seitz radius (au A)                               
   ENMAX  =  400.000; ENMIN  =  300.000 eV                                                          
   ICORE  =        2    local potential                                                             
   LCOR   =        T    correct aug charges                                                         
   LPAW   =        T    paw PP                                                                      
   EAUG   =  605.392                                                                                
   DEXC   =    0.000                                                                                
   RMAX   =    1.553    core radius for proj-oper                                                   
   RAUG   =    1.300    factor for augmentation sphere                                              
   RDEP   =    1.550    radius for radial grids                                                     
   RDEPT  =    1.329    core radius for aug-charge                                                  
                                                                                                    
   Atomic configuration                                                                             
    4 entries                                                                                       
     n  l   j            E        occ.                                                              
     1  0  0.50      -514.6923   2.0000                                                             
     2  0  0.50       -23.9615   2.0000                                                             
     2  1  0.50        -9.0305   4.0000                                                             
     3  2  1.50        -9.5241   0.0000                                                             
   Description                                                                                      
     l       E           TYP  RCUT    TYP  RCUT                                                     
     0    -23.9615318     23  1.200                                                                 
     0     -9.5240782     23  1.200                                                                 
     1     -9.0304911     23  1.520                                                                 
     1      8.1634956     23  1.520                                                                 
     2     -9.5240782      7  1.500                                                                 
  local pseudopotential read in
  partial core-charges read in
  partial kinetic energy density read in
  kinetic energy density of atom read in
  atomic valenz-charges read in
  non local Contribution for L=           0  read in
    real space projection operators read in
  non local Contribution for L=           0  read in
    real space projection operators read in
  non local Contribution for L=           1  read in
    real space projection operators read in
  non local Contribution for L=           1  read in
    real space projection operators read in
    PAW grid and wavefunctions read in

   number of l-projection  operators is LMAX  =           4
   number of lm-projection operators is LMMAX =           8

 -----------------------------------------------------------------------------
|                                                                             |
|               ----> ADVICE to this user running VASP <----                  |
|                                                                             |
|     You have a (more or less) 'large supercell' and for larger cells it     |
|     might be more efficient to use real-space projection operators.         |
|     Therefore, try LREAL= Auto in the INCAR file.                           |
|     Mind: For very accurate calculation, you might also keep the            |
|     reciprocal projection scheme (i.e. LREAL=.FALSE.).                      |
|                                                                             |
 -----------------------------------------------------------------------------

 -----------------------------------------------------------------------------
|                                                                             |
|               ----> ADVICE to this user running VASP <----                  |
|                                                                             |
|     You enforced a specific xc type in the INCAR file but a different       |
|     type was found in the POTCAR file.                                      |
|     I HOPE YOU KNOW WHAT YOU ARE DOING!                                     |
|                                                                             |
 -----------------------------------------------------------------------------

  PAW_PBE N 08Apr2002                   :
 energy of atom  1       EATOM= -264.5486
 kinetic energy error for atom=    0.0103 (will be added to EATOM!!)
  PAW_PBE H 15Jun2001                   :
 energy of atom  2       EATOM=  -12.4884
 kinetic energy error for atom=    0.0004 (will be added to EATOM!!)
  PAW_PBE Ti_pv 07Sep2000               :
 energy of atom  3       EATOM=-1042.5995
 kinetic energy error for atom=    0.0007 (will be added to EATOM!!)
  PAW_PBE O 08Apr2002                   :
 energy of atom  4       EATOM= -432.3788
 kinetic energy error for atom=    0.0168 (will be added to EATOM!!)


 POSCAR:  N  H Ti  O
  positions in direct lattice
  No initial velocities read in
 -----------------------------------------------------------------------------
|                                                                             |
|           W    W    AA    RRRRR   N    N  II  N    N   GGGG   !!!           |
|           W    W   A  A   R    R  NN   N  II  NN   N  G    G  !!!           |
|           W    W  A    A  R    R  N N  N  II  N N  N  G       !!!           |
|           W WW W  AAAAAA  RRRRR   N  N N  II  N  N N  G  GGG   !            |
|           WW  WW  A    A  R   R   N   NN  II  N   NN  G    G                |
|           W    W  A    A  R    R  N    N  II  N    N   GGGG   !!!           |
|                                                                             |
|     Specifying the vdW parameters                                           |
|     VDW_S8 = 1.747                                                          |
|     VDW_A1 = 0.536                                                          |
|     VDW_A2 = 3.073                                                          |
|     in the INCAR file will overwrite the defaults for revpbe. Please        |
|     make sure that is what you intended.                                    |
|                                                                             |
 -----------------------------------------------------------------------------

 exchange correlation table for  LEXCH =       40
   RHO(1)=    0.500       N(1)  =     2000
   RHO(2)=  100.500       N(2)  =     4000



--------------------------------------------------------------------------------------------------------


 ion  position               nearest neighbor table
   1  0.609  0.500  0.773-   2 1.02   4 1.02   3 1.02  52 2.30
   2  0.546  0.500  0.801-   1 1.02
   3  0.668  0.428  0.776-   1 1.02
   4  0.668  0.572  0.776-   1 1.02
   5  0.808  0.833  0.295-  89 1.94  57 1.94  55 1.94  54 1.99  56 1.99  22 3.05   8 3.05   6 3.05

   6  0.592  0.667  0.327-  53 1.94 120 1.94  56 1.94  58 1.94  57 1.99  59 1.99  37 3.05   7 3.05
                             5 3.05  11 3.08
   7  0.308  0.667  0.295- 125 1.94  61 1.94  59 1.94  53 1.99  60 1.99  40 3.05   6 3.05   8 3.05

   8  0.092  0.833  0.327-  54 1.94  92 1.94  60 1.94  62 1.94  61 1.99  55 1.99  23 3.05   5 3.05
                             7 3.05   9 3.08
   9  0.944  0.833  0.423-  63 1.92  65 1.93  97 1.93  55 1.98  64 1.98  62 2.01  12 3.00  10 3.05
                            26 3.05   8 3.08
  10  0.725  0.667  0.451-  58 1.89 128 1.94  64 1.94  66 1.97  67 1.98  65 2.01  11 3.00  41 3.05
                             9 3.05  15 3.11
  11  0.444  0.667  0.423-  67 1.92  69 1.93 133 1.93  59 1.98  68 1.98  58 2.01  10 3.00  44 3.05
                            12 3.05   6 3.08
  12  0.225  0.833  0.451-  62 1.89  68 1.94 100 1.94  70 1.97  63 1.98  69 2.01   9 3.00  11 3.05
                            27 3.05  13 3.11
  13  0.085  0.833  0.550-  71 1.92 105 1.93  73 1.93  72 1.98  63 2.00  70 2.01  16 2.95  30 3.05
                            14 3.05  12 3.11
  14  0.863  0.667  0.576-  66 1.86  72 1.94 136 1.94  75 1.95  74 2.01  73 2.02  15 2.95  13 3.05
                            45 3.05
  15  0.585  0.667  0.550-  75 1.92  77 1.93 141 1.93  76 1.98  67 2.00  66 2.01  14 2.95  48 3.05
                            16 3.05  10 3.11
  16  0.363  0.833  0.576-  70 1.86 108 1.94  76 1.94  71 1.95  78 2.01  77 2.02  13 2.95  31 3.05
                            15 3.05
  17  0.232  0.833  0.680-  79 1.86 113 1.93  81 1.93  80 2.00  78 2.09  71 2.09  20 2.84  34 3.07
                            18 3.07
  18  0.003  0.667  0.700-  74 1.78  82 1.83  80 1.98 144 1.98  81 2.06  19 2.84  17 3.07  49 3.07

  19  0.732  0.667  0.680-  82 1.86  84 1.93 148 1.93  83 2.00  74 2.09  75 2.09  18 2.84  20 3.07
                            52 3.07
  20  0.503  0.833  0.700-  78 1.78  79 1.83 115 1.98  83 1.98  84 2.06  17 2.84  35 3.07  19 3.07

  21  0.808  0.167  0.295-  89 1.94 121 1.94  87 1.94  86 1.99  88 1.99  22 3.05  24 3.05  38 3.05

  22  0.592  0.000  0.327-  85 1.94  56 1.94  88 1.94  90 1.94  89 1.99  91 1.99   5 3.05  21 3.05
                            23 3.05  27 3.08
  23  0.308  0.000  0.295-  61 1.94  93 1.94  91 1.94  85 1.99  92 1.99  24 3.05   8 3.05  22 3.05

  24  0.092  0.167  0.327-  86 1.94  92 1.94 124 1.94  94 1.94  93 1.99  87 1.99  23 3.05  21 3.05
                            39 3.05  25 3.08
  25  0.944  0.167  0.423-  95 1.92  97 1.93 129 1.93  87 1.98  96 1.98  94 2.01  28 3.00  42 3.05
                            26 3.05  24 3.08
  26  0.725  1.000  0.451-  90 1.89  96 1.94  64 1.94  98 1.97  99 1.98  97 2.01  27 3.00  25 3.05
                             9 3.05  31 3.11
  27  0.444  1.000  0.423-  99 1.92  69 1.93 101 1.93  91 1.98 100 1.98  90 2.01  26 3.00  12 3.05
                            28 3.05  22 3.08
  28  0.225  0.167  0.451-  94 1.89 100 1.94 132 1.94 102 1.97  95 1.98 101 2.01  25 3.00  27 3.05
                            43 3.05  29 3.11
  29  0.085  0.167  0.550- 103 1.92 105 1.93 137 1.93 104 1.98  95 2.00 102 2.01  32 2.95  30 3.05
                            46 3.05  28 3.11
  30  0.863  1.000  0.576-  98 1.86  72 1.94 104 1.94 107 1.95 106 2.01 105 2.02  31 2.95  13 3.05
                            29 3.05
  31  0.585  1.000  0.550- 107 1.92  77 1.93 109 1.93 108 1.98  99 2.00  98 2.01  30 2.95  16 3.05
                            32 3.05  26 3.11
  32  0.363  0.167  0.576- 102 1.86 140 1.94 108 1.94 103 1.95 110 2.01 109 2.02  29 2.95  47 3.05
                            31 3.05
  33  0.232  0.167  0.680- 111 1.86 145 1.93 113 1.93 112 2.00 110 2.09 103 2.09  36 2.84  50 3.07
                            34 3.07
  34  0.003  1.000  0.700- 106 1.78 114 1.83 112 1.98  80 1.98 113 2.06  35 2.84  17 3.07  33 3.07

  35  0.732  1.000  0.680- 114 1.86  84 1.93 116 1.93 115 2.00 106 2.09 107 2.09  34 2.84  20 3.07
                            36 3.07
  36  0.503  0.167  0.700- 110 1.78 111 1.83 115 1.98 147 1.98 116 2.06  33 2.84  51 3.07  35 3.07

  37  0.808  0.500  0.295-  57 1.94 121 1.94 119 1.94 118 1.99 120 1.99  38 3.05   6 3.05  40 3.05

  38  0.592  0.333  0.327- 117 1.94 120 1.94  88 1.94 122 1.94 121 1.99 123 1.99  37 3.05  39 3.05
                            21 3.05  43 3.08
  39  0.308  0.333  0.295- 125 1.94  93 1.94 123 1.94 117 1.99 124 1.99  40 3.05  38 3.05  24 3.05

  40  0.092  0.500  0.327- 118 1.94  60 1.94 124 1.94 126 1.94 125 1.99 119 1.99   7 3.05  39 3.05
                            37 3.05  41 3.08
  41  0.944  0.500  0.423- 127 1.92 129 1.93  65 1.93 119 1.98 128 1.98 126 2.01  44 3.00  10 3.05
                            42 3.05  40 3.08
  42  0.725  0.333  0.451- 122 1.89  96 1.94 128 1.94 130 1.97 131 1.98 129 2.01  43 3.00  25 3.05
                            41 3.05  47 3.11
  43  0.444  0.333  0.423- 131 1.92 101 1.93 133 1.93 123 1.98 132 1.98 122 2.01  42 3.00  28 3.05
                            44 3.05  38 3.08
  44  0.225  0.500  0.451- 126 1.89  68 1.94 132 1.94 134 1.97 127 1.98 133 2.01  41 3.00  11 3.05
                            43 3.05  45 3.11
  45  0.085  0.500  0.550- 135 1.92 137 1.93  73 1.93 136 1.98 127 2.00 134 2.01  48 2.95  46 3.05
                            14 3.05  44 3.11
  46  0.863  0.333  0.576- 130 1.86 136 1.94 104 1.94 139 1.95 138 2.01 137 2.02  47 2.95  45 3.05
                            29 3.05
  47  0.585  0.333  0.550- 139 1.92 141 1.93 109 1.93 140 1.98 131 2.00 130 2.01  46 2.95  48 3.05
                            32 3.05  42 3.11
  48  0.363  0.500  0.576- 134 1.86 140 1.94  76 1.94 135 1.95 142 2.01 141 2.02  45 2.95  47 3.05
                            15 3.05
  49  0.232  0.500  0.680- 143 1.86 145 1.93  81 1.93 144 2.00 142 2.09 135 2.09  52 2.84  50 3.07
                            18 3.07
  50  0.003  0.333  0.700- 138 1.78 146 1.83 144 1.98 112 1.98 145 2.06  51 2.84  49 3.07  33 3.07

  51  0.732  0.333  0.680- 146 1.86 148 1.93 116 1.93 147 2.00 138 2.09 139 2.09  50 2.84  52 3.07
                            36 3.07
  52  0.503  0.500  0.700- 142 1.78 143 1.83  83 1.98 147 1.98 148 2.06   1 2.30  49 2.84  51 3.07
                            19 3.07
  53  0.488  0.667  0.269-   6 1.94   7 1.99
  54  0.988  0.833  0.269-   8 1.94   5 1.99
  55  0.911  0.833  0.353-   5 1.94   9 1.98   8 1.99
  56  0.627  0.833  0.321-  22 1.94   6 1.94   5 1.99
  57  0.772  0.667  0.300-  37 1.94   5 1.94   6 1.99
  58  0.624  0.667  0.395-  10 1.89   6 1.94  11 2.01
  59  0.411  0.667  0.353-   7 1.94  11 1.98   6 1.99
  60  0.127  0.667  0.321-  40 1.94   8 1.94   7 1.99
  61  0.272  0.833  0.300-  23 1.94   7 1.94   8 1.99
  62  0.124  0.833  0.395-  12 1.89   8 1.94   9 2.01
  63  0.049  0.833  0.480-   9 1.92  12 1.98  13 2.00
  64  0.763  0.833  0.448-  10 1.94  26 1.94   9 1.98
  65  0.908  0.667  0.427-   9 1.93  41 1.93  10 2.01
  66  0.763  0.667  0.521-  14 1.86  10 1.97  15 2.01
  67  0.549  0.667  0.480-  11 1.92  10 1.98  15 2.00
  68  0.263  0.667  0.448-  44 1.94  12 1.94  11 1.98
  69  0.408  0.833  0.427-  27 1.93  11 1.93  12 2.01
  70  0.263  0.833  0.521-  16 1.86  12 1.97  13 2.01
  71  0.193  0.833  0.606-  13 1.92  16 1.95  17 2.09
  72  0.903  0.833  0.574-  30 1.94  14 1.94  13 1.98
  73  0.050  0.667  0.553-  13 1.93  45 1.93  14 2.02
  74  0.913  0.667  0.646-  18 1.78  14 2.01  19 2.09
  75  0.693  0.667  0.606-  15 1.92  14 1.95  19 2.09
  76  0.403  0.667  0.574-  16 1.94  48 1.94  15 1.98
  77  0.550  0.833  0.553-  31 1.93  15 1.93  16 2.02
  78  0.413  0.833  0.646-  20 1.78  16 2.01  17 2.09
  79  0.346  0.833  0.732-  20 1.83  17 1.86
  80  0.054  0.833  0.708-  18 1.98  34 1.98  17 2.00
  81  0.196  0.667  0.680-  17 1.93  49 1.93  18 2.06
  82  0.846  0.667  0.732-  18 1.83  19 1.86
  83  0.554  0.667  0.708-  52 1.98  20 1.98  19 2.00
  84  0.696  0.833  0.680-  35 1.93  19 1.93  20 2.06
  85  0.488  0.000  0.269-  22 1.94  23 1.99
  86  0.988  0.167  0.269-  24 1.94  21 1.99
  87  0.911  0.167  0.353-  21 1.94  25 1.98  24 1.99
  88  0.627  0.167  0.321-  22 1.94  38 1.94  21 1.99
  89  0.772  0.000  0.300-   5 1.94  21 1.94  22 1.99
  90  0.624  0.000  0.395-  26 1.89  22 1.94  27 2.01
  91  0.411  0.000  0.353-  23 1.94  27 1.98  22 1.99
  92  0.127  0.000  0.321-   8 1.94  24 1.94  23 1.99
  93  0.272  0.167  0.300-  23 1.94  39 1.94  24 1.99
  94  0.124  0.167  0.395-  28 1.89  24 1.94  25 2.01
  95  0.049  0.167  0.480-  25 1.92  28 1.98  29 2.00
  96  0.763  0.167  0.448-  26 1.94  42 1.94  25 1.98
  97  0.908  1.000  0.427-  25 1.93   9 1.93  26 2.01
  98  0.763  1.000  0.521-  30 1.86  26 1.97  31 2.01
  99  0.549  1.000  0.480-  27 1.92  26 1.98  31 2.00
 100  0.263  0.000  0.448-  28 1.94  12 1.94  27 1.98
 101  0.408  0.167  0.427-  43 1.93  27 1.93  28 2.01
 102  0.263  0.167  0.521-  32 1.86  28 1.97  29 2.01
 103  0.193  0.167  0.606-  29 1.92  32 1.95  33 2.09
 104  0.903  0.167  0.574-  46 1.94  30 1.94  29 1.98
 105  0.050  1.000  0.553-  13 1.93  29 1.93  30 2.02
 106  0.913  1.000  0.646-  34 1.78  30 2.01  35 2.09
 107  0.693  1.000  0.606-  31 1.92  30 1.95  35 2.09
 108  0.403  1.000  0.574-  16 1.94  32 1.94  31 1.98
 109  0.550  0.167  0.553-  47 1.93  31 1.93  32 2.02
 110  0.413  0.167  0.646-  36 1.78  32 2.01  33 2.09
 111  0.346  0.167  0.732-  36 1.83  33 1.86
 112  0.054  0.167  0.708-  34 1.98  50 1.98  33 2.00
 113  0.196  1.000  0.680-  17 1.93  33 1.93  34 2.06
 114  0.846  1.000  0.732-  34 1.83  35 1.86
 115  0.554  1.000  0.708-  20 1.98  36 1.98  35 2.00
 116  0.696  0.167  0.680-  51 1.93  35 1.93  36 2.06
 117  0.488  0.333  0.269-  38 1.94  39 1.99
 118  0.988  0.500  0.269-  40 1.94  37 1.99
 119  0.911  0.500  0.353-  37 1.94  41 1.98  40 1.99
 120  0.627  0.500  0.321-   6 1.94  38 1.94  37 1.99
 121  0.772  0.333  0.300-  37 1.94  21 1.94  38 1.99
 122  0.624  0.333  0.395-  42 1.89  38 1.94  43 2.01
 123  0.411  0.333  0.353-  39 1.94  43 1.98  38 1.99
 124  0.127  0.333  0.321-  40 1.94  24 1.94  39 1.99
 125  0.272  0.500  0.300-   7 1.94  39 1.94  40 1.99
 126  0.124  0.500  0.395-  44 1.89  40 1.94  41 2.01
 127  0.049  0.500  0.480-  41 1.92  44 1.98  45 2.00
 128  0.763  0.500  0.448-  10 1.94  42 1.94  41 1.98
 129  0.908  0.333  0.427-  25 1.93  41 1.93  42 2.01
 130  0.763  0.333  0.521-  46 1.86  42 1.97  47 2.01
 131  0.549  0.333  0.480-  43 1.92  42 1.98  47 2.00
 132  0.263  0.333  0.448-  28 1.94  44 1.94  43 1.98
 133  0.408  0.500  0.427-  43 1.93  11 1.93  44 2.01
 134  0.263  0.500  0.521-  48 1.86  44 1.97  45 2.01
 135  0.193  0.500  0.606-  45 1.92  48 1.95  49 2.09
 136  0.903  0.500  0.574-  46 1.94  14 1.94  45 1.98
 137  0.050  0.333  0.553-  45 1.93  29 1.93  46 2.02
 138  0.913  0.333  0.646-  50 1.78  46 2.01  51 2.09
 139  0.693  0.333  0.606-  47 1.92  46 1.95  51 2.09
 140  0.403  0.333  0.574-  48 1.94  32 1.94  47 1.98
 141  0.550  0.500  0.553-  47 1.93  15 1.93  48 2.02
 142  0.413  0.500  0.646-  52 1.78  48 2.01  49 2.09
 143  0.346  0.500  0.732-  52 1.83  49 1.86
 144  0.054  0.500  0.708-  50 1.98  18 1.98  49 2.00
 145  0.196  0.333  0.680-  49 1.93  33 1.93  50 2.06
 146  0.846  0.333  0.732-  50 1.83  51 1.86
 147  0.554  0.333  0.708-  36 1.98  52 1.98  51 2.00
 148  0.696  0.500  0.680-  51 1.93  19 1.93  52 2.06


IMPORTANT INFORMATION: All symmetrisations will be switched off!
NOSYMM: (Re-)initialisation of all symmetry stuff for point group C_1.


----------------------------------------------------------------------------------------

                                     Primitive cell                                     

  volume of cell :    3260.5577

  direct lattice vectors                    reciprocal lattice vectors
    10.272661001  0.000000000  0.000000000     0.097345761 -0.000000000  0.000000000
     0.000000000 11.368814841  0.000000000     0.000000000  0.087959916  0.000000000
     0.000000000  0.000000000 27.918606646     0.000000000  0.000000000  0.035818406

  length of vectors
    10.272661001 11.368814841 27.918606646     0.097345761  0.087959916  0.035818406

  position of ions in fractional coordinates (direct lattice)
     0.609014979  0.499999974  0.772837927
     0.546156101  0.499999974  0.801133543
     0.668118417  0.427964681  0.775582345
     0.668118413  0.572035267  0.775582344
     0.807711828  0.833333333  0.294983814
     0.591733995  0.666666667  0.326524766
     0.307711828  0.666666667  0.294983814
     0.091733995  0.833333333  0.326524766
     0.944190035  0.833333314  0.422605045
     0.725323030  0.666666642  0.451498276
     0.444189996  0.666666657  0.422605048
     0.225323030  0.833333322  0.451498250
     0.084809492  0.833333321  0.550128659
     0.863194419  0.666666663  0.576299760
     0.584809631  0.666666655  0.550128676
     0.363194395  0.833333332  0.576299717
     0.231989634  0.833333330  0.680104206
     0.003202929  0.666666654  0.700419936
     0.731989647  0.666666653  0.680104214
     0.503203549  0.833333318  0.700420032
     0.807711828  0.166666667  0.294983814
     0.591733995  0.000000000  0.326524766
     0.307711828  0.000000000  0.294983814
     0.091733995  0.166666667  0.326524766
     0.944190008  0.166666647  0.422605046
     0.725323015  0.999999992  0.451498278
     0.444190016  0.999999982  0.422605045
     0.225323036  0.166666653  0.451498257
     0.084809526  0.166666646  0.550128669
     0.863194423  0.999999979  0.576299758
     0.584809613  0.999999980  0.550128668
     0.363194391  0.166666670  0.576299724
     0.231989653  0.166666652  0.680104207
     0.003202980  0.999999990  0.700419945
     0.731989637  0.999999957  0.680104220
     0.503203483  0.166666647  0.700420022
     0.807711828  0.500000000  0.294983814
     0.591733995  0.333333333  0.326524766
     0.307711828  0.333333333  0.294983814
     0.091733995  0.500000000  0.326524766
     0.944190020  0.499999983  0.422605043
     0.725323019  0.333333305  0.451498273
     0.444190024  0.333333320  0.422605043
     0.225323034  0.499999997  0.451498253
     0.084809503  0.499999982  0.550128662
     0.863194431  0.333333333  0.576299754
     0.584809595  0.333333318  0.550128665
     0.363194403  0.499999975  0.576299718
     0.231989653  0.499999964  0.680104199
     0.003203013  0.333333322  0.700419942
     0.731989639  0.333333329  0.680104214
     0.503203526  0.499999982  0.700420028
     0.488115435  0.666666667  0.268638048
     0.988115435  0.833333333  0.268638048
     0.911330389  0.833333333  0.352870532
     0.627308221  0.833333333  0.321329580
     0.772137602  0.666666667  0.300179000
     0.624204103  0.666666667  0.394801855
     0.411330389  0.666666667  0.352870532
     0.127308221  0.666666667  0.321329580
     0.272137602  0.833333333  0.300179000
     0.124204103  0.833333333  0.394801855
     0.048681829  0.833333318  0.479684155
     0.763451736  0.833333312  0.447708773
     0.908406136  0.666666654  0.426582667
     0.763264752  0.666666657  0.520658698
     0.548681799  0.666666646  0.479684156
     0.263451787  0.666666653  0.447708778
     0.408406147  0.833333324  0.426582669
     0.263264891  0.833333330  0.520658756
     0.192509137  0.833333321  0.606492575
     0.903107403  0.833333323  0.573690867
     0.049649504  0.666666660  0.553063470
     0.913227831  0.666666645  0.645920586
     0.692508947  0.666666658  0.606492522
     0.403107299  0.666666656  0.573690882
     0.549649351  0.833333329  0.553063467
     0.413227473  0.833333314  0.645920399
     0.346375660  0.833333307  0.731710481
     0.053571495  0.833333309  0.708499106
     0.195569754  0.666666651  0.679832013
     0.846376032  0.666666633  0.731710451
     0.553571372  0.666666637  0.708499095
     0.695569739  0.833333322  0.679832027
     0.488115435  0.000000000  0.268638048
     0.988115435  0.166666667  0.268638048
     0.911330389  0.166666667  0.352870532
     0.627308221  0.166666667  0.321329580
     0.772137602  0.000000000  0.300179000
     0.624204103  0.000000000  0.394801855
     0.411330389  0.000000000  0.352870532
     0.127308221  0.000000000  0.321329580
     0.272137602  0.166666667  0.300179000
     0.124204103  0.166666667  0.394801855
     0.048681829  0.166666645  0.479684156
     0.763451737  0.166666640  0.447708770
     0.908406143  0.999999991  0.426582665
     0.763264758  0.999999992  0.520658708
     0.548681797  0.999999986  0.479684157
     0.263451776  0.000000003  0.447708779
     0.408406147  0.166666661  0.426582674
     0.263264882  0.166666649  0.520658746
     0.192509132  0.166666650  0.606492573
     0.903107385  0.166666656  0.573690866
     0.049649496  0.999999976  0.553063476
     0.913227819  0.999999985  0.645920587
     0.692508949  0.999999981  0.606492530
     0.403107302  0.999999970  0.573690887
     0.549649364  0.166666651  0.553063469
     0.413227497  0.166666657  0.645920409
     0.346375675  0.166666648  0.731710476
     0.053571485  0.166666642  0.708499113
     0.195569757  0.999999965  0.679832017
     0.846376023  0.999999982  0.731710459
     0.553571385  0.999999984  0.708499099
     0.695569748  0.166666648  0.679832024
     0.488115435  0.333333333  0.268638048
     0.988115435  0.500000000  0.268638048
     0.911330389  0.500000000  0.352870532
     0.627308221  0.500000000  0.321329580
     0.772137602  0.333333333  0.300179000
     0.624204103  0.333333333  0.394801855
     0.411330389  0.333333333  0.352870532
     0.127308221  0.333333333  0.321329580
     0.272137602  0.500000000  0.300179000
     0.124204103  0.500000000  0.394801855
     0.048681824  0.499999990  0.479684154
     0.763451741  0.499999997  0.447708772
     0.908406148  0.333333315  0.426582664
     0.763264770  0.333333312  0.520658707
     0.548681793  0.333333304  0.479684154
     0.263451783  0.333333311  0.447708782
     0.408406150  0.499999984  0.426582672
     0.263264890  0.499999987  0.520658750
     0.192509139  0.499999991  0.606492571
     0.903107395  0.499999971  0.573690863
     0.049649497  0.333333319  0.553063474
     0.913227817  0.333333315  0.645920576
     0.692508968  0.333333316  0.606492528
     0.403107301  0.333333331  0.573690881
     0.549649349  0.499999979  0.553063467
     0.413227487  0.499999979  0.645920396
     0.346375666  0.499999983  0.731710477
     0.053571489  0.499999981  0.708499107
     0.195569751  0.333333318  0.679832013
     0.846376016  0.333333309  0.731710457
     0.553571397  0.333333308  0.708499097
     0.695569738  0.499999949  0.679832019

  ion indices of the primitive-cell ions
   primitive index   ion index
                 1           1
                 2           2
                 3           3
                 4           4
                 5           5
                 6           6
                 7           7
                 8           8
                 9           9
                10          10
                11          11
                12          12
                13          13
                14          14
                15          15
                16          16
                17          17
                18          18
                19          19
                20          20
                21          21
                22          22
                23          23
                24          24
                25          25
                26          26
                27          27
                28          28
                29          29
                30          30
                31          31
                32          32
                33          33
                34          34
                35          35
                36          36
                37          37
                38          38
                39          39
                40          40
                41          41
                42          42
                43          43
                44          44
                45          45
                46          46
                47          47
                48          48
                49          49
                50          50
                51          51
                52          52
                53          53
                54          54
                55          55
                56          56
                57          57
                58          58
                59          59
                60          60
                61          61
                62          62
                63          63
                64          64
                65          65
                66          66
                67          67
                68          68
                69          69
                70          70
                71          71
                72          72
                73          73
                74          74
                75          75
                76          76
                77          77
                78          78
                79          79
                80          80
                81          81
                82          82
                83          83
                84          84
                85          85
                86          86
                87          87
                88          88
                89          89
                90          90
                91          91
                92          92
                93          93
                94          94
                95          95
                96          96
                97          97
                98          98
                99          99
               100         100
               101         101
               102         102
               103         103
               104         104
               105         105
               106         106
               107         107
               108         108
               109         109
               110         110
               111         111
               112         112
               113         113
               114         114
               115         115
               116         116
               117         117
               118         118
               119         119
               120         120
               121         121
               122         122
               123         123
               124         124
               125         125
               126         126
               127         127
               128         128
               129         129
               130         130
               131         131
               132         132
               133         133
               134         134
               135         135
               136         136
               137         137
               138         138
               139         139
               140         140
               141         141
               142         142
               143         143
               144         144
               145         145
               146         146
               147         147
               148         148

----------------------------------------------------------------------------------------



 KPOINTS: pymatgen v2020.8.13 with grid density = 

Automatic generation of k-mesh.
 Grid dimensions read from file:
 generate k-points for:    3    3    1

 Generating k-lattice:

  Cartesian coordinates                     Fractional coordinates (reciprocal lattice)
     0.032448587 -0.000000000  0.000000000     0.333333333 -0.000000000  0.000000000
     0.000000000  0.029319972  0.000000000     0.000000000  0.333333333  0.000000000
     0.000000000  0.000000000  0.035818406     0.000000000  0.000000000  1.000000000

  Length of vectors
     0.032448587  0.029319972  0.035818406

  Shift w.r.t. Gamma in fractional coordinates (k-lattice)
     0.000000000  0.000000000  0.000000000

 
 Subroutine IBZKPT returns following result:
 ===========================================
 
 Found      5 irreducible k-points:
 
 Following reciprocal coordinates:
            Coordinates               Weight
  0.000000  0.000000  0.000000      1.000000
  0.333333  0.000000  0.000000      2.000000
  0.000000  0.333333  0.000000      2.000000
  0.333333  0.333333  0.000000      2.000000
  0.333333 -0.333333  0.000000      2.000000
 
 Following cartesian coordinates:
            Coordinates               Weight
  0.000000  0.000000  0.000000      1.000000
  0.032449  0.000000  0.000000      2.000000
  0.000000  0.029320  0.000000      2.000000
  0.032449  0.029320  0.000000      2.000000
  0.032449 -0.029320  0.000000      2.000000
 


--------------------------------------------------------------------------------------------------------




 Dimension of arrays:
   k-points           NKPTS =      5   k-points in BZ     NKDIM =      5   number of bands    NBANDS=    640
   number of dos      NEDOS =    301   number of ions     NIONS =    148
   non local maximal  LDIM  =      6   non local SUM 2l+1 LMDIM =     18
   total plane-waves  NPLWV = ******
   max r-space proj   IRMAX =      1   max aug-charges    IRDMAX=  21705
   dimension x,y,z NGX =    84 NGY =   96 NGZ =  224
   dimension x,y,z NGXF=   168 NGYF=  192 NGZF=  448
   support grid    NGXF=   168 NGYF=  192 NGZF=  448
   ions per type =               1   3  48  96
   NGX,Y,Z   is equivalent  to a cutoff of  13.59, 14.04, 13.34 a.u.
   NGXF,Y,Z  is equivalent  to a cutoff of  27.19, 28.08, 26.68 a.u.

 SYSTEM =  TiO2                                    
 POSCAR =   N  H Ti  O                             

--------------------------------------------------------------------------------------------------------


  energy-cutoff  :      600.00
  volume of cell :     3260.56
      direct lattice vectors                 reciprocal lattice vectors
    10.272661001  0.000000000  0.000000000     0.097345761 -0.000000000  0.000000000
     0.000000000 11.368814841  0.000000000     0.000000000  0.087959916  0.000000000
     0.000000000  0.000000000 27.918606646     0.000000000  0.000000000  0.035818406

  length of vectors
    10.272661001 11.368814841 27.918606646     0.097345761  0.087959916  0.035818406



 k-points in units of 2pi/SCALE and weight: pymatgen v2020.8.13 with grid density = 
   0.00000000  0.00000000  0.00000000       0.111
   0.03244859  0.00000000  0.00000000       0.222
   0.00000000  0.02931997  0.00000000       0.222
   0.03244859  0.02931997  0.00000000       0.222
   0.03244859 -0.02931997  0.00000000       0.222

 k-points in reciprocal lattice and weights: pymatgen v2020.8.13 with grid density = 
   0.00000000  0.00000000  0.00000000       0.111
   0.33333333  0.00000000  0.00000000       0.222
   0.00000000  0.33333333  0.00000000       0.222
   0.33333333  0.33333333  0.00000000       0.222
   0.33333333 -0.33333333  0.00000000       0.222

 position of ions in fractional coordinates (direct lattice) 
   0.60901498  0.49999997  0.77283793
   0.54615610  0.49999997  0.80113354
   0.66811842  0.42796468  0.77558235
   0.66811841  0.57203527  0.77558234
   0.80771183  0.83333333  0.29498381
   0.59173400  0.66666667  0.32652477
   0.30771183  0.66666667  0.29498381
   0.09173400  0.83333333  0.32652477
   0.94419003  0.83333331  0.42260504
   0.72532303  0.66666664  0.45149828
   0.44419000  0.66666666  0.42260505
   0.22532303  0.83333332  0.45149825
   0.08480949  0.83333332  0.55012866
   0.86319442  0.66666666  0.57629976
   0.58480963  0.66666665  0.55012868
   0.36319439  0.83333333  0.57629972
   0.23198963  0.83333333  0.68010421
   0.00320293  0.66666665  0.70041994
   0.73198965  0.66666665  0.68010421
   0.50320355  0.83333332  0.70042003
   0.80771183  0.16666667  0.29498381
   0.59173400  0.00000000  0.32652477
   0.30771183  0.00000000  0.29498381
   0.09173400  0.16666667  0.32652477
   0.94419001  0.16666665  0.42260505
   0.72532301  0.99999999  0.45149828
   0.44419002  0.99999998  0.42260505
   0.22532304  0.16666665  0.45149826
   0.08480953  0.16666665  0.55012867
   0.86319442  0.99999998  0.57629976
   0.58480961  0.99999998  0.55012867
   0.36319439  0.16666667  0.57629972
   0.23198965  0.16666665  0.68010421
   0.00320298  0.99999999  0.70041995
   0.73198964  0.99999996  0.68010422
   0.50320348  0.16666665  0.70042002
   0.80771183  0.50000000  0.29498381
   0.59173400  0.33333333  0.32652477
   0.30771183  0.33333333  0.29498381
   0.09173400  0.50000000  0.32652477
   0.94419002  0.49999998  0.42260504
   0.72532302  0.33333331  0.45149827
   0.44419002  0.33333332  0.42260504
   0.22532303  0.50000000  0.45149825
   0.08480950  0.49999998  0.55012866
   0.86319443  0.33333333  0.57629975
   0.58480960  0.33333332  0.55012867
   0.36319440  0.49999997  0.57629972
   0.23198965  0.49999996  0.68010420
   0.00320301  0.33333332  0.70041994
   0.73198964  0.33333333  0.68010421
   0.50320353  0.49999998  0.70042003
   0.48811543  0.66666667  0.26863805
   0.98811543  0.83333333  0.26863805
   0.91133039  0.83333333  0.35287053
   0.62730822  0.83333333  0.32132958
   0.77213760  0.66666667  0.30017900
   0.62420410  0.66666667  0.39480185
   0.41133039  0.66666667  0.35287053
   0.12730822  0.66666667  0.32132958
   0.27213760  0.83333333  0.30017900
   0.12420410  0.83333333  0.39480185
   0.04868183  0.83333332  0.47968415
   0.76345174  0.83333331  0.44770877
   0.90840614  0.66666665  0.42658267
   0.76326475  0.66666666  0.52065870
   0.54868180  0.66666665  0.47968416
   0.26345179  0.66666665  0.44770878
   0.40840615  0.83333332  0.42658267
   0.26326489  0.83333333  0.52065876
   0.19250914  0.83333332  0.60649258
   0.90310740  0.83333332  0.57369087
   0.04964950  0.66666666  0.55306347
   0.91322783  0.66666665  0.64592059
   0.69250895  0.66666666  0.60649252
   0.40310730  0.66666666  0.57369088
   0.54964935  0.83333333  0.55306347
   0.41322747  0.83333331  0.64592040
   0.34637566  0.83333331  0.73171048
   0.05357149  0.83333331  0.70849911
   0.19556975  0.66666665  0.67983201
   0.84637603  0.66666663  0.73171045
   0.55357137  0.66666664  0.70849909
   0.69556974  0.83333332  0.67983203
   0.48811543  0.00000000  0.26863805
   0.98811543  0.16666667  0.26863805
   0.91133039  0.16666667  0.35287053
   0.62730822  0.16666667  0.32132958
   0.77213760  0.00000000  0.30017900
   0.62420410  0.00000000  0.39480185
   0.41133039  0.00000000  0.35287053
   0.12730822  0.00000000  0.32132958
   0.27213760  0.16666667  0.30017900
   0.12420410  0.16666667  0.39480185
   0.04868183  0.16666665  0.47968416
   0.76345174  0.16666664  0.44770877
   0.90840614  0.99999999  0.42658266
   0.76326476  0.99999999  0.52065871
   0.54868180  0.99999999  0.47968416
   0.26345178  0.00000000  0.44770878
   0.40840615  0.16666666  0.42658267
   0.26326488  0.16666665  0.52065875
   0.19250913  0.16666665  0.60649257
   0.90310739  0.16666666  0.57369087
   0.04964950  0.99999998  0.55306348
   0.91322782  0.99999999  0.64592059
   0.69250895  0.99999998  0.60649253
   0.40310730  0.99999997  0.57369089
   0.54964936  0.16666665  0.55306347
   0.41322750  0.16666666  0.64592041
   0.34637567  0.16666665  0.73171048
   0.05357149  0.16666664  0.70849911
   0.19556976  0.99999997  0.67983202
   0.84637602  0.99999998  0.73171046
   0.55357139  0.99999998  0.70849910
   0.69556975  0.16666665  0.67983202
   0.48811543  0.33333333  0.26863805
   0.98811543  0.50000000  0.26863805
   0.91133039  0.50000000  0.35287053
   0.62730822  0.50000000  0.32132958
   0.77213760  0.33333333  0.30017900
   0.62420410  0.33333333  0.39480185
   0.41133039  0.33333333  0.35287053
   0.12730822  0.33333333  0.32132958
   0.27213760  0.50000000  0.30017900
   0.12420410  0.50000000  0.39480185
   0.04868182  0.49999999  0.47968415
   0.76345174  0.50000000  0.44770877
   0.90840615  0.33333331  0.42658266
   0.76326477  0.33333331  0.52065871
   0.54868179  0.33333330  0.47968415
   0.26345178  0.33333331  0.44770878
   0.40840615  0.49999998  0.42658267
   0.26326489  0.49999999  0.52065875
   0.19250914  0.49999999  0.60649257
   0.90310739  0.49999997  0.57369086
   0.04964950  0.33333332  0.55306347
   0.91322782  0.33333332  0.64592058
   0.69250897  0.33333332  0.60649253
   0.40310730  0.33333333  0.57369088
   0.54964935  0.49999998  0.55306347
   0.41322749  0.49999998  0.64592040
   0.34637567  0.49999998  0.73171048
   0.05357149  0.49999998  0.70849911
   0.19556975  0.33333332  0.67983201
   0.84637602  0.33333331  0.73171046
   0.55357140  0.33333331  0.70849910
   0.69556974  0.49999995  0.67983202

 position of ions in cartesian coordinates  (Angst):
   6.25620442  5.68440713 21.57655809
   5.61047648  5.68440712 22.36653227
   6.86335401  4.86545122 21.65317842
   6.86335397  6.50336303 21.65317840
   8.29734980  9.47401237  8.23553708
   6.07868274  7.57920989  9.11611650
   3.16101930  7.57920989  8.23553708
   0.94235224  9.47401237  9.11611650
   9.69934415  9.47401215 11.79854401
   7.45099761  7.57920961 12.60520276
   4.56301325  7.57920978 11.79854410
   2.31466710  9.47401224 12.60520203
   0.87121916  9.47401223 15.35882564
   8.86730364  7.57920985 16.08948632
   6.00755109  7.57920976 15.35882610
   3.73097289  9.47401236 16.08948512
   2.38315087  9.47401233 18.98756180
   0.03290261  7.57920975 19.55474867
   7.51948150  7.57920974 18.98756203
   5.16923947  9.47401219 19.55475137
   8.29734980  1.89480247  8.23553708
   6.07868274  0.00000000  9.11611650
   3.16101930  0.00000000  8.23553708
   0.94235224  1.89480247  9.11611650
   9.69934387  1.89480225 11.79854405
   7.45099745 11.36881475 12.60520282
   4.56301346 11.36881464 11.79854402
   2.31466716  1.89480231 12.60520224
   0.87121951  1.89480224 15.35882592
   8.86730368 11.36881460 16.08948626
   6.00755090 11.36881461 15.35882588
   3.73097285  1.89480251 16.08948531
   2.38315106  1.89480231 18.98756184
   0.03290313 11.36881473 19.55474894
   7.51948140 11.36881435 18.98756221
   5.16923880  1.89480225 19.55475107
   8.29734980  5.68440742  8.23553708
   6.07868274  3.78960495  9.11611650
   3.16101930  3.78960495  8.23553708
   0.94235224  5.68440742  9.11611650
   9.69934399  5.68440722 11.79854397
   7.45099749  3.78960463 12.60520268
   4.56301353  3.78960479 11.79854397
   2.31466714  5.68440739 12.60520212
   0.87121927  5.68440721 15.35882572
   8.86730377  3.78960494 16.08948614
   6.00755072  3.78960477 15.35882581
   3.73097298  5.68440713 16.08948513
   2.38315106  5.68440701 18.98756162
   0.03290347  3.78960482 19.55474885
   7.51948142  3.78960490 18.98756204
   5.16923923  5.68440722 19.55475126
   5.01424439  7.57920989  7.50000000
  10.15057489  9.47401237  7.50000000
   9.36178814  9.47401237  9.85165358
   6.44412470  9.47401237  8.97107415
   7.93190783  7.57920989  8.38057942
   6.41223715  7.57920989 11.02231769
   4.22545764  7.57920989  9.85165358
   1.30779420  7.57920989  8.97107415
   2.79557733  9.47401237  8.38057942
   1.27590665  9.47401237 11.02231769
   0.50009192  9.47401219 13.39211323
   7.84268088  9.47401212 12.49940512
   9.33174828  7.57920975 11.90959367
   7.84076005  7.57920978 14.53606539
   5.63642211  7.57920966 13.39211327
   2.70635089  7.57920974 12.49940527
   4.19541789  9.47401226 11.90959374
   2.70443098  9.47401233 14.53606699
   1.97758110  9.47401222 16.93242764
   9.27731620  9.47401225 16.01664964
   0.51003252  7.57920981 15.44076147
   9.38127992  7.57920965 18.03320275
   7.11390965  7.57920980 16.93242615
   4.14098463  7.57920978 16.01665008
   5.64636146  9.47401231 15.44076140
   4.24494575  9.47401214 18.03319753
   3.55819974  9.47401207 20.42833709
   0.55032181  9.47401209 19.78030786
   2.00902178  7.57920972 18.97996256
   8.69453406  7.57920951 20.42833626
   5.68665105  7.57920956 19.78030753
   7.14535213  9.47401224 18.97996296
   5.01424439  0.00000000  7.50000000
  10.15057489  1.89480247  7.50000000
   9.36178814  1.89480247  9.85165358
   6.44412470  1.89480247  8.97107415
   7.93190783  0.00000000  8.38057942
   6.41223715  0.00000000 11.02231769
   4.22545764  0.00000000  9.85165358
   1.30779420  0.00000000  8.97107415
   2.79557733  1.89480247  8.38057942
   1.27590665  1.89480247 11.02231769
   0.50009193  1.89480223 13.39211328
   7.84268089  1.89480218 12.49940504
   9.33174836 11.36881474 11.90959361
   7.84076012 11.36881475 14.53606567
   5.63642210 11.36881468 13.39211330
   2.70635079  0.00000004 12.49940529
   4.19541789  1.89480241 11.90959387
   2.70443089  1.89480227 14.53606673
   1.97758105  1.89480229 16.93242757
   9.27731602  1.89480236 16.01664962
   0.51003245 11.36881457 15.44076165
   9.38127980 11.36881467 18.03320280
   7.11390967 11.36881462 16.93242637
   4.14098467 11.36881450 16.01665020
   5.64636159  1.89480230 15.44076144
   4.24494599  1.89480236 18.03319782
   3.55819989  1.89480227 20.42833697
   0.55032171  1.89480220 19.78030806
   2.00902181 11.36881445 18.97996268
   8.69453397 11.36881464 20.42833649
   5.68665118 11.36881466 19.78030767
   7.14535223  1.89480227 18.97996288
   5.01424439  3.78960495  7.50000000
  10.15057489  5.68440742  7.50000000
   9.36178814  5.68440742  9.85165358
   6.44412470  5.68440742  8.97107415
   7.93190783  3.78960495  8.38057942
   6.41223715  3.78960495 11.02231769
   4.22545764  3.78960495  9.85165358
   1.30779420  3.78960495  8.97107415
   2.79557733  5.68440742  8.38057942
   1.27590665  5.68440742 11.02231769
   0.50009187  5.68440731 13.39211322
   7.84268093  5.68440739 12.49940509
   9.33174841  3.78960473 11.90959360
   7.84076024  3.78960470 14.53606564
   5.63642206  3.78960461 13.39211322
   2.70635085  3.78960469 12.49940538
   4.19541793  5.68440724 11.90959383
   2.70443097  5.68440727 14.53606685
   1.97758112  5.68440731 16.93242753
   9.27731611  5.68440709 16.01664953
   0.51003245  3.78960478 15.44076158
   9.38127978  3.78960474 18.03320250
   7.11390987  3.78960475 16.93242632
   4.14098465  3.78960492 16.01665005
   5.64636143  5.68440718 15.44076137
   4.24494589  5.68440718 18.03319746
   3.55819979  5.68440723 20.42833697
   0.55032174  5.68440720 19.78030789
   2.00902175  3.78960477 18.97996256
   8.69453389  3.78960467 20.42833643
   5.68665130  3.78960466 19.78030760
   7.14535212  5.68440684 18.97996273



--------------------------------------------------------------------------------------------------------

--------------------------------------- Iteration      FINAL  ---------------------------------------


--------------------OUTCAR has been truncated-------------------------


--------------------OUTCAR has been truncated-------------------------


--------------------OUTCAR has been truncated-------------------------


--------------------OUTCAR has been truncated-------------------------


--------------------OUTCAR has been truncated-------------------------


--------------------OUTCAR has been truncated-------------------------


--------------------OUTCAR has been truncated-------------------------


--------------------OUTCAR has been truncated-------------------------


--------------------OUTCAR has been truncated-------------------------


--------------------OUTCAR has been truncated-------------------------


    MIXING:  cpu time      0.0009: real time      0.0009
    OFIELD:  cpu time      0.0000: real time      0.0000
    FORVDW:  cpu time     23.7534: real time     23.7624

  FORCE on cell =-STRESS in cart. coord.  units (eV):
  Direction    XX          YY          ZZ          XY          YZ          ZX
  --------------------------------------------------------------------------------------
  Alpha Z  2443.07120  2443.07120  2443.07120
  Ewald  486691.43584480150.22247************     0.00012    -0.00029 -1834.22074
  Hartree507995.51928503990.33121************     0.00002    -0.00014 -1230.81543
  E(xc)   -5191.94706 -5197.62436 -5207.95108     0.00000    -0.00000    -1.83037
  Local  ************************************    -0.00012     0.00043  3064.63149
  n-local -3243.58738 -3213.08905 -3255.88485    -0.00000    -0.00000     1.42716
  augment  3131.82123  3127.23713  3118.34272     0.00000    -0.00000    -0.58436
  Kinetic 17164.57884 17221.19805 17283.02066    -0.00000     0.00002    -7.09054
  Fock        0.00000     0.00000     0.00000     0.00000     0.00000     0.00000
  vdW       -69.32952   -72.35651   -62.06527    -0.00000     0.00000    -0.70222
  -------------------------------------------------------------------------------------
  Total     -40.13656   -12.83482   -12.76271     0.00002     0.00001    -9.18501
  in kB     -19.72236    -6.30679    -6.27136     0.00001     0.00001    -4.51334
  external pressure =      -10.77 kB  Pullay stress =        0.00 kB


 VOLUME and BASIS-vectors are now :
 -----------------------------------------------------------------------------
  energy-cutoff  :      600.00
  volume of cell :     3260.56
      direct lattice vectors                 reciprocal lattice vectors
    10.272661001  0.000000000  0.000000000     0.097345761 -0.000000000  0.000000000
     0.000000000 11.368814841  0.000000000     0.000000000  0.087959916  0.000000000
     0.000000000  0.000000000 27.918606646     0.000000000  0.000000000  0.035818406

  length of vectors
    10.272661001 11.368814841 27.918606646     0.097345761  0.087959916  0.035818406


 FORCES acting on ions
    electron-ion (+dipol)            ewald-force                    non-local-force                 convergence-correction
 -----------------------------------------------------------------------------------------------
   -.153E+02 0.385E-04 -.176E+04   0.562E+01 -.580E-04 0.174E+04   0.964E+01 -.812E-05 0.183E+02   -.232E-03 -.790E-05 0.686E-03
   0.428E+02 0.268E-04 -.372E+03   -.476E+02 -.278E-04 0.377E+03   0.477E+01 0.357E-05 -.557E+01   0.783E-06 -.550E-06 0.663E-05
   -.419E+02 0.548E+02 -.355E+03   0.463E+02 -.607E+02 0.356E+03   -.438E+01 0.592E+01 -.377E+00   -.106E-04 -.450E-04 0.373E-04
   -.419E+02 -.548E+02 -.355E+03   0.463E+02 0.607E+02 0.356E+03   -.438E+01 -.592E+01 -.377E+00   -.969E-05 0.451E-04 0.374E-04
   0.658E+01 0.330E-02 0.337E+04   -.163E+01 -.349E-02 -.337E+04   -.113E+01 -.530E-04 -.348E+01   -.485E-05 0.189E-04 -.147E-03
   0.476E+01 -.105E+00 0.277E+04   -.636E+01 0.105E+00 -.277E+04   -.682E-01 -.661E-03 -.237E-01   0.103E-03 0.299E-04 -.126E-03
   0.654E+01 0.146E+00 0.337E+04   -.162E+01 -.152E+00 -.337E+04   -.112E+01 0.147E-02 -.347E+01   -.817E-04 0.399E-04 -.163E-03
   0.349E+01 0.911E-01 0.277E+04   -.513E+01 -.991E-01 -.277E+04   -.610E-01 0.161E-02 -.278E-01   0.470E-04 0.399E-04 -.558E-04
   -.557E+00 0.255E+00 0.126E+04   0.379E+00 -.253E+00 -.126E+04   0.179E+00 -.174E-02 0.178E-01   0.180E-03 -.697E-04 0.130E-03
   0.481E+00 -.157E+01 0.801E+03   -.435E+00 0.155E+01 -.801E+03   -.444E-01 0.183E-01 -.151E+00   0.105E-03 -.690E-04 0.263E-03
   0.982E+00 -.310E+00 0.126E+04   -.115E+01 0.299E+00 -.126E+04   0.172E+00 0.936E-02 -.132E-02   0.469E-04 0.982E-04 0.142E-03
   -.506E+01 0.838E-01 0.794E+03   0.509E+01 -.874E-01 -.794E+03   -.222E-01 0.323E-02 -.156E+00   0.119E-03 0.209E-03 0.112E-03
   -.530E+01 -.247E+01 -.781E+03   0.501E+01 0.246E+01 0.781E+03   0.307E+00 0.113E-01 0.130E+00   -.197E-03 0.502E-04 -.145E-03
   -.112E+02 -.508E+01 -.117E+04   0.113E+02 0.509E+01 0.117E+04   -.101E+00 -.102E-02 -.247E+00   -.302E-03 0.957E-04 0.647E-04
   0.106E+01 -.196E+01 -.756E+03   -.132E+01 0.196E+01 0.756E+03   0.271E+00 0.208E-02 0.953E-01   0.221E-04 -.181E-04 0.174E-03
   -.192E+01 -.923E+00 -.119E+04   0.204E+01 0.936E+00 0.119E+04   -.109E+00 -.166E-01 -.296E+00   0.164E-03 0.592E-04 -.300E-03
   0.276E+02 -.109E+02 -.279E+04   -.285E+02 0.109E+02 0.279E+04   0.921E+00 0.252E-02 -.175E+00   -.193E-04 -.670E-04 -.239E-03
   -.873E+02 -.214E+02 -.318E+04   0.873E+02 0.213E+02 0.318E+04   0.411E-01 0.145E+00 0.773E+00   -.191E-03 0.862E-04 -.306E-03
   -.104E+02 -.398E+02 -.270E+04   0.963E+01 0.399E+02 0.271E+04   0.842E+00 -.256E-01 -.447E-01   -.174E-03 0.529E-03 -.302E-03
   -.609E+02 -.340E+02 -.317E+04   0.608E+02 0.340E+02 0.317E+04   0.863E-01 0.442E-01 0.789E+00   0.309E-03 0.593E-04 0.201E-03
   0.658E+01 -.331E-02 0.337E+04   -.163E+01 0.350E-02 -.337E+04   -.113E+01 0.530E-04 -.348E+01   -.486E-05 -.189E-04 -.147E-03
   0.479E+01 -.396E-05 0.277E+04   -.641E+01 0.407E-05 -.277E+04   -.624E-01 -.363E-07 -.288E-01   0.963E-04 0.359E-07 -.915E-04
   0.644E+01 -.214E-05 0.337E+04   -.150E+01 0.221E-05 -.337E+04   -.113E+01 -.179E-07 -.348E+01   -.135E-03 0.323E-07 -.164E-03
   0.349E+01 -.911E-01 0.277E+04   -.513E+01 0.991E-01 -.277E+04   -.610E-01 -.161E-02 -.278E-01   0.470E-04 -.399E-04 -.559E-04
   -.556E+00 -.255E+00 0.126E+04   0.379E+00 0.253E+00 -.126E+04   0.179E+00 0.174E-02 0.178E-01   0.180E-03 0.697E-04 0.130E-03
   -.192E+01 -.651E-05 0.798E+03   0.193E+01 0.659E-05 -.798E+03   -.942E-02 -.345E-07 -.157E+00   -.174E-04 -.335E-07 0.184E-03
   0.129E+01 0.497E-07 0.126E+04   -.146E+01 0.102E-07 -.126E+04   0.170E+00 -.120E-06 0.246E-02   -.271E-04 0.133E-07 0.228E-03
   -.506E+01 -.838E-01 0.794E+03   0.509E+01 0.874E-01 -.794E+03   -.222E-01 -.323E-02 -.156E+00   0.119E-03 -.209E-03 0.112E-03
   -.530E+01 0.247E+01 -.781E+03   0.501E+01 -.246E+01 0.781E+03   0.307E+00 -.113E-01 0.130E+00   -.197E-03 -.503E-04 -.146E-03
   -.109E+02 -.456E-05 -.119E+04   0.110E+02 0.502E-05 0.119E+04   -.796E-01 -.805E-07 -.250E+00   -.311E-03 -.229E-06 0.423E-03
   -.313E+01 0.571E-05 -.772E+03   0.283E+01 -.575E-05 0.772E+03   0.317E+00 -.141E-06 0.170E+00   0.839E-04 -.960E-07 0.211E-03
   -.192E+01 0.923E+00 -.119E+04   0.204E+01 -.936E+00 0.119E+04   -.109E+00 0.166E-01 -.296E+00   0.164E-03 -.593E-04 -.300E-03
   0.276E+02 0.109E+02 -.279E+04   -.285E+02 -.109E+02 0.279E+04   0.921E+00 -.252E-02 -.175E+00   -.193E-04 0.667E-04 -.239E-03
   -.753E+02 -.877E-05 -.319E+04   0.753E+02 0.853E-05 0.319E+04   0.733E-02 0.470E-06 0.786E+00   -.583E-03 -.452E-06 -.229E-03
   0.118E+02 -.129E-04 -.278E+04   -.126E+02 0.137E-04 0.278E+04   0.861E+00 0.538E-07 -.136E+00   -.302E-03 -.643E-06 0.111E-03
   -.609E+02 0.340E+02 -.317E+04   0.608E+02 -.340E+02 0.317E+04   0.863E-01 -.442E-01 0.789E+00   0.309E-03 -.605E-04 0.200E-03
   0.659E+01 0.393E-05 0.337E+04   -.163E+01 -.402E-05 -.337E+04   -.113E+01 0.270E-07 -.347E+01   -.528E-04 -.325E-07 -.146E-03
   0.476E+01 0.105E+00 0.277E+04   -.636E+01 -.105E+00 -.277E+04   -.682E-01 0.661E-03 -.237E-01   0.103E-03 -.299E-04 -.126E-03
   0.654E+01 -.146E+00 0.337E+04   -.162E+01 0.152E+00 -.337E+04   -.112E+01 -.147E-02 -.347E+01   -.817E-04 -.400E-04 -.163E-03
   0.261E+01 0.148E-05 0.277E+04   -.420E+01 -.148E-05 -.277E+04   -.775E-01 -.101E-07 -.267E-01   0.356E-04 -.258E-07 -.930E-04
   0.208E+01 0.599E-05 0.126E+04   -.222E+01 -.602E-05 -.126E+04   0.153E+00 0.189E-07 0.500E-01   -.246E-03 0.172E-07 0.144E-03
   0.481E+00 0.157E+01 0.801E+03   -.435E+00 -.155E+01 -.801E+03   -.444E-01 -.183E-01 -.151E+00   0.105E-03 0.690E-04 0.263E-03
   0.982E+00 0.310E+00 0.126E+04   -.115E+01 -.299E+00 -.126E+04   0.172E+00 -.936E-02 -.131E-02   0.468E-04 -.982E-04 0.142E-03
   -.878E+01 -.472E-05 0.777E+03   0.880E+01 0.463E-05 -.777E+03   -.211E-01 0.156E-06 -.625E-01   -.544E-04 -.134E-07 0.270E-03
   -.908E+00 0.283E-05 -.783E+03   0.685E+00 -.302E-05 0.783E+03   0.228E+00 0.684E-07 0.155E+00   -.206E-03 0.105E-06 0.120E-03
   -.112E+02 0.508E+01 -.117E+04   0.113E+02 -.509E+01 0.117E+04   -.101E+00 0.102E-02 -.247E+00   -.302E-03 -.955E-04 0.646E-04
   0.106E+01 0.196E+01 -.756E+03   -.132E+01 -.196E+01 0.756E+03   0.271E+00 -.208E-02 0.953E-01   0.220E-04 0.182E-04 0.174E-03
   -.237E+01 -.466E-05 -.123E+04   0.247E+01 0.495E-05 0.124E+04   -.913E-01 0.200E-07 -.178E+00   -.123E-03 0.759E-07 -.318E-04
   0.481E+02 0.466E-05 -.279E+04   -.488E+02 -.416E-05 0.279E+04   0.645E+00 -.214E-06 -.391E-01   0.276E-03 0.289E-06 -.186E-04
   -.873E+02 0.214E+02 -.318E+04   0.873E+02 -.213E+02 0.318E+04   0.411E-01 -.145E+00 0.773E+00   -.191E-03 -.857E-04 -.307E-03
   -.104E+02 0.398E+02 -.270E+04   0.963E+01 -.399E+02 0.271E+04   0.842E+00 0.256E-01 -.447E-01   -.174E-03 -.528E-03 -.303E-03
   0.114E+02 0.724E-05 -.312E+04   -.109E+02 -.653E-05 0.313E+04   -.531E+00 -.530E-06 -.333E+00   -.661E-03 0.144E-06 -.571E-03
   -.322E+02 -.178E-01 0.228E+04   0.370E+02 0.176E-01 -.229E+04   -.657E+01 0.365E-03 0.171E+02   -.770E-04 0.151E-04 -.332E-04
   -.325E+02 -.153E-01 0.228E+04   0.373E+02 0.133E-01 -.229E+04   -.656E+01 0.255E-02 0.171E+02   -.499E-04 0.233E-04 -.432E-04
   0.813E+02 0.152E+00 0.138E+04   -.861E+02 -.151E+00 -.138E+04   0.387E+01 -.435E-02 -.446E+01   0.329E-05 0.100E-04 -.845E-04
   0.748E+02 0.925E-02 0.169E+04   -.819E+02 -.836E-02 -.168E+04   0.742E+01 -.164E-02 -.270E+01   0.839E-04 -.202E-05 -.831E-04
   -.862E+02 -.316E-01 0.194E+04   0.934E+02 0.297E-01 -.194E+04   -.699E+01 0.361E-02 -.158E+00   0.284E-04 -.203E-04 -.786E-04
   -.690E+02 -.770E+00 0.106E+04   0.747E+02 0.822E+00 -.106E+04   -.570E+01 -.489E-01 0.434E+01   0.246E-04 0.180E-04 0.385E-04
   0.819E+02 0.104E+00 0.138E+04   -.868E+02 -.869E-01 -.138E+04   0.385E+01 -.188E-01 -.434E+01   -.508E-04 0.468E-04 -.133E-03
   0.740E+02 0.107E+00 0.169E+04   -.810E+02 -.116E+00 -.168E+04   0.743E+01 0.216E-01 -.272E+01   0.652E-04 0.474E-04 -.860E-04
   -.863E+02 0.333E-01 0.194E+04   0.936E+02 -.331E-01 -.194E+04   -.697E+01 -.233E-02 -.161E+00   -.166E-04 0.309E-04 -.767E-04
   -.723E+02 0.116E+00 0.106E+04   0.781E+02 -.115E+00 -.106E+04   -.580E+01 -.275E-02 0.442E+01   -.209E-06 0.280E-04 0.382E-04
   0.778E+02 -.102E+01 0.159E+03   -.843E+02 0.107E+01 -.153E+03   0.643E+01 -.557E-01 -.504E+01   0.795E-04 -.292E-03 0.194E-03
   0.803E+02 0.420E+00 0.483E+03   -.871E+02 -.507E+00 -.480E+03   0.670E+01 0.870E-01 -.309E+01   0.133E-04 -.337E-04 0.124E-03
   -.800E+02 0.123E+00 0.750E+03   0.865E+02 -.117E+00 -.753E+03   -.655E+01 -.612E-02 0.271E+01   -.386E-05 -.139E-03 0.224E-03
   -.642E+02 -.138E+01 -.123E+03   0.690E+02 0.142E+01 0.118E+03   -.481E+01 -.406E-01 0.538E+01   0.810E-04 0.172E-03 0.374E-03
   0.794E+02 0.903E+00 0.164E+03   -.856E+02 -.966E+00 -.160E+03   0.623E+01 0.630E-01 -.428E+01   0.105E-03 0.306E-03 0.167E-03
   0.775E+02 0.843E+00 0.481E+03   -.841E+02 -.818E+00 -.478E+03   0.656E+01 -.259E-01 -.293E+01   0.781E-05 -.146E-04 0.352E-03
   -.789E+02 0.426E+00 0.750E+03   0.854E+02 -.459E+00 -.753E+03   -.649E+01 0.331E-01 0.276E+01   -.205E-03 0.112E-03 0.520E-04
   -.662E+02 0.201E+01 -.128E+03   0.713E+02 -.221E+01 0.122E+03   -.510E+01 0.204E+00 0.572E+01   0.119E-03 0.310E-03 0.494E-03
   0.825E+02 -.155E+01 -.108E+04   -.887E+02 0.147E+01 0.109E+04   0.619E+01 0.750E-01 -.723E+01   -.811E-04 -.117E-03 0.645E-03
   0.777E+02 -.190E+01 -.720E+03   -.846E+02 0.174E+01 0.724E+03   0.681E+01 0.154E+00 -.327E+01   0.586E-05 -.122E-03 0.128E-03
   -.813E+02 -.725E+00 -.458E+03   0.877E+02 0.741E+00 0.455E+03   -.640E+01 -.173E-01 0.282E+01   0.273E-03 -.307E-04 0.390E-03
   -.664E+02 -.974E+01 -.128E+04   0.687E+02 0.100E+02 0.127E+04   -.238E+01 -.300E+00 0.988E+01   0.108E-03 -.224E-03 0.637E-03
   0.805E+02 -.890E+01 -.105E+04   -.869E+02 0.918E+01 0.105E+04   0.639E+01 -.278E+00 -.592E+01   0.216E-03 -.262E-03 0.347E-03
   0.799E+02 -.999E+00 -.731E+03   -.864E+02 0.103E+01 0.734E+03   0.648E+01 -.373E-01 -.331E+01   0.120E-03 0.635E-04 0.368E-03
   -.779E+02 -.132E+01 -.456E+03   0.843E+02 0.130E+01 0.453E+03   -.635E+01 0.132E-01 0.271E+01   0.206E-03 0.484E-04 0.447E-03
   -.463E+02 -.126E+02 -.129E+04   0.480E+02 0.131E+02 0.128E+04   -.178E+01 -.569E+00 0.971E+01   -.118E-03 -.494E-03 0.557E-03
   0.572E+02 -.145E+02 -.229E+04   -.624E+02 0.143E+02 0.231E+04   0.520E+01 0.179E+00 -.209E+02   0.476E-03 0.513E-03 0.621E-03
   0.602E+02 -.529E+01 -.202E+04   -.651E+02 0.513E+01 0.203E+04   0.489E+01 0.158E+00 -.782E+01   0.167E-03 0.418E-03 0.148E-03
   -.491E+02 -.664E+01 -.165E+04   0.541E+02 0.649E+01 0.165E+04   -.495E+01 0.148E+00 0.318E+01   0.149E-03 0.161E-03 0.663E-03
   0.119E+02 -.313E+02 -.226E+04   -.172E+02 0.312E+02 0.228E+04   0.536E+01 0.123E+00 -.196E+02   -.127E-04 0.460E-03 0.376E-03
   0.784E+02 -.460E+02 -.195E+04   -.836E+02 0.456E+02 0.196E+04   0.513E+01 0.428E+00 -.646E+01   0.611E-04 0.196E-03 0.421E-03
   -.648E+02 -.135E+02 -.164E+04   0.702E+02 0.132E+02 0.163E+04   -.540E+01 0.257E+00 0.336E+01   0.201E-03 -.278E-03 0.101E-03
   -.322E+02 -.994E-06 0.228E+04   0.370E+02 0.102E-05 -.229E+04   -.657E+01 -.692E-07 0.171E+02   -.103E-03 0.251E-07 -.426E-04
   -.325E+02 0.153E-01 0.228E+04   0.373E+02 -.133E-01 -.229E+04   -.656E+01 -.255E-02 0.171E+02   -.499E-04 -.232E-04 -.432E-04
   0.813E+02 -.152E+00 0.138E+04   -.861E+02 0.151E+00 -.138E+04   0.387E+01 0.435E-02 -.446E+01   0.327E-05 -.100E-04 -.846E-04
   0.748E+02 -.925E-02 0.169E+04   -.819E+02 0.836E-02 -.168E+04   0.742E+01 0.164E-02 -.270E+01   0.839E-04 0.203E-05 -.831E-04
   -.861E+02 -.190E-05 0.194E+04   0.934E+02 0.190E-05 -.194E+04   -.698E+01 -.649E-07 -.161E+00   0.371E-04 0.284E-07 -.904E-04
   -.693E+02 -.654E-05 0.106E+04   0.750E+02 0.705E-05 -.106E+04   -.571E+01 -.587E-06 0.439E+01   0.456E-04 0.135E-07 0.607E-04
   0.816E+02 -.353E-05 0.138E+04   -.864E+02 0.383E-05 -.138E+04   0.384E+01 -.374E-06 -.443E+01   -.107E-03 0.178E-07 -.115E-03
   0.741E+02 -.143E-05 0.169E+04   -.812E+02 0.143E-05 -.168E+04   0.743E+01 -.528E-07 -.270E+01   0.827E-04 0.134E-07 -.740E-04
   -.863E+02 -.333E-01 0.194E+04   0.936E+02 0.331E-01 -.194E+04   -.697E+01 0.233E-02 -.161E+00   -.166E-04 -.309E-04 -.767E-04
   -.723E+02 -.116E+00 0.106E+04   0.781E+02 0.115E+00 -.106E+04   -.580E+01 0.275E-02 0.442E+01   -.203E-06 -.280E-04 0.381E-04
   0.778E+02 0.102E+01 0.159E+03   -.843E+02 -.107E+01 -.153E+03   0.643E+01 0.557E-01 -.504E+01   0.795E-04 0.292E-03 0.194E-03
   0.803E+02 -.420E+00 0.483E+03   -.871E+02 0.507E+00 -.480E+03   0.670E+01 -.870E-01 -.309E+01   0.132E-04 0.337E-04 0.124E-03
   -.794E+02 -.885E-05 0.752E+03   0.859E+02 0.944E-05 -.754E+03   -.652E+01 -.627E-06 0.282E+01   0.259E-04 -.392E-08 0.218E-03
   -.655E+02 -.963E-05 -.126E+03   0.705E+02 0.104E-04 0.120E+03   -.498E+01 -.670E-06 0.561E+01   -.161E-03 -.557E-07 0.463E-03
   0.780E+02 -.549E-06 0.162E+03   -.843E+02 0.315E-06 -.157E+03   0.628E+01 0.253E-06 -.479E+01   0.224E-04 -.958E-08 0.856E-04
   0.776E+02 -.846E-05 0.478E+03   -.841E+02 0.907E-05 -.475E+03   0.651E+01 -.570E-06 -.319E+01   -.996E-04 -.289E-08 0.234E-03
   -.789E+02 -.426E+00 0.750E+03   0.854E+02 0.459E+00 -.753E+03   -.649E+01 -.331E-01 0.276E+01   -.205E-03 -.112E-03 0.520E-04
   -.662E+02 -.201E+01 -.128E+03   0.713E+02 0.221E+01 0.122E+03   -.510E+01 -.204E+00 0.572E+01   0.119E-03 -.310E-03 0.494E-03
   0.825E+02 0.155E+01 -.108E+04   -.887E+02 -.147E+01 0.109E+04   0.619E+01 -.750E-01 -.723E+01   -.811E-04 0.117E-03 0.644E-03
   0.777E+02 0.190E+01 -.720E+03   -.846E+02 -.174E+01 0.724E+03   0.681E+01 -.154E+00 -.327E+01   0.590E-05 0.122E-03 0.128E-03
   -.793E+02 -.830E-05 -.465E+03   0.856E+02 0.833E-05 0.462E+03   -.627E+01 0.668E-07 0.259E+01   -.132E-03 -.474E-07 -.927E-04
   -.591E+02 -.270E-04 -.129E+04   0.613E+02 0.293E-04 0.128E+04   -.223E+01 -.206E-05 0.100E+02   -.704E-04 -.210E-06 0.445E-03
   0.811E+02 0.281E-05 -.107E+04   -.874E+02 -.268E-05 0.108E+04   0.638E+01 0.529E-07 -.737E+01   0.951E-04 -.167E-06 0.613E-03
   0.804E+02 -.158E-04 -.718E+03   -.870E+02 0.170E-04 0.721E+03   0.661E+01 -.630E-06 -.302E+01   0.369E-03 -.656E-07 0.823E-03
[...]
   -.648E+02 0.135E+02 -.164E+04   0.702E+02 -.132E+02 0.163E+04   -.540E+01 -.257E+00 0.336E+01   0.201E-03 0.278E-03 0.101E-03
   -.322E+02 0.178E-01 0.228E+04   0.370E+02 -.176E-01 -.229E+04   -.657E+01 -.365E-03 0.171E+02   -.770E-04 -.151E-04 -.332E-04
   -.325E+02 0.933E-06 0.228E+04   0.373E+02 -.940E-06 -.229E+04   -.658E+01 0.439E-07 0.171E+02   -.976E-04 -.236E-07 -.299E-04
   0.821E+02 0.196E-05 0.138E+04   -.871E+02 -.110E-05 -.138E+04   0.398E+01 -.981E-06 -.449E+01   -.679E-04 -.119E-07 -.116E-03
   0.748E+02 0.405E-05 0.169E+04   -.819E+02 -.417E-05 -.168E+04   0.741E+01 0.303E-06 -.270E+01   0.129E-03 -.194E-07 -.992E-04
   -.862E+02 0.316E-01 0.194E+04   0.934E+02 -.297E-01 -.194E+04   -.699E+01 -.361E-02 -.158E+00   0.284E-04 0.203E-04 -.786E-04
   -.690E+02 0.770E+00 0.106E+04   0.747E+02 -.822E+00 -.106E+04   -.570E+01 0.489E-01 0.434E+01   0.246E-04 -.181E-04 0.384E-04
   0.819E+02 -.104E+00 0.138E+04   -.868E+02 0.869E-01 -.138E+04   0.385E+01 0.188E-01 -.434E+01   -.508E-04 -.468E-04 -.133E-03
   0.740E+02 -.107E+00 0.169E+04   -.810E+02 0.116E+00 -.168E+04   0.743E+01 -.216E-01 -.272E+01   0.652E-04 -.474E-04 -.860E-04
   -.863E+02 0.165E-05 0.194E+04   0.936E+02 -.170E-05 -.194E+04   -.695E+01 0.196E-06 -.181E+00   0.314E-05 -.226E-07 -.109E-03
   -.799E+02 -.788E-05 0.106E+04   0.866E+02 0.927E-05 -.106E+04   -.666E+01 -.151E-05 0.414E+01   -.958E-04 -.794E-08 -.189E-04
   0.815E+02 0.541E-05 0.157E+03   -.886E+02 -.538E-05 -.151E+03   0.706E+01 -.554E-07 -.531E+01   0.200E-03 0.276E-07 0.104E-03
   0.767E+02 0.855E-05 0.487E+03   -.830E+02 -.789E-05 -.484E+03   0.625E+01 -.652E-06 -.285E+01   0.377E-04 0.572E-08 0.448E-03
   -.800E+02 -.123E+00 0.750E+03   0.865E+02 0.117E+00 -.753E+03   -.655E+01 0.612E-02 0.271E+01   -.386E-05 0.139E-03 0.224E-03
   -.642E+02 0.138E+01 -.123E+03   0.690E+02 -.142E+01 0.118E+03   -.481E+01 0.406E-01 0.538E+01   0.810E-04 -.172E-03 0.374E-03
   0.794E+02 -.903E+00 0.164E+03   -.856E+02 0.966E+00 -.160E+03   0.623E+01 -.630E-01 -.428E+01   0.105E-03 -.306E-03 0.167E-03
   0.775E+02 -.843E+00 0.481E+03   -.841E+02 0.818E+00 -.478E+03   0.656E+01 0.259E-01 -.293E+01   0.783E-05 0.146E-04 0.352E-03
   -.755E+02 0.952E-05 0.750E+03   0.817E+02 -.994E-05 -.752E+03   -.619E+01 0.399E-06 0.277E+01   0.218E-03 -.670E-08 0.334E-03
   -.811E+02 0.233E-05 -.142E+03   0.881E+02 -.219E-05 0.137E+03   -.695E+01 -.182E-06 0.469E+01   0.196E-03 0.300E-07 0.902E-04
   0.870E+02 0.146E-04 -.108E+04   -.939E+02 -.150E-04 0.109E+04   0.689E+01 0.317E-06 -.772E+01   -.109E-03 0.982E-07 0.145E-03
   0.703E+02 -.219E-06 -.715E+03   -.763E+02 0.145E-05 0.718E+03   0.601E+01 -.111E-05 -.305E+01   -.909E-04 0.772E-07 0.130E-03
   -.813E+02 0.725E+00 -.458E+03   0.877E+02 -.741E+00 0.455E+03   -.640E+01 0.173E-01 0.282E+01   0.273E-03 0.308E-04 0.390E-03
   -.664E+02 0.974E+01 -.128E+04   0.687E+02 -.100E+02 0.127E+04   -.238E+01 0.300E+00 0.988E+01   0.108E-03 0.224E-03 0.637E-03
   0.805E+02 0.890E+01 -.105E+04   -.869E+02 -.918E+01 0.105E+04   0.639E+01 0.278E+00 -.592E+01   0.216E-03 0.262E-03 0.347E-03
   0.799E+02 0.999E+00 -.731E+03   -.864E+02 -.103E+01 0.734E+03   0.648E+01 0.373E-01 -.331E+01   0.120E-03 -.634E-04 0.368E-03
   -.727E+02 0.612E-05 -.462E+03   0.788E+02 -.679E-05 0.460E+03   -.608E+01 0.432E-06 0.245E+01   0.533E-04 0.600E-07 -.433E-04
   -.611E+02 -.169E-04 -.131E+04   0.669E+02 0.178E-04 0.130E+04   -.572E+01 -.122E-05 0.631E+01   0.191E-03 0.311E-06 0.101E-02
   0.107E+03 -.922E-05 -.227E+04   -.113E+03 0.965E-05 0.229E+04   0.574E+01 -.849E-06 -.204E+02   -.344E-04 0.285E-06 0.288E-03
   0.452E+02 -.353E-04 -.201E+04   -.488E+02 0.377E-04 0.202E+04   0.363E+01 -.286E-05 -.750E+01   -.112E-03 0.159E-06 0.733E-03
   -.491E+02 0.664E+01 -.165E+04   0.541E+02 -.649E+01 0.165E+04   -.495E+01 -.148E+00 0.318E+01   0.149E-03 -.161E-03 0.663E-03
   0.119E+02 0.313E+02 -.226E+04   -.172E+02 -.312E+02 0.228E+04   0.536E+01 -.123E+00 -.196E+02   -.127E-04 -.459E-03 0.376E-03
   0.784E+02 0.460E+02 -.195E+04   -.836E+02 -.456E+02 0.196E+04   0.513E+01 -.428E+00 -.646E+01   0.616E-04 -.195E-03 0.422E-03
   -.687E+02 -.184E-04 -.156E+04   0.732E+02 0.193E-04 0.156E+04   -.449E+01 -.788E-06 0.437E+01   0.216E-04 -.118E-07 0.248E-03
 -----------------------------------------------------------------------------------------------
   -.162E+02 0.353E-04 0.556E+02   0.136E-11 0.150E-11 -.728E-11   0.162E+02 -.261E-04 -.556E+02   0.326E-02 -.810E-05 0.198E-01


 POSITION                                       TOTAL-FORCE (eV/Angst)
 -----------------------------------------------------------------------------------
      6.28960      5.68441     21.72356         0.000799     -0.000035     -0.003293
      5.64310      5.68441     22.51263        -0.002012      0.000002      0.005029
      6.89680      4.86564     21.80064         0.002940     -0.002634      0.000802
      6.89680      6.50317     21.80064         0.002963      0.002668      0.000807
      8.29735      9.47401      8.23554         3.834545     -0.000178      1.702701
      6.07868      7.57921      9.11612        -1.659486      0.000014     -1.858110
      3.16102      7.57921      8.23554         3.807047     -0.003896      1.688425
      0.94235      9.47401      9.11612        -1.688590     -0.006200     -1.863572
      9.70296      9.47444     11.79892        -0.001724      0.000504      0.000094
      7.46107      7.57430     12.59646         0.000706     -0.000159      0.000102
      4.56182      7.57663     11.79566         0.000130     -0.002427     -0.000646
      2.31613      9.47353     12.60523         0.000769      0.000360      0.001210
      0.87814      9.47528     15.36023        -0.000559      0.001651      0.002244
      8.88480      7.57212     16.06407        -0.000309      0.000041      0.001957
      6.00350      7.57673     15.33938        -0.001773      0.002261     -0.000051
      3.73655      9.47458     16.08823        -0.000100     -0.001131      0.002756
      2.37673      9.46617     18.99059         0.001229     -0.000986      0.000225
      0.01239      7.56663     19.54483         0.002258      0.000862      0.004932
      7.49738      7.57766     18.91859         0.000860     -0.001246      0.002890
      5.17082      9.48964     19.53826        -0.000311      0.000536      0.002040
      8.29735      1.89480      8.23554         3.834545      0.000178      1.702701
      6.07868      0.00000      9.11612        -1.676960      0.000000     -1.862283
      3.16102      0.00000      8.23554         3.826929      0.000000      1.697594
      0.94235      1.89480      9.11612        -1.688590      0.006200     -1.863572
      9.70296      1.89437     11.79892        -0.001724     -0.000504      0.000094
      7.45680     11.36881     12.59828         0.000708     -0.000000      0.000866
      4.56387     11.36881     11.79879        -0.002825     -0.000000      0.000312
      2.31613      1.89529     12.60523         0.000768     -0.000360      0.001210
      0.87814      1.89353     15.36023        -0.000559     -0.001651      0.002244
      8.87219     -0.00000     16.07703         0.002460      0.000000      0.001061
      6.00954     11.36881     15.34943        -0.001574     -0.000000      0.001101
      3.73655      1.89423     16.08823        -0.000100      0.001131      0.002756
      2.37673      1.90265     18.99059         0.001228      0.000986      0.000225
      0.03709     11.36881     19.54521         0.005401     -0.000000      0.007040
      7.53093     -0.00000     18.97526        -0.003082      0.000000      0.000932
      5.17082      1.87918     19.53826        -0.000310     -0.000536      0.002040
      8.29735      5.68441      8.23554         3.847994     -0.000000      1.699306
      6.07868      3.78960      9.11612        -1.659486     -0.000014     -1.858109
      3.16102      3.78960      8.23554         3.807048      0.003896      1.688425
      0.94235      5.68441      9.11612        -1.658789     -0.000000     -1.790736
      9.71904      5.68441     11.79391         0.003252     -0.000000      0.001114
      7.46107      3.79452     12.59646         0.000706      0.000159      0.000102
      4.56182      3.79219     11.79566         0.000130      0.002427     -0.000646
      2.31971      5.68441     12.63544        -0.002933      0.000000     -0.001222
      0.91004      5.68441     15.36701        -0.000005     -0.000000     -0.000418
      8.88480      3.79669     16.06407        -0.000309     -0.000041      0.001957
      6.00350      3.79208     15.33938        -0.001773     -0.002260     -0.000051
      3.75503      5.68441     16.17598        -0.000004      0.000000      0.000817
      2.41699      5.68441     19.01030        -0.001192      0.000001      0.004370
      0.01239      3.80218     19.54484         0.002257     -0.000862      0.004931
      7.49738      3.79116     18.91859         0.000860      0.001246      0.002889
      5.20291      5.68441     19.70272         0.000672      0.000000      0.004678
      5.01424      7.57921      7.50000        -1.751655      0.000181      0.958590
     10.15057      9.47401      7.50000        -1.748101      0.000609      0.954868
      9.36179      9.47401      9.85165        -1.000174     -0.003370     -0.174131
      6.44412      9.47401      8.97107         0.351483     -0.000744     -0.045408
      7.93191      7.57921      8.38058         0.266983      0.001702     -1.067922
      6.41224      7.57921     11.02232        -0.068153      0.003340      0.443694
      4.22546      7.57921      9.85165        -1.004664     -0.001498     -0.160163
      1.30779      7.57921      8.97107         0.361388      0.013132     -0.053614
      2.79558      9.47401      8.38058         0.276096     -0.002116     -1.069754
      1.27591      9.47401     11.02232        -0.011536     -0.002282      0.475841
      0.50387      9.47678     13.39203        -0.000363     -0.001141     -0.000625
      7.84568      9.47342     12.49255        -0.000179     -0.000058     -0.000635
      9.33914      7.57809     11.91128        -0.000526      0.000543     -0.001986
      7.84481      7.57621     14.52209         0.000712      0.000695      0.001028
      5.63743      7.57367     13.39214         0.001346      0.000653      0.000356
      2.70738      7.57777     12.50169        -0.000378     -0.000416      0.001416
      4.19644      9.47323     11.90985        -0.000649      0.000660     -0.000153
      2.70931      9.46588     14.53643        -0.000839      0.001039      0.001515
      1.97800      9.46882     16.93650        -0.000391      0.000919     -0.002097
      9.28334      9.47474     16.00019         0.000662     -0.001393      0.000767
      0.52164      7.57737     15.43693         0.000714     -0.000012     -0.000855
      9.38585      7.58198     18.01178        -0.000910     -0.001476     -0.003639
      7.12590      7.59031     16.91210         0.000616      0.001285      0.001008
      4.15243      7.57844     16.03960        -0.000119     -0.002007     -0.000098
      5.64498      9.47312     15.43359         0.002262     -0.001604      0.001096
      4.23671      9.50537     18.02657         0.002419     -0.001061      0.001006
      3.56484      9.46774     20.42643         0.004007      0.000871      0.001080
      0.54037      9.46749     19.77853        -0.000613     -0.000631      0.002648
      2.00650      7.57496     19.00145         0.000464     -0.001133      0.002717
      8.65956      7.54784     20.40315        -0.001866      0.000115      0.001547
      5.68358      7.60781     19.73814         0.002458     -0.002829      0.000307
      7.14918      9.48118     18.95409         0.000814      0.001085      0.000459
      5.01424      0.00000      7.50000        -1.749817     -0.000000      0.956325
     10.15057      1.89480      7.50000        -1.748101     -0.000609      0.954868
      9.36179      1.89480      9.85165        -1.000174      0.003370     -0.174131
      6.44412      1.89480      8.97107         0.351483      0.000744     -0.045408
      7.93191      0.00000      8.38058         0.269394     -0.000000     -1.068719
      6.41224      0.00000     11.02232        -0.054822     -0.000000      0.429484
      4.22546      0.00000      9.85165        -1.004248     -0.000000     -0.162604
      1.30779      0.00000      8.97107         0.356622     -0.000000     -0.045697
      2.79558      1.89480      8.38058         0.276096      0.002116     -1.069754
      1.27591      1.89480     11.02232        -0.011536      0.002282      0.475841
      0.50387      1.89204     13.39203        -0.000363      0.001141     -0.000625
      7.84568      1.89539     12.49255        -0.000179      0.000058     -0.000635
      9.33639     11.36881     11.90741        -0.000395     -0.000000      0.002294
      7.84528     11.36881     14.52643         0.000238      0.000000     -0.000197
      5.64005     11.36881     13.38884         0.000755      0.000000      0.000687
      2.70822     -0.00000     12.50383         0.000631      0.000000     -0.002064
      4.19644      1.89558     11.90985        -0.000649     -0.000660     -0.000153
      2.70931      1.90293     14.53643        -0.000838     -0.001039      0.001516
      1.97800      1.89999     16.93650        -0.000390     -0.000919     -0.002097
      9.28334      1.89408     16.00019         0.000662      0.001393      0.000767
      0.52251     11.36881     15.44250         0.000913      0.000000     -0.000002
      9.38550     11.36881     18.02413        -0.000463      0.000000     -0.002017
      7.11987     11.36881     16.91933         0.000488      0.000000      0.004714
      4.14151     -0.00000     16.00110         0.001131      0.000000      0.000439
      5.64498      1.89569     15.43359         0.002262      0.001604      0.001096
      4.23671      1.86345     18.02657         0.002418      0.001061      0.001004
      3.56484      1.90108     20.42643         0.004007     -0.000871      0.001081
      0.54037      1.90132     19.77853        -0.000613      0.000631      0.002648
      2.00451     -0.00000     18.99524        -0.000105      0.000000      0.001117
      8.69840     11.36881     20.42404        -0.002978      0.000000     -0.001438
      5.70205     11.36881     19.79658         0.000136      0.000000     -0.001343
      7.14918      1.88763     18.95409         0.000814     -0.001085      0.000459
      5.01424      3.78960      7.50000        -1.751655     -0.000181      0.958590
     10.15057      5.68441      7.50000        -1.762538      0.000000      0.940703
      9.36179      5.68441      9.85165        -1.018408     -0.000000     -0.187992
      6.44412      5.68441      8.97107         0.348009      0.000000     -0.045132
      7.93191      3.78960      8.38058         0.266983     -0.001702     -1.067922
      6.41224      3.78960     11.02232        -0.068152     -0.003340      0.443695
      4.22546      3.78960      9.85165        -1.004664      0.001497     -0.160163
      1.30779      3.78960      8.97107         0.361388     -0.013132     -0.053614
      2.79558      5.68441      8.38058         0.281927      0.000000     -1.076263
      1.27591      5.68441     11.02232         0.034233     -0.000000      0.577135
      0.51068      5.68441     13.39596        -0.002699     -0.000000     -0.001103
      7.84626      5.68441     12.48930        -0.001277      0.000000     -0.000073
      9.33914      3.79072     11.91128        -0.000526     -0.000543     -0.001986
      7.84481      3.79260     14.52209         0.000712     -0.000695      0.001028
      5.63743      3.79515     13.39214         0.001346     -0.000653      0.000357
      2.70738      3.79105     12.50169        -0.000378      0.000416      0.001416
      4.19798      5.68441     11.91093         0.000337     -0.000000      0.000374
      2.72045      5.68441     14.56372         0.001050     -0.000000      0.001752
      1.97384      5.68441     16.95538         0.000715     -0.000000     -0.001376
      9.28364      5.68441     16.00356        -0.000704      0.000000      0.000249
      0.52164      3.79145     15.43693         0.000715      0.000012     -0.000855
      9.38585      3.78683     18.01178        -0.000910      0.001476     -0.003637
      7.12590      3.77850     16.91210         0.000616     -0.001285      0.001007
      4.15243      3.79037     16.03960        -0.000119      0.002007     -0.000098
      5.65229      5.68441     15.45841        -0.000009     -0.000000     -0.001365
      4.23459      5.68441     18.09751        -0.000536     -0.000000     -0.000067
      3.54373      5.68441     20.48892         0.001700     -0.000000      0.002734
      0.53545      5.68441     19.78477         0.001995     -0.000000     -0.000933
      2.00650      3.79385     19.00145         0.000464      0.001132      0.002717
      8.65956      3.82097     20.40315        -0.001865     -0.000115      0.001547
      5.68358      3.76100     19.73814         0.002457      0.002830      0.000308
      7.12190      5.68441     18.92331         0.001980      0.000000      0.000378
 -----------------------------------------------------------------------------------
    total drift:                                0.002008      0.000001      0.002918


--------------------------------------------------------------------------------------------------------



  FREE ENERGIE OF THE ION-ELECTRON SYSTEM (eV)
  ---------------------------------------------------
  free  energy   TOTEN  =     -1295.07259596 eV

  energy  without entropy=    -1295.07259596  energy(sigma->0) =    -1295.07259596

 d Force = 0.2814629E-04[ 0.954E-05, 0.468E-04]  d Energy = 0.2845627E-04-0.310E-06
 d Force = 0.1485494E+02[ 0.149E+02, 0.149E+02]  d Ewald  = 0.1485494E+02-0.806E-06


--------------------------------------------------------------------------------------------------------


    POTLOK:  cpu time      0.6598: real time      0.6602


--------------------------------------------------------------------------------------------------------


 Conjugate gradient step on ions:
 trial-energy change:   -0.000028  1 .order   -0.000028   -0.000047   -0.000010
  (g-gl).g = 0.875E-04      g.g   = 0.919E-04  gl.gl    = 0.105E-03
 g(Force)  = 0.919E-04   g(Stress)= 0.000E+00 ortho     = 0.532E-05
 gamma     =   0.83646
 trial     =   0.48509
 opt step  =   0.60938  (harmonic =   0.60938) maximal distance =0.00079195
 next E    = -1295.072597   (d E  =  -0.00003)


--------------------------------------------------------------------------------------------------------


  
 reached required accuracy - stopping structural energy minimisation
     LOOP+:  cpu time    289.7424: real time    289.9493
    4ORBIT:  cpu time      0.0000: real time      0.0000

 total amount of memory used by VASP MPI-rank0   133074. kBytes
=======================================================================

   base      :      30000. kBytes
   nonl-proj :      71876. kBytes
   fftplans  :       9630. kBytes
   grid      :      15693. kBytes
   one-center:        295. kBytes
   wavefun   :       5580. kBytes

  
  
 General timing and accounting informations for this job:
 ========================================================
  
                  Total CPU time used (sec):    26895.295
                            User time (sec):    26844.872
                          System time (sec):       50.424
                         Elapsed time (sec):    26940.080
  
                   Maximum memory used (kb):      346284.
                   Average memory used (kb):          N/A
  
                          Minor page faults:      7595171
                          Major page faults:         1670
                 Voluntary context switches:        35512
