 vasp.6.3.0 20Jan22 (build Apr  1 2022 16:44:48) gamma-only                      
 executed on        HPECrayEX_GCC date 2023.04.18  12:49:07
 running  512 mpi-ranks, with    1 threads/rank
 distrk:  each k-point on  512 cores,    1 groups
 distr:  one band on NCORE=   8 cores,   64 groups


--------------------------------------------------------------------------------------------------------


 INCAR:
   SYSTEM = TiO2
   ISMEAR = 0
   SIGMA = 0.05
   EDIFF = 1E-7
   ALGO = ALL
   ISTART = 0
   IBRION = 2
   NSW = 1000
   ISYM = 0
   ISIF = 2
   EDIFFG = -0.005
   DIPOL = 0.5 0.5 0.5
   IDIPOL = 4
   LDIPOL = .TRUE.
   GGA = MK
   LUSE_VDW = .TRUE.
   PARAM1 = 0.1234
   PARAM2 = 0.711357
   ZAB_VDW = -1.8867
   AGGAC = 0.0
   ENCUT = 600
   PREC = Accurate
   LASPH = .TRUE.
   LREAL = .FALSE.
   ISPIN = 1
   NELM = 200
   NELMIN = 8
   NCORE = 8
   KPAR = 1
   LWAVE = .FALSE.
   LCHARG = .FALSE.

 POTCAR:    PAW_PBE C 08Apr2002                   
 POTCAR:    PAW_PBE O 08Apr2002                   
 POTCAR:    PAW_PBE H 15Jun2001                   
 -----------------------------------------------------------------------------
|                                                                             |
|               ----> ADVICE to this user running VASP <----                  |
|                                                                             |
|     You have switched on vdW-DFT.                                           |
|     This routine was written and supplied by Jiri Klimes. We recommend      |
|     that you carefully read and cite the following publications:            |
|       J. Klimes, D.R. Bowler, A. Michelides                                 |
|          J. Phys.: Cond Matt. 22 022201 (2010)                              |
|       J. Klimes, D.R. Bowler, A. Michelides                                 |
|          Phys. Rev. B. 83, 195131 (2011)                                    |
|     and references therein.                                                 |
|                                                                             |
 -----------------------------------------------------------------------------

 POTCAR:    PAW_PBE C 08Apr2002                   
   SHA256 =  253f7b50bb8d59471dbedb8285d89021f4a42ed1a2c5d38a03a736e69125dd95 C/POTCAR              
   COPYR  = (c) Copyright 08Apr2002 Georg Kresse                                                    
   COPYR  = This file is part of the software VASP. Any use, copying, and all other rights are regul
   COPYR  = If you do not have a valid VASP license, you may not use, copy or distribute this file. 
   VRHFIN =C: s2p2                                                                                  
   LEXCH  = PE                                                                                      
   EATOM  =   147.1560 eV,   10.8157 Ry                                                             
                                                                                                    
   TITEL  = PAW_PBE C 08Apr2002                                                                     
   LULTRA =        F    use ultrasoft PP ?                                                          
   IUNSCR =        1    unscreen: 0-lin 1-nonlin 2-no                                               
   RPACOR =    1.200    partial core radius                                                         
   POMASS =   12.011; ZVAL   =    4.000    mass and valenz                                          
   RCORE  =    1.500    outmost cutoff radius                                                       
   RWIGS  =    1.630; RWIGS  =    0.863    wigner-seitz radius (au A)                               
   ENMAX  =  400.000; ENMIN  =  300.000 eV                                                          
   ICORE  =        2    local potential                                                             
   LCOR   =        T    correct aug charges                                                         
   LPAW   =        T    paw PP                                                                      
   EAUG   =  644.873                                                                                
   DEXC   =    0.000                                                                                
   RMAX   =    1.529    core radius for proj-oper                                                   
   RAUG   =    1.300    factor for augmentation sphere                                              
   RDEP   =    1.501    radius for radial grids                                                     
   RDEPT  =    1.300    core radius for aug-charge                                                  
                                                                                                    
   Atomic configuration                                                                             
    4 entries                                                                                       
     n  l   j            E        occ.                                                              
     1  0  0.50      -273.3789   2.0000                                                             
     2  0  0.50       -13.7508   2.0000                                                             
     2  1  0.50        -5.2854   2.0000                                                             
     3  2  1.50        -5.4423   0.0000                                                             
   Description                                                                                      
     l       E           TYP  RCUT    TYP  RCUT                                                     
     0    -13.7508458     23  1.200                                                                 
     0     -8.2022199     23  1.200                                                                 
     1     -5.2854383     23  1.500                                                                 
     1     34.0145650     23  1.500                                                                 
     2     -5.4423304      7  1.500                                                                 
  local pseudopotential read in
  partial core-charges read in
  partial kinetic energy density read in
  atomic valenz-charges read in
  non local Contribution for L=           0  read in
    real space projection operators read in
  non local Contribution for L=           0  read in
    real space projection operators read in
  non local Contribution for L=           1  read in
    real space projection operators read in
  non local Contribution for L=           1  read in
    real space projection operators read in
    PAW grid and wavefunctions read in

   number of l-projection  operators is LMAX  =           4
   number of lm-projection operators is LMMAX =           8

 POTCAR:    PAW_PBE O 08Apr2002                   
   SHA256 =  818f92134a0a090dccd8ba1447fa70422a3b330e708bb4f08108d8ae51209ddf O/POTCAR              
   COPYR  = (c) Copyright 08Apr2002 Georg Kresse                                                    
   COPYR  = This file is part of the software VASP. Any use, copying, and all other rights are regul
   COPYR  = If you do not have a valid VASP license, you may not use, copy or distribute this file. 
   VRHFIN =O: s2p4                                                                                  
   LEXCH  = PE                                                                                      
   EATOM  =   432.3788 eV,   31.7789 Ry                                                             
                                                                                                    
   TITEL  = PAW_PBE O 08Apr2002                                                                     
   LULTRA =        F    use ultrasoft PP ?                                                          
   IUNSCR =        1    unscreen: 0-lin 1-nonlin 2-no                                               
   RPACOR =    1.200    partial core radius                                                         
   POMASS =   16.000; ZVAL   =    6.000    mass and valenz                                          
   RCORE  =    1.520    outmost cutoff radius                                                       
   RWIGS  =    1.550; RWIGS  =    0.820    wigner-seitz radius (au A)                               
   ENMAX  =  400.000; ENMIN  =  300.000 eV                                                          
   ICORE  =        2    local potential                                                             
   LCOR   =        T    correct aug charges                                                         
   LPAW   =        T    paw PP                                                                      
   EAUG   =  605.392                                                                                
   DEXC   =    0.000                                                                                
   RMAX   =    1.553    core radius for proj-oper                                                   
   RAUG   =    1.300    factor for augmentation sphere                                              
   RDEP   =    1.550    radius for radial grids                                                     
   RDEPT  =    1.329    core radius for aug-charge                                                  
                                                                                                    
   Atomic configuration                                                                             
    4 entries                                                                                       
     n  l   j            E        occ.                                                              
     1  0  0.50      -514.6923   2.0000                                                             
     2  0  0.50       -23.9615   2.0000                                                             
     2  1  0.50        -9.0305   4.0000                                                             
     3  2  1.50        -9.5241   0.0000                                                             
   Description                                                                                      
     l       E           TYP  RCUT    TYP  RCUT                                                     
     0    -23.9615318     23  1.200                                                                 
     0     -9.5240782     23  1.200                                                                 
     1     -9.0304911     23  1.520                                                                 
     1      8.1634956     23  1.520                                                                 
     2     -9.5240782      7  1.500                                                                 
  local pseudopotential read in
  partial core-charges read in
  partial kinetic energy density read in
  kinetic energy density of atom read in
  atomic valenz-charges read in
  non local Contribution for L=           0  read in
    real space projection operators read in
  non local Contribution for L=           0  read in
    real space projection operators read in
  non local Contribution for L=           1  read in
    real space projection operators read in
  non local Contribution for L=           1  read in
    real space projection operators read in
    PAW grid and wavefunctions read in

   number of l-projection  operators is LMAX  =           4
   number of lm-projection operators is LMMAX =           8

 POTCAR:    PAW_PBE H 15Jun2001                   
   SHA256 =  030f79b5d3ab3cf0e668861823c8fb652ff669f3e15e46930bd03bfd63a607b6 H/POTCAR              
   COPYR  = (c) Copyright 15Jun2001 Georg Kresse                                                    
   COPYR  = This file is part of the software VASP. Any use, copying, and all other rights are regul
   COPYR  = If you do not have a valid VASP license, you may not use, copy or distribute this file. 
   VRHFIN =H: ultrasoft test                                                                        
   LEXCH  = PE                                                                                      
   EATOM  =    12.4884 eV,    0.9179 Ry                                                             
                                                                                                    
   TITEL  = PAW_PBE H 15Jun2001                                                                     
   LULTRA =        F    use ultrasoft PP ?                                                          
   IUNSCR =        0    unscreen: 0-lin 1-nonlin 2-no                                               
   RPACOR =    0.000    partial core radius                                                         
   POMASS =    1.000; ZVAL   =    1.000    mass and valenz                                          
   RCORE  =    1.100    outmost cutoff radius                                                       
   RWIGS  =    0.700; RWIGS  =    0.370    wigner-seitz radius (au A)                               
   ENMAX  =  250.000; ENMIN  =  200.000 eV                                                          
   RCLOC  =    0.701    cutoff for local pot                                                        
   LCOR   =        T    correct aug charges                                                         
   LPAW   =        T    paw PP                                                                      
   EAUG   =  400.000                                                                                
   RMAX   =    1.123    core radius for proj-oper                                                   
   RAUG   =    1.200    factor for augmentation sphere                                              
   RDEP   =    1.112    radius for radial grids                                                     
   RDEPT  =    0.926    core radius for aug-charge                                                  
                                                                                                    
   Atomic configuration                                                                             
    2 entries                                                                                       
     n  l   j            E        occ.                                                              
     1  0  0.50        -6.4927   1.0000                                                             
     2  1  0.50        -3.4015   0.0000                                                             
   Description                                                                                      
     l       E           TYP  RCUT    TYP  RCUT                                                     
     0     -6.4927494     23  1.100                                                                 
     0      6.8029130     23  1.100                                                                 
     1     -4.0817478     23  1.100                                                                 
  local pseudopotential read in
  atomic valenz-charges read in
  non local Contribution for L=           0  read in
    real space projection operators read in
  non local Contribution for L=           0  read in
    real space projection operators read in
  non local Contribution for L=           1  read in
    real space projection operators read in
    PAW grid and wavefunctions read in

   number of l-projection  operators is LMAX  =           3
   number of lm-projection operators is LMMAX =           5

 -----------------------------------------------------------------------------
|                                                                             |
|               ----> ADVICE to this user running VASP <----                  |
|                                                                             |
|     You enforced a specific xc type in the INCAR file but a different       |
|     type was found in the POTCAR file.                                      |
|     I HOPE YOU KNOW WHAT YOU ARE DOING!                                     |
|                                                                             |
 -----------------------------------------------------------------------------

  PAW_PBE C 08Apr2002                   :
 energy of atom  1       EATOM= -147.1560
 kinetic energy error for atom=    0.0057 (will be added to EATOM!!)
  PAW_PBE O 08Apr2002                   :
 energy of atom  2       EATOM= -432.3788
 kinetic energy error for atom=    0.0168 (will be added to EATOM!!)
  PAW_PBE H 15Jun2001                   :
 energy of atom  3       EATOM=  -12.4884
 kinetic energy error for atom=    0.0004 (will be added to EATOM!!)


 POSCAR:  C  O  H
  positions in direct lattice
  No initial velocities read in
 exchange correlation table for  LEXCH =       43
   RHO(1)=    0.500       N(1)  =     2000
   RHO(2)=  100.500       N(2)  =     4000



--------------------------------------------------------------------------------------------------------


 ion  position               nearest neighbor table
   1  0.492  0.505  0.498-   3 1.09   5 1.10   6 1.10   2 1.45
   2  0.513  0.443  0.444-   4 1.00   1 1.45
   3  0.430  0.512  0.495-   1 1.09
   4  0.570  0.440  0.442-   2 1.00
   5  0.509  0.489  0.558-   1 1.10
   6  0.521  0.560  0.481-   1 1.10


IMPORTANT INFORMATION: All symmetrisations will be switched off!
NOSYMM: (Re-)initialisation of all symmetry stuff for point group C_1.


----------------------------------------------------------------------------------------

                                     Primitive cell                                     

  volume of cell :    5054.2795

  direct lattice vectors                    reciprocal lattice vectors
    17.452980646  0.000000000  0.000000000     0.057296803  0.000000000  0.000000000
     0.000000000 17.063102161  0.000000000     0.000000000  0.058605990  0.000000000
     0.000000000  0.000000000 16.971946747     0.000000000  0.000000000  0.058920760

  length of vectors
    17.452980646 17.063102161 16.971946747     0.057296803  0.058605990  0.058920760

  position of ions in fractional coordinates (direct lattice)
     0.492007253  0.505378353  0.498119491
     0.513123298  0.442810149  0.444432704
     0.429726025  0.511865753  0.495100013
     0.570273975  0.439544927  0.441905700
     0.509441848  0.489052373  0.558094300
     0.520628892  0.560455073  0.481463440

  ion indices of the primitive-cell ions
   primitive index   ion index
                 1           1
                 2           2
                 3           3
                 4           4
                 5           5
                 6           6

----------------------------------------------------------------------------------------



 KPOINTS: pymatgen v2020.8.13 with grid density = 

Automatic generation of k-mesh.
 Grid dimensions read from file:
 generate k-points for:    1    1    1

 Generating k-lattice:

  Cartesian coordinates                     Fractional coordinates (reciprocal lattice)
     0.057296803  0.000000000  0.000000000     1.000000000  0.000000000  0.000000000
     0.000000000  0.058605990  0.000000000     0.000000000  1.000000000  0.000000000
     0.000000000  0.000000000  0.058920760     0.000000000  0.000000000  1.000000000

  Length of vectors
     0.057296803  0.058605990  0.058920760

  Shift w.r.t. Gamma in fractional coordinates (k-lattice)
     0.000000000  0.000000000  0.000000000

 
 Subroutine IBZKPT returns following result:
 ===========================================
 
 Found      1 irreducible k-points:
 
 Following reciprocal coordinates:
            Coordinates               Weight
  0.000000  0.000000  0.000000      1.000000
 
 Following cartesian coordinates:
            Coordinates               Weight
  0.000000  0.000000  0.000000      1.000000
 


--------------------------------------------------------------------------------------------------------




 Dimension of arrays:
   k-points           NKPTS =      1   k-points in BZ     NKDIM =      1   number of bands    NBANDS=     64
   number of dos      NEDOS =    301   number of ions     NIONS =      6
   non local maximal  LDIM  =      4   non local SUM 2l+1 LMDIM =      8
   total plane-waves  NPLWV = ******
   max r-space proj   IRMAX =      1   max aug-charges    IRDMAX=   7242
   dimension x,y,z NGX =   140 NGY =  140 NGZ =  140
   dimension x,y,z NGXF=   280 NGYF=  280 NGZF=  280
   support grid    NGXF=   280 NGYF=  280 NGZF=  280
   ions per type =               1   1   4
   NGX,Y,Z   is equivalent  to a cutoff of  13.34, 13.64, 13.71 a.u.
   NGXF,Y,Z  is equivalent  to a cutoff of  26.67, 27.28, 27.43 a.u.

 SYSTEM =  TiO2                                    
 POSCAR =   C  O  H                                

--------------------------------------------------------------------------------------------------------


  energy-cutoff  :      600.00
  volume of cell :     5054.28
      direct lattice vectors                 reciprocal lattice vectors
    17.452980646  0.000000000  0.000000000     0.057296803  0.000000000  0.000000000
     0.000000000 17.063102161  0.000000000     0.000000000  0.058605990  0.000000000
     0.000000000  0.000000000 16.971946747     0.000000000  0.000000000  0.058920760

  length of vectors
    17.452980646 17.063102161 16.971946747     0.057296803  0.058605990  0.058920760



 k-points in units of 2pi/SCALE and weight: pymatgen v2020.8.13 with grid density = 
   0.00000000  0.00000000  0.00000000       1.000

 k-points in reciprocal lattice and weights: pymatgen v2020.8.13 with grid density = 
   0.00000000  0.00000000  0.00000000       1.000

 position of ions in fractional coordinates (direct lattice) 
   0.49200725  0.50537835  0.49811949
   0.51312330  0.44281015  0.44443270
   0.42972603  0.51186575  0.49510001
   0.57027397  0.43954493  0.44190570
   0.50944185  0.48905237  0.55809430
   0.52062889  0.56045507  0.48146344

 position of ions in cartesian coordinates  (Angst):
   8.58699307  8.62332247  8.45405748
   8.95553099  7.55571481  7.54288818
   7.50000000  8.73401763  8.40281106
   9.95298065  7.50000000  7.50000000
   8.89127872  8.34475060  9.47194675
   9.08652598  9.56310216  8.17137186



--------------------------------------------------------------------------------------------------------


--------------------------------------- Iteration      FINAL  ---------------------------------------


--------------------OUTCAR has been truncated-------------------------


--------------------OUTCAR has been truncated-------------------------


--------------------OUTCAR has been truncated-------------------------


--------------------OUTCAR has been truncated-------------------------


--------------------OUTCAR has been truncated-------------------------


--------------------OUTCAR has been truncated-------------------------


--------------------OUTCAR has been truncated-------------------------


--------------------OUTCAR has been truncated-------------------------


--------------------OUTCAR has been truncated-------------------------


--------------------OUTCAR has been truncated-------------------------


  FORCE on cell =-STRESS in cart. coord.  units (eV):
  Direction    XX          YY          ZZ          XY          YZ          ZX
  --------------------------------------------------------------------------------------
  Alpha Z     0.14803     0.14803     0.14803
  Ewald     135.52828   171.91396   142.45300   -70.30290   132.03451   -51.73178
  Hartree   291.26441   352.65281   336.49377   -35.96998    77.17216   -30.09996
  E(xc)     -57.12965   -57.48040   -57.48544    -0.03591     0.01648     0.01246
  Local    -556.30007  -671.55228  -628.32347    99.30090  -199.30743    78.81939
  n-local   -41.38984   -40.04572   -40.44509    -0.87858     1.70421    -0.76490
  augment     6.19626     7.22628     7.42125     0.51794    -0.87685     0.24340
  Kinetic   221.58259   237.04276   239.64603     7.37368   -10.74693     3.52209
  Fock        0.00000     0.00000     0.00000     0.00000     0.00000     0.00000
  -------------------------------------------------------------------------------------
  Total      -0.10000    -0.09456    -0.09192     0.00514    -0.00385     0.00069
  in kB      -0.03170    -0.02997    -0.02914     0.00163    -0.00122     0.00022
  external pressure =       -0.03 kB  Pullay stress =        0.00 kB


 VOLUME and BASIS-vectors are now :
 -----------------------------------------------------------------------------
  energy-cutoff  :      600.00
  volume of cell :     5054.28
      direct lattice vectors                 reciprocal lattice vectors
    17.452980646  0.000000000  0.000000000     0.057296803  0.000000000  0.000000000
     0.000000000 17.063102161  0.000000000     0.000000000  0.058605990  0.000000000
     0.000000000  0.000000000 16.971946747     0.000000000  0.000000000  0.058920760

  length of vectors
    17.452980646 17.063102161 16.971946747     0.057296803  0.058605990  0.058920760


 FORCES acting on ions:
    Electron-Ion                     Ewald-Force                    Non-Local-Force
 -----------------------------------------------------------------------------------------------
   0.334E+02 -.908E+02 -.818E+02   -.350E+02 0.948E+02 0.854E+02   0.161E+01 -.404E+01 -.363E+01
   0.331E+01 0.124E+03 0.118E+03   -.351E+02 -.147E+03 -.144E+03   0.318E+02 0.228E+02 0.256E+02
   0.653E+02 -.149E+02 -.570E+01   -.710E+02 0.154E+02 0.547E+01   0.575E+01 -.541E+00 0.228E+00
   -.957E+02 0.220E+02 0.897E+01   0.104E+03 -.232E+02 -.910E+01   -.822E+01 0.121E+01 0.130E+00
   -.122E+02 0.581E+01 -.648E+02   0.136E+02 -.712E+01 0.701E+02   -.140E+01 0.131E+01 -.525E+01
   -.214E+02 -.623E+02 0.700E+01   0.237E+02 0.672E+02 -.834E+01   -.224E+01 -.494E+01 0.134E+01
 -----------------------------------------------------------------------------------------------
   -.273E+02 -.158E+02 -.184E+02   0.355E-14 0.000E+00 -.533E-14   0.273E+02 0.158E+02 0.184E+02


 POSITION                                       TOTAL-FORCE (eV/Angst)
 -----------------------------------------------------------------------------------
      8.61017      8.61360      8.44469        -0.000907      0.000832      0.001105
      8.95988      7.58418      7.51418         0.000754      0.000344     -0.001921
      7.51853      8.71514      8.40041         0.000279     -0.001657      0.000866
      9.92575      7.46964      7.52559        -0.001149     -0.000096      0.000643
      8.89620      8.35330      9.47883        -0.000461      0.001236     -0.000435
      9.06279      9.58504      8.17938         0.001484     -0.000659     -0.000258
 -----------------------------------------------------------------------------------
    total drift:                               -0.000311     -0.000167     -0.000015


--------------------------------------------------------------------------------------------------------



  FREE ENERGIE OF THE ION-ELECTRON SYSTEM (eV)
  ---------------------------------------------------
  free  energy   TOTEN  =       -27.32276409 eV

  energy  without entropy=      -27.32276409  energy(sigma->0) =      -27.32276409

 d Force = 0.1129925E-05[ 0.523E-06, 0.174E-05]  d Energy = 0.1166375E-05-0.365E-07
 d Force = 0.3754382E-02[ 0.375E-02, 0.376E-02]  d Ewald  = 0.3754382E-02 0.213E-09


--------------------------------------------------------------------------------------------------------


    POTLOK:  cpu time      1.4213: real time      1.4217


--------------------------------------------------------------------------------------------------------


 Conjugate gradient step on ions:
 trial-energy change:   -0.000001  1 .order   -0.000001   -0.000002   -0.000001
  (g-gl).g = 0.589E-05      g.g   = 0.610E-05  gl.gl    = 0.128E-04
 g(Force)  = 0.610E-05   g(Stress)= 0.000E+00 ortho     = 0.200E-06
 gamma     =   0.45973
 trial     =   0.28026
 opt step  =   0.40112  (harmonic =   0.40112) maximal distance =0.00012576
 next E    =   -27.322764   (d E  =  -0.00000)


--------------------------------------------------------------------------------------------------------


  
 reached required accuracy - stopping structural energy minimisation
     LOOP+:  cpu time     27.1956: real time     27.2684
    4ORBIT:  cpu time      0.0000: real time      0.0000

 total amount of memory used by VASP MPI-rank0    62683. kBytes
=======================================================================

   base      :      30000. kBytes
   nonl-proj :       3041. kBytes
   fftplans  :       9938. kBytes
   grid      :      19196. kBytes
   one-center:          1. kBytes
   wavefun   :        507. kBytes

  
  
 General timing and accounting informations for this job:
 ========================================================
  
                  Total CPU time used (sec):     1333.908
                            User time (sec):     1324.097
                          System time (sec):        9.811
                         Elapsed time (sec):     1351.273
  
                   Maximum memory used (kb):      283660.
                   Average memory used (kb):          N/A
  
                          Minor page faults:      1591162
                          Major page faults:           46
                 Voluntary context switches:        28261
