 **********************************************************************
                          MRCC program system
 **********************************************************************
 
                              Written by
     Mihaly Kallay, Peter R. Nagy, David Mester, Laszlo Gyevi-Nagy,
        Jozsef Csoka, P. Bernat Szabo, Zoltan Rolik, Gyula Samu,
     Jozsef Csontos, Bence Hegely, Adam Ganyecz, Istvan Ladjanszki,
       Lorant Szegedy, Bence Ladoczki, Klara Petrov, Mate Farkas,
                    Pal D. Mezei, and Reka A. Horvath
 
        Department of Physical Chemistry and Materials Science
            Budapest University of Technology and Economics
                  Budapest P.O.Box 91, H-1521 Hungary
 
                              www.mrcc.hu
 
                      Release date: March 18, 2022

 ************************ 2024-08-25 01:39:23 *************************
 Executing minp...

 Reading input from MINP...
 
 Input file:
 
calc=LNO-CCSD(T)
scftype=rhf
verbosity=3
mem=1400GB
symm=off
unit=angs
scfiguess=small
scfmaxit=1000
scfalg=locfit1


lcorthr=tight
bpedo=0.99999
ccmaxit=400
usedisk=0
ccsdalg=dfdirect
ccsdthreads=4
ccsdmkl=thr
ptthreads=4

charge=0
core=3

basis=special
aug-cc-pVDZ
aug-cc-pVDZ
aug-cc-pVDZ
aug-cc-pVDZ
bse_CVDZ
bse_CVDZ
bse_CVDZ
bse_CVDZ
aug-cc-pVDZ
aug-cc-pVDZ
aug-cc-pVDZ
aug-cc-pVDZ
aug-cc-pVDZ
aug-cc-pVDZ
aug-cc-pVDZ
aug-cc-pVDZ
aug-cc-pVDZ
aug-cc-pVDZ
aug-cc-pVDZ
aug-cc-pVDZ

basis_sm=special
def2-SVP
def2-SVP
def2-SVP
def2-SVP
def2-SVP
def2-SVP
def2-SVP
def2-SVP
def2-SVP
def2-SVP
def2-SVP
def2-SVP
def2-SVP
def2-SVP
def2-SVP
def2-SVP
def2-SVP
def2-SVP
def2-SVP
def2-SVP

dfbasis_scf=special
def2-QZVPP-RI-JK
def2-QZVPP-RI-JK
def2-QZVPP-RI-JK
def2-QZVPP-RI-JK
def2-QZVPP-RI-JK
def2-QZVPP-RI-JK
def2-QZVPP-RI-JK
def2-QZVPP-RI-JK
def2-QZVPP-RI-JK
def2-QZVPP-RI-JK
def2-QZVPP-RI-JK
def2-QZVPP-RI-JK
def2-QZVPP-RI-JK
def2-QZVPP-RI-JK
def2-QZVPP-RI-JK
def2-QZVPP-RI-JK
def2-QZVPP-RI-JK
def2-QZVPP-RI-JK
def2-QZVPP-RI-JK
def2-QZVPP-RI-JK

dfbasis_cor=special
aug-cc-pVDZ-RI
aug-cc-pVDZ-RI
aug-cc-pVDZ-RI
aug-cc-pVDZ-RI
bse_CVDZ_mp2fit
bse_CVDZ_mp2fit
bse_CVDZ_mp2fit
bse_CVDZ_mp2fit
aug-cc-pVDZ-RI
aug-cc-pVDZ-RI
aug-cc-pVDZ-RI
aug-cc-pVDZ-RI
aug-cc-pVDZ-RI
aug-cc-pVDZ-RI
aug-cc-pVDZ-RI
aug-cc-pVDZ-RI
aug-cc-pVDZ-RI
aug-cc-pVDZ-RI
aug-cc-pVDZ-RI
aug-cc-pVDZ-RI

ecp=special
none
none
none
none
none
none
none
none
none
none
none
none
none
none
none
none
none
none
none
none

unit=angs
geom=xyz
20
C1 O2 Mg4 O13 ECP45
C     0.00000033711   -0.00006957891    1.40405664822
O     0.00000079691    1.15576487802    1.89863274052
O     0.00000036349   -1.15570036094    1.89860812390
O     0.00000000000    0.00000000000   -0.06544759026
Mg    0.00000024929    2.20484637813   -0.00000674162
Mg    0.00000024579   -2.20485539840    0.00000000000
Mg    2.21850991033   -0.00000742419   -0.22949933766
Mg   -2.21850893576   -0.00000746138   -0.22950133845
O    -2.12578919050    2.09760044175   -0.17895896245
O     2.12579000542    2.09760027931   -0.17895886247
O     2.12579015147   -2.09761398335   -0.17895997133
O    -2.12578937395   -2.09761419059   -0.17896022017
O     0.00000030369    2.09082416872   -2.28295908775
O     0.00000030838   -2.09083755174   -2.28295920375
O     2.09071006089   -0.00000660658   -2.30062412164
O    -2.09070935908   -0.00000661050   -2.30062491296
O     0.00000039642    4.22048592714   -0.13776483745
O     0.00000039642   -4.22050112868   -0.13776483745
O     4.22049405304   -0.00000660593   -0.18587517348
O    -4.22049300278   -0.00000660593   -0.18587517348

ghost=serialno
4-20

 
 
 Checking keyword combinations...
 
 Keywords:
 
 active=none
--------------------Output has been truncated-------------------------


--------------------Output has been truncated-------------------------


--------------------Output has been truncated-------------------------


--------------------Output has been truncated-------------------------


--------------------Output has been truncated-------------------------


--------------------Output has been truncated-------------------------


--------------------Output has been truncated-------------------------


--------------------Output has been truncated-------------------------


--------------------Output has been truncated-------------------------


--------------------Output has been truncated-------------------------


 
 Final local CC results:
 
 Minimum number of correlated electrons:        16       (100.0%)
 Maximum number of correlated electrons:        16       (100.0%)
 Average number of correlated electrons:        16.0     (100.0%)
 Minimum number of correlated orbitals:         57       ( 12.1%)
 Maximum number of correlated orbitals:         66       ( 14.0%)
 Average number of correlated orbitals:         63.2     ( 13.4%)
 
 CPU time for integral calculations [min]:                  1.648
 Wall time for integral calculations [min]:                 0.053
 
 CPU time for SCF calculation [min]:                        8.576
 Wall time for SCF calculation [min]:                       0.251
 
 CPU time for orbital localization [min]:                   0.117
 Wall time for orbital localization [min]:                  0.009
 
 CPU time for integral transformations [min]:              27.781
 Wall time for integral transformations [min]:              0.981
 
 Reference energy [au]:                                  -187.556779732409
 
 LMP2 correlation energy [au]:                             -0.550731520342
 Total LMP2 energy [au]:                                 -188.107511252751
 
 Total MP2 correction for dropped NAFs [au]:                0.000066175041
 Total MP2 correction [au]:                                -0.000200691406
 
 CPU time for CCSD calculations [min]:                      2.202
 Total CPU time for CCSD [min]:                            40.324
 Wall time for CCSD calculations [min]:                     0.067
 Total wall time for CCSD [min]:                            1.360
 
 CCSD correlation energy [au]:                             -0.537295056740
 Total CCSD energy [au]:                                 -188.094074789149
 CCSD correlation energy + 0.5 MP2 corrections [au]:       -0.537395402443
 Total LNO-CCSD energy with MP2 corrections [au]:        -188.094175134852
 
 CPU time for (T) corrections [min]:                        0.975
 Total CPU time for CCSD(T) [min]:                         41.300
 Wall time for (T) corrections [min]:                       0.032
 Total wall time for CCSD(T) [min]:                         1.392
 
 Total (T) correlation energy contribution [au]:           -0.029558532603
 Total (T) correlation energy+0.5 MP2 correction [au]:     -0.029658878306
 CCSD(T) correlation energy [au]:                          -0.566853589343
 Total CCSD(T) energy [au]:                              -188.123633321752
 CCSD(T) correlation energy + MP2 corrections [au]:        -0.567054280749
 Total LNO-CCSD(T) energy with MP2 corrections [au]:     -188.123834013158
 
 ======================================================================
 ======================================================================
 
 ************************ 2024-08-25 01:41:07 *************************
                      Normal termination of mrcc.
 **********************************************************************
