 **********************************************************************
                          MRCC program system
 **********************************************************************
 
                              Written by
     Mihaly Kallay, Peter R. Nagy, David Mester, Laszlo Gyevi-Nagy,
        Jozsef Csoka, P. Bernat Szabo, Zoltan Rolik, Gyula Samu,
     Jozsef Csontos, Bence Hegely, Adam Ganyecz, Istvan Ladjanszki,
       Lorant Szegedy, Bence Ladoczki, Klara Petrov, Mate Farkas,
                    Pal D. Mezei, and Reka A. Horvath
 
        Department of Physical Chemistry and Materials Science
            Budapest University of Technology and Economics
                  Budapest P.O.Box 91, H-1521 Hungary
 
                              www.mrcc.hu
 
                      Release date: March 18, 2022

 ************************ 2023-02-08 15:52:27 *************************
 Executing minp...

 Reading input from MINP...
 
 Input file:
 
calc=FNO-CCSD(T)
verbosity=3
mem=220GB
unit=angs
scfiguess=small
scfalg=locfit1
ccmaxit=400
ccsdalg=dfdirect
ccsdthreads=4
ccsdmkl=thr
ptthreads=4
lnoepsv=1e-5
naf_cor=1e-2
basis=aug-cc-pVQZ
basis_sm=def2-SVP
dfbasis_scf=def2-QZVPP-RI-JK
dfbasis_cor=aug-cc-pVQZ-RI
unit=angs
geom=xyz
24

C     8.91743909     9.38861166    16.94386881
H     8.77937038     9.17436022    18.01572156
H     9.32474419     7.57458841    16.20042911
H     9.96120462     9.68473591    16.75955150
H     8.26216376    10.20870566    16.63144535
O     8.58013534     8.23566087    16.14248498
C     5.39043169     6.77043676    16.96372580
H     5.62104886     6.61569915    18.02985674
H     7.19266907     7.20768543    16.20481162
H     5.07879877     7.81332482    16.80230521
H     4.57390209     6.11070185    16.65132737
O     6.53598138     6.45977854    16.14177089
C     8.00607278     3.27806493    16.96650180
H     8.16761995     3.51291001    18.03069694
H     7.56045335     5.07715886    16.20067817
H     6.96269365     2.96357801    16.81281908
H     8.66602896     2.46206947    16.65295800
O     8.30924475     4.42059882    16.13812694
C    11.50091996     5.85103456    16.93856975
H    11.28826038     5.99608128    18.00997076
H     9.68539973     5.44621463    16.19473390
H    11.79288236     4.80523239    16.75951410
H    12.32302124     6.50195744    16.62167972
O    10.34897249     6.18933226    16.13686330

--------------------Output has been truncated-------------------------


--------------------Output has been truncated-------------------------


--------------------Output has been truncated-------------------------


--------------------Output has been truncated-------------------------


--------------------Output has been truncated-------------------------


--------------------Output has been truncated-------------------------


--------------------Output has been truncated-------------------------


--------------------Output has been truncated-------------------------


--------------------Output has been truncated-------------------------


--------------------Output has been truncated-------------------------


 
 Reference energy [au]:                      -115.095022320547
 DF-MP2 singlet pair energy [au]:              -0.362557375787
 DF-MP2 triplet pair energy [au]:              -0.103547044406
 DF-SCS-MP2 correlation energy [au]:           -0.469584532413
 DF-SCS-MP2 energy [au]:                     -115.564606852960
 DF-SOS-MP2 correlation energy [au]:           -0.471324588523
 DF-SOS-MP2 energy [au]:                     -115.566346909070
 DF-MP2 correlation energy [au]:               -0.466104420193
 DF-MP2 energy [au]:                         -115.561126740740

 Results in FNO basis:
 
 
 Reference energy [au]:                      -115.095022320547
 DF-MP2 singlet pair energy [au]:              -0.358331295794
 DF-MP2 triplet pair energy [au]:              -0.103260897429
 DF-SCS-MP2 correlation energy [au]:           -0.464417854095
 DF-SCS-MP2 energy [au]:                     -115.559440174643
 DF-SOS-MP2 correlation energy [au]:           -0.465830684532
 DF-SOS-MP2 energy [au]:                     -115.560853005079
 DF-MP2 correlation energy [au]:               -0.461592193223
 DF-MP2 energy [au]:                         -115.556614513770

 Results in NAF basis:
 
 
 Reference energy [au]:                      -115.095022320547
 DF-MP2 singlet pair energy [au]:              -0.358309076732
 DF-MP2 triplet pair energy [au]:              -0.103269229051
 DF-SCS-MP2 correlation energy [au]:           -0.464393968429
 DF-SCS-MP2 energy [au]:                     -115.559416288976
 DF-SOS-MP2 correlation energy [au]:           -0.465801799752
 DF-SOS-MP2 energy [au]:                     -115.560824120299
 DF-MP2 correlation energy [au]:               -0.461578305783
 DF-MP2 energy [au]:                         -115.556600626330

 ************************ 2023-02-08 15:59:03 *************************
 Executing ccsd...

 Allocation of 220.0 Gbytes of memory...

 Direct DF-CCSD(T) calculation
 
 Convergence criterion:  1.0E-06
 
 Number of occupied/virtual/auxiliary orbitals:     7   157   479
    614.15 MB is the minimal memory requirement for (T)
    140.19 MB is the minimal memory requirement for CCSD
 
 Reference energy [au]:            -115.095022320547
 T1 contribution [au]:                0.000000000000
 Same spin MP2 energy [au]:          -0.103265060140
 Opposite spin MP2 energy [au]:      -0.358320180422
 MP2 correlation energy [au]:        -0.461585240562
 Total MP2 energy [au]:            -115.556607561109
 MP2 correction [au]:                -0.004519179631
 
 
 CPU time [min]:     0.388                   Wall time [min]:     0.064
 
 Starting CCSD iterations...
 
                     Residual norm          Energy
 Iteration  1        0.212339886224     -115.558975490577
 Iteration  2        0.050359490110     -115.569307663254
 Iteration  3        0.017313603465     -115.571360548520
 Iteration  4        0.004020649953     -115.571203237900
 Iteration  5        0.001329233175     -115.571238460402
 Iteration  6        0.000308903207     -115.571247902571
 Iteration  7        0.000109542460     -115.571244083523
 Iteration  8        0.000034929273     -115.571244278402
 Iteration  9        0.000011186889     -115.571244262640
 Iteration 10        0.000003463184     -115.571244179671
 
 CCSD iteration has converged in 10 steps.
     2493.38 MB memory was utilized by CCSD
 
 T1 diagnostic:      9.620E-03            D1 diagnostic:      2.105E-02
 
 T1 contribution [au]:                                  0.000000000000
 PPL energy contribution [au]:                          0.111769679536
 Scaled PPL energy contribution [au]:                   0.112874199906

 OS-PPL energy contribution [au]:                       0.095683794467
 Scaled OS-PPL energy contribution [au]:                0.096827288107
 SS-PPL energy contribution [au]:                       0.016085885068
 Scaled SS-PPL energy contribution [au]:                0.016128769258

 Opposite spin CCSD energy [au]:                       -0.383097339358
 Same spin CCSD energy [au]:                           -0.093133030349
 CCSD correlation energy [au]:                         -0.476230369707
 CCSD correlation energy + MP2 correction [au]:        -0.480749549338
 CCSD correlation energy + MP2 + PPL corr. [au]:       -0.479645028968
 Total CCSD energy [au]:                             -115.571252690254
 Total CCSD energy + MP2 correction [au]:            -115.575771869885
 Total CCSD energy + MP2 + PPL corr. [au]:           -115.574667349515
 
 CPU time [min]:     5.198                   Wall time [min]:     0.239
 
 Calculation of (T) correction...
 
 
      566.20 MB memory is utilized for (T)

 0%       25%       50%       75%       100%
 |---------|---------|---------|---------| 
 
 (T) correction [au]:                                    -0.017295099267
 (T*) correction [au]:                                   -0.017464428035
 (T+) correction [au]:                                   -0.017463320382
 CCSD(T) correlation energy [au]:                        -0.493525468974
 CCSD(T) correlation energy + MP2 correction [au]:       -0.498044648605
 CCSD(T+) correlation en. + MP2 + PPL corr. [au]:        -0.497108349350
 Total CCSD(T) energy [au]:                            -115.588547789521
 Total CCSD(T) energy + MP2 correction [au]:           -115.593066969152
 Total CCSD(T+) energy + MP2 + PPL corr. [au]:         -115.592130669897
 
 CPU time [min]:     6.388                   Wall time [min]:     0.285
 
 ************************ 2023-02-08 15:59:20 *************************
                      Normal termination of mrcc.
 **********************************************************************
