 **********************************************************************
                          MRCC program system
 **********************************************************************
 
                              Written by
     Mihaly Kallay, Peter R. Nagy, David Mester, Laszlo Gyevi-Nagy,
        Jozsef Csoka, P. Bernat Szabo, Zoltan Rolik, Gyula Samu,
     Jozsef Csontos, Bence Hegely, Adam Ganyecz, Istvan Ladjanszki,
       Lorant Szegedy, Bence Ladoczki, Klara Petrov, Mate Farkas,
                    Pal D. Mezei, and Reka A. Horvath
 
        Department of Physical Chemistry and Materials Science
            Budapest University of Technology and Economics
                  Budapest P.O.Box 91, H-1521 Hungary
 
                              www.mrcc.hu
 
                      Release date: March 18, 2022

 ************************ 2023-02-05 13:12:28 *************************
 Executing minp...

 Reading input from MINP...
 
 Input file:
 
calc=FNO-CCSD(T)
verbosity=3
mem=220GB
unit=angs
scfiguess=small
scfalg=locfit1
ccmaxit=400
ccsdalg=dfdirect
ccsdthreads=4
ccsdmkl=thr
ptthreads=4
lnoepsv=1e-5
naf_cor=1e-2
basis=aug-cc-pVQZ
basis_sm=def2-SVP
dfbasis_scf=def2-QZVPP-RI-JK
dfbasis_cor=aug-cc-pVQZ-RI
unit=angs
geom=xyz
16

C    34.41670262    34.07107264    10.41543014
C    33.11117461    33.45680459    10.91530835
H    34.24160149    35.00442132     9.86225048
H    34.94674030    33.36940783     9.75379242
H    35.10002891    34.30603621    11.24227357
H    32.42643037    33.26105434    10.07939442
H    32.59136835    34.12756100    11.61262818
H    33.28915165    32.50678735    11.43686767
C    34.41670262    50.95304195    10.41543014
C    33.11117461    50.33877390    10.91530835
H    34.24160149    51.88639063     9.86225048
H    34.94674030    50.25137714     9.75379242
H    35.10002891    51.18800552    11.24227357
H    32.42643037    50.14302365    10.07939442
H    32.59136835    51.00953031    11.61262818
H    33.28915165    49.38875666    11.43686767

--------------------Output has been truncated-------------------------


--------------------Output has been truncated-------------------------


--------------------Output has been truncated-------------------------


--------------------Output has been truncated-------------------------


--------------------Output has been truncated-------------------------


--------------------Output has been truncated-------------------------


--------------------Output has been truncated-------------------------


--------------------Output has been truncated-------------------------


--------------------Output has been truncated-------------------------


--------------------Output has been truncated-------------------------


 
 Reference energy [au]:                       -79.264437034626
 DF-MP2 singlet pair energy [au]:              -0.317722279932
 DF-MP2 triplet pair energy [au]:              -0.076906314630
 DF-SCS-MP2 correlation energy [au]:           -0.406902174129
 DF-SCS-MP2 energy [au]:                      -79.671339208755
 DF-SOS-MP2 correlation energy [au]:           -0.413038963912
 DF-SOS-MP2 energy [au]:                      -79.677475998538
 DF-MP2 correlation energy [au]:               -0.394628594562
 DF-MP2 energy [au]:                          -79.659065629189

 Results in FNO basis:
 
 
 Reference energy [au]:                       -79.264437034626
 DF-MP2 singlet pair energy [au]:              -0.312548719667
 DF-MP2 triplet pair energy [au]:              -0.076620433605
 DF-SCS-MP2 correlation energy [au]:           -0.400598608135
 DF-SCS-MP2 energy [au]:                      -79.665035642762
 DF-SOS-MP2 correlation energy [au]:           -0.406313335567
 DF-SOS-MP2 energy [au]:                      -79.670750370193
 DF-MP2 correlation energy [au]:               -0.389169153272
 DF-MP2 energy [au]:                          -79.653606187898

 Results in NAF basis:
 
 
 Reference energy [au]:                       -79.264437034626
 DF-MP2 singlet pair energy [au]:              -0.312527757476
 DF-MP2 triplet pair energy [au]:              -0.076628440088
 DF-SCS-MP2 correlation energy [au]:           -0.400576122334
 DF-SCS-MP2 energy [au]:                      -79.665013156960
 DF-SOS-MP2 correlation energy [au]:           -0.406286084719
 DF-SOS-MP2 energy [au]:                      -79.670723119345
 DF-MP2 correlation energy [au]:               -0.389156197565
 DF-MP2 energy [au]:                          -79.653593232191

 ************************ 2023-02-05 13:13:52 *************************
 Executing ccsd...

 Allocation of 220.0 Gbytes of memory...

 Direct DF-CCSD(T) calculation
 
 Convergence criterion:  1.0E-06
 
 Number of occupied/virtual/auxiliary orbitals:     7   175   551
    851.32 MB is the minimal memory requirement for (T)
    190.43 MB is the minimal memory requirement for CCSD
 
 Reference energy [au]:             -79.264437034626
 T1 contribution [au]:                0.000000000000
 Same spin MP2 energy [au]:          -0.076624434283
 Opposite spin MP2 energy [au]:      -0.312538233864
 MP2 correlation energy [au]:        -0.389162668148
 Total MP2 energy [au]:             -79.653599702774
 MP2 correction [au]:                -0.005465926415
 
 
 CPU time [min]:     0.402                   Wall time [min]:     0.050
 
 Starting CCSD iterations...
 
                     Residual norm          Energy
 Iteration  1        0.179604438818      -79.671512632540
 Iteration  2        0.044511306627      -79.681094794836
 Iteration  3        0.013089806731      -79.682230518932
 Iteration  4        0.002650289474      -79.682237741629
 Iteration  5        0.000560968248      -79.682243606879
 Iteration  6        0.000156931259      -79.682245657731
 Iteration  7        0.000037096192      -79.682245432677
 Iteration  8        0.000009998707      -79.682245796565
 
 CCSD iteration has converged in  8 steps.
     3804.92 MB memory was utilized by CCSD
 
 T1 diagnostic:      8.231E-03            D1 diagnostic:      1.428E-02
 
 T1 contribution [au]:                                  0.000000000000
 PPL energy contribution [au]:                          0.108935351666
 Scaled PPL energy contribution [au]:                   0.110475072390

 OS-PPL energy contribution [au]:                       0.095542146689
 Scaled OS-PPL energy contribution [au]:                0.097137049443
 SS-PPL energy contribution [au]:                       0.013393204977
 Scaled SS-PPL energy contribution [au]:                0.013441281994

 Opposite spin CCSD energy [au]:                       -0.345140081826
 Same spin CCSD energy [au]:                           -0.072676432918
 CCSD correlation energy [au]:                         -0.417816514744
 CCSD correlation energy + MP2 correction [au]:        -0.423282441159
 CCSD correlation energy + MP2 + PPL corr. [au]:       -0.421742720435
 Total CCSD energy [au]:                              -79.682253549370
 Total CCSD energy + MP2 correction [au]:             -79.687719475785
 Total CCSD energy + MP2 + PPL corr. [au]:            -79.686179755061
 
 CPU time [min]:     6.407                   Wall time [min]:     0.235
 
 Calculation of (T) correction...
 
 
      783.34 MB memory is utilized for (T)

 0%       25%       50%       75%       100%
 |---------|---------|---------|---------| 
 
 (T) correction [au]:                                    -0.014762649851
 (T*) correction [au]:                                   -0.014969996455
 (T+) correction [au]:                                   -0.014966465023
 CCSD(T) correlation energy [au]:                        -0.432579164595
 CCSD(T) correlation energy + MP2 correction [au]:       -0.438045091010
 CCSD(T+) correlation en. + MP2 + PPL corr. [au]:        -0.436709185458
 Total CCSD(T) energy [au]:                             -79.697016199221
 Total CCSD(T) energy + MP2 correction [au]:            -79.702482125636
 Total CCSD(T+) energy + MP2 + PPL corr. [au]:          -79.701146220085
 
 CPU time [min]:     8.126                   Wall time [min]:     0.292
 
 ************************ 2023-02-05 13:14:10 *************************
                      Normal termination of mrcc.
 **********************************************************************
