 vasp.6.3.0 20Jan22 (build Apr  1 2022 16:44:48) complex                         
 executed on        HPECrayEX_GCC date 2022.11.13  00:41:39
 running  512 mpi-ranks, with    1 threads/rank
 distrk:  each k-point on  512 cores,    1 groups
 distr:  one band on NCORE=   8 cores,   64 groups


--------------------------------------------------------------------------------------------------------


 INCAR:
   SYSTEM = MgO-rocksalt
   ISMEAR = 0
   SIGMA = 0.05
   EDIFF = 1E-6
   ALGO = ALL
   ISTART = 0
   IBRION = -1
   NSW = 0
   ISYM = 0
   DIPOL = 0.5 0.5 0.5
   IDIPOL = 3
   LDIPOL = .TRUE.
   GGA = MK
   LUSE_VDW = .TRUE.
   PARAM1 = 0.1234
   PARAM2 = 0.711357
   ZAB_VDW = -1.8867
   AGGAC = 0.0
   ENCUT = 600
   PREC = Accurate
   LASPH = .TRUE.
   LREAL = .FALSE.
   ISPIN = 2
   MAGMOM = 1.0 0.0 0.0 0.0 0.0 0.0 0.0 0.0 0.0 0.0 0.0 0.0 0.0 0.0 0.0 0.0 0.0 0.0 0.0 0.0 0.0 0.0 0.0 0.0 0.0 0.0 0.0 0.0 0.0 0.0 0.0 0.0 0.0 0.0 0.0 0.0 0.0 0.0 0.0 0.0 0.0 0.0 0.0 0.0 0.0 0.0 0.0 0.0 0.0 0.0 0.0 0.0 0.0 0.0 0.0 0.0 0.0 0.0 0.0 0.0 0.0 0.0 0.0 0.0 0.0 0.0
   NELM = 200
   NELMIN = 8
   NCORE = 8
   KPAR = 1
   LWAVE = .FALSE.
   LCHARG = .FALSE.

 POTCAR:    PAW_PBE N 08Apr2002                   
 POTCAR:    PAW_PBE O 08Apr2002                   
 POTCAR:    PAW_PBE Mg_pv 13Apr2007               
 POTCAR:    PAW_PBE O 08Apr2002                   
 -----------------------------------------------------------------------------
|                                                                             |
|               ----> ADVICE to this user running VASP <----                  |
|                                                                             |
|     You have switched on vdW-DFT.                                           |
|     This routine was written and supplied by Jiri Klimes. We recommend      |
|     that you carefully read and cite the following publications:            |
|       J. Klimes, D.R. Bowler, A. Michelides                                 |
|          J. Phys.: Cond Matt. 22 022201 (2010)                              |
|       J. Klimes, D.R. Bowler, A. Michelides                                 |
|          Phys. Rev. B. 83, 195131 (2011)                                    |
|     and references therein.                                                 |
|                                                                             |
 -----------------------------------------------------------------------------

 POTCAR:    PAW_PBE N 08Apr2002                   
   SHA256 =  e053789ff3a61a86a1b75d8a110fcc91f86041011e7b0817c7c99e4e8a6349d7 N/POTCAR              
   COPYR  = (c) Copyright 08Apr2002 Georg Kresse                                                    
   COPYR  = This file is part of the software VASP. Any use, copying, and all other rights are regul
   COPYR  = If you do not have a valid VASP license, you may not use, copy or distribute this file. 
   VRHFIN =N: s2p3                                                                                  
   LEXCH  = PE                                                                                      
   EATOM  =   264.5486 eV,   19.4438 Ry                                                             
                                                                                                    
   TITEL  = PAW_PBE N 08Apr2002                                                                     
   LULTRA =        F    use ultrasoft PP ?                                                          
   IUNSCR =        1    unscreen: 0-lin 1-nonlin 2-no                                               
   RPACOR =    1.200    partial core radius                                                         
   POMASS =   14.001; ZVAL   =    5.000    mass and valenz                                          
   RCORE  =    1.500    outmost cutoff radius                                                       
   RWIGS  =    1.400; RWIGS  =    0.741    wigner-seitz radius (au A)                               
   ENMAX  =  400.000; ENMIN  =  300.000 eV                                                          
   ICORE  =        2    local potential                                                             
   LCOR   =        T    correct aug charges                                                         
   LPAW   =        T    paw PP                                                                      
   EAUG   =  627.112                                                                                
   DEXC   =    0.000                                                                                
   RMAX   =    1.529    core radius for proj-oper                                                   
   RAUG   =    1.300    factor for augmentation sphere                                              
   RDEP   =    1.514    radius for radial grids                                                     
   RDEPT  =    1.338    core radius for aug-charge                                                  
                                                                                                    
   Atomic configuration                                                                             
    4 entries                                                                                       
     n  l   j            E        occ.                                                              
     1  0  0.50      -384.7179   2.0000                                                             
     2  0  0.50       -18.5828   2.0000                                                             
     2  1  0.50        -7.0898   3.0000                                                             
     3  2  1.50        -6.8029   0.0000                                                             
   Description                                                                                      
     l       E           TYP  RCUT    TYP  RCUT                                                     
     0    -18.5828119     23  1.200                                                                 
     0    -13.5018863     23  1.200                                                                 
     1     -7.0897853     23  1.500                                                                 
     1      9.5240782     23  1.500                                                                 
     2     -6.8029130      7  1.500                                                                 
  local pseudopotential read in
  partial core-charges read in
  partial kinetic energy density read in
  atomic valenz-charges read in
  non local Contribution for L=           0  read in
    real space projection operators read in
  non local Contribution for L=           0  read in
    real space projection operators read in
  non local Contribution for L=           1  read in
    real space projection operators read in
  non local Contribution for L=           1  read in
    real space projection operators read in
    PAW grid and wavefunctions read in

   number of l-projection  operators is LMAX  =           4
   number of lm-projection operators is LMMAX =           8

 POTCAR:    PAW_PBE O 08Apr2002                   
   SHA256 =  818f92134a0a090dccd8ba1447fa70422a3b330e708bb4f08108d8ae51209ddf O/POTCAR              
   COPYR  = (c) Copyright 08Apr2002 Georg Kresse                                                    
   COPYR  = This file is part of the software VASP. Any use, copying, and all other rights are regul
   COPYR  = If you do not have a valid VASP license, you may not use, copy or distribute this file. 
   VRHFIN =O: s2p4                                                                                  
   LEXCH  = PE                                                                                      
   EATOM  =   432.3788 eV,   31.7789 Ry                                                             
                                                                                                    
   TITEL  = PAW_PBE O 08Apr2002                                                                     
   LULTRA =        F    use ultrasoft PP ?                                                          
   IUNSCR =        1    unscreen: 0-lin 1-nonlin 2-no                                               
   RPACOR =    1.200    partial core radius                                                         
   POMASS =   16.000; ZVAL   =    6.000    mass and valenz                                          
   RCORE  =    1.520    outmost cutoff radius                                                       
   RWIGS  =    1.550; RWIGS  =    0.820    wigner-seitz radius (au A)                               
   ENMAX  =  400.000; ENMIN  =  300.000 eV                                                          
   ICORE  =        2    local potential                                                             
   LCOR   =        T    correct aug charges                                                         
   LPAW   =        T    paw PP                                                                      
   EAUG   =  605.392                                                                                
   DEXC   =    0.000                                                                                
   RMAX   =    1.553    core radius for proj-oper                                                   
   RAUG   =    1.300    factor for augmentation sphere                                              
   RDEP   =    1.550    radius for radial grids                                                     
   RDEPT  =    1.329    core radius for aug-charge                                                  
                                                                                                    
   Atomic configuration                                                                             
    4 entries                                                                                       
     n  l   j            E        occ.                                                              
     1  0  0.50      -514.6923   2.0000                                                             
     2  0  0.50       -23.9615   2.0000                                                             
     2  1  0.50        -9.0305   4.0000                                                             
     3  2  1.50        -9.5241   0.0000                                                             
   Description                                                                                      
     l       E           TYP  RCUT    TYP  RCUT                                                     
     0    -23.9615318     23  1.200                                                                 
     0     -9.5240782     23  1.200                                                                 
     1     -9.0304911     23  1.520                                                                 
     1      8.1634956     23  1.520                                                                 
     2     -9.5240782      7  1.500                                                                 
  local pseudopotential read in
  partial core-charges read in
  partial kinetic energy density read in
  kinetic energy density of atom read in
  atomic valenz-charges read in
  non local Contribution for L=           0  read in
    real space projection operators read in
  non local Contribution for L=           0  read in
    real space projection operators read in
  non local Contribution for L=           1  read in
    real space projection operators read in
  non local Contribution for L=           1  read in
    real space projection operators read in
    PAW grid and wavefunctions read in

   number of l-projection  operators is LMAX  =           4
   number of lm-projection operators is LMMAX =           8

 POTCAR:    PAW_PBE Mg_pv 13Apr2007               
   SHA256 =  f474ac0dd33840b9ae76c01d57fea79fdf77cdfbb07d5ade72c65f83c709b62b Mg_pv/POTCAR          
   COPYR  = (c) Copyright 13Apr2007 Georg Kresse                                                    
   COPYR  = This file is part of the software VASP. Any use, copying, and all other rights are regul
   COPYR  = If you do not have a valid VASP license, you may not use, copy or distribute this file. 
   VRHFIN =Mg: p6s2                                                                                 
   LEXCH  = PE                                                                                      
   EATOM  =  1056.7344 eV,   77.6678 Ry                                                             
                                                                                                    
   TITEL  = PAW_PBE Mg_pv 13Apr2007                                                                 
   LULTRA =        F    use ultrasoft PP ?                                                          
   IUNSCR =        1    unscreen: 0-lin 1-nonlin 2-no                                               
   RPACOR =    1.500    partial core radius                                                         
   POMASS =   24.305; ZVAL   =    8.000    mass and valenz                                          
   RCORE  =    2.000    outmost cutoff radius                                                       
   RWIGS  =    2.000; RWIGS  =    1.058    wigner-seitz radius (au A)                               
   ENMAX  =  403.929; ENMIN  =  302.947 eV                                                          
   RCLOC  =    1.506    cutoff for local pot                                                        
   LCOR   =        T    correct aug charges                                                         
   LPAW   =        T    paw PP                                                                      
   EAUG   =  758.780                                                                                
   DEXC   =    0.000                                                                                
   RMAX   =    2.045    core radius for proj-oper                                                   
   RAUG   =    1.300    factor for augmentation sphere                                              
   RDEP   =    2.025    radius for radial grids                                                     
   RDEPT  =    1.557    core radius for aug-charge                                                  
                                                                                                    
   Atomic configuration                                                                             
    5 entries                                                                                       
     n  l   j            E        occ.                                                              
     1  0  0.50     -1259.6230   2.0000                                                             
     2  0  0.50       -79.8442   2.0000                                                             
     2  1  1.50       -46.6121   6.0000                                                             
     3  0  0.50        -4.7055   2.0000                                                             
     3  2  1.50        -1.3606   0.0000                                                             
   Description                                                                                      
     l       E           TYP  RCUT    TYP  RCUT                                                     
     1    -46.6121073     23  1.600                                                                 
     1      2.7211652     23  1.600                                                                 
     0     -4.7054661     23  2.000                                                                 
     0     61.2262170     23  2.000                                                                 
     2     -1.3605826     23  2.000                                                                 
  local pseudopotential read in
  partial core-charges read in
  partial kinetic energy density read in
  atomic valenz-charges read in
  non local Contribution for L=           1  read in
    real space projection operators read in
  non local Contribution for L=           1  read in
    real space projection operators read in
  non local Contribution for L=           0  read in
    real space projection operators read in
  non local Contribution for L=           0  read in
    real space projection operators read in
  non local Contribution for L=           2  read in
    real space projection operators read in
    PAW grid and wavefunctions read in

   number of l-projection  operators is LMAX  =           5
   number of lm-projection operators is LMMAX =          13

 POTCAR:    PAW_PBE O 08Apr2002                   
   SHA256 =  818f92134a0a090dccd8ba1447fa70422a3b330e708bb4f08108d8ae51209ddf O/POTCAR              
   COPYR  = (c) Copyright 08Apr2002 Georg Kresse                                                    
   COPYR  = This file is part of the software VASP. Any use, copying, and all other rights are regul
   COPYR  = If you do not have a valid VASP license, you may not use, copy or distribute this file. 
   VRHFIN =O: s2p4                                                                                  
   LEXCH  = PE                                                                                      
   EATOM  =   432.3788 eV,   31.7789 Ry                                                             
                                                                                                    
   TITEL  = PAW_PBE O 08Apr2002                                                                     
   LULTRA =        F    use ultrasoft PP ?                                                          
   IUNSCR =        1    unscreen: 0-lin 1-nonlin 2-no                                               
   RPACOR =    1.200    partial core radius                                                         
   POMASS =   16.000; ZVAL   =    6.000    mass and valenz                                          
   RCORE  =    1.520    outmost cutoff radius                                                       
   RWIGS  =    1.550; RWIGS  =    0.820    wigner-seitz radius (au A)                               
   ENMAX  =  400.000; ENMIN  =  300.000 eV                                                          
   ICORE  =        2    local potential                                                             
   LCOR   =        T    correct aug charges                                                         
   LPAW   =        T    paw PP                                                                      
   EAUG   =  605.392                                                                                
   DEXC   =    0.000                                                                                
   RMAX   =    1.553    core radius for proj-oper                                                   
   RAUG   =    1.300    factor for augmentation sphere                                              
   RDEP   =    1.550    radius for radial grids                                                     
   RDEPT  =    1.329    core radius for aug-charge                                                  
                                                                                                    
   Atomic configuration                                                                             
    4 entries                                                                                       
     n  l   j            E        occ.                                                              
     1  0  0.50      -514.6923   2.0000                                                             
     2  0  0.50       -23.9615   2.0000                                                             
     2  1  0.50        -9.0305   4.0000                                                             
     3  2  1.50        -9.5241   0.0000                                                             
   Description                                                                                      
     l       E           TYP  RCUT    TYP  RCUT                                                     
     0    -23.9615318     23  1.200                                                                 
     0     -9.5240782     23  1.200                                                                 
     1     -9.0304911     23  1.520                                                                 
     1      8.1634956     23  1.520                                                                 
     2     -9.5240782      7  1.500                                                                 
  local pseudopotential read in
  partial core-charges read in
  partial kinetic energy density read in
  kinetic energy density of atom read in
  atomic valenz-charges read in
  non local Contribution for L=           0  read in
    real space projection operators read in
  non local Contribution for L=           0  read in
    real space projection operators read in
  non local Contribution for L=           1  read in
    real space projection operators read in
  non local Contribution for L=           1  read in
    real space projection operators read in
    PAW grid and wavefunctions read in

   number of l-projection  operators is LMAX  =           4
   number of lm-projection operators is LMMAX =           8

 -----------------------------------------------------------------------------
|                                                                             |
|               ----> ADVICE to this user running VASP <----                  |
|                                                                             |
|     You have a (more or less) 'large supercell' and for larger cells it     |
|     might be more efficient to use real-space projection operators.         |
|     Therefore, try LREAL= Auto in the INCAR file.                           |
|     Mind: For very accurate calculation, you might also keep the            |
|     reciprocal projection scheme (i.e. LREAL=.FALSE.).                      |
|                                                                             |
 -----------------------------------------------------------------------------

 -----------------------------------------------------------------------------
|                                                                             |
|               ----> ADVICE to this user running VASP <----                  |
|                                                                             |
|     You enforced a specific xc type in the INCAR file but a different       |
|     type was found in the POTCAR file.                                      |
|     I HOPE YOU KNOW WHAT YOU ARE DOING!                                     |
|                                                                             |
 -----------------------------------------------------------------------------

  PAW_PBE N 08Apr2002                   :
 energy of atom  1       EATOM= -264.5486
 kinetic energy error for atom=    0.0103 (will be added to EATOM!!)
  PAW_PBE O 08Apr2002                   :
 energy of atom  2       EATOM= -432.3788
 kinetic energy error for atom=    0.0168 (will be added to EATOM!!)
  PAW_PBE Mg_pv 13Apr2007               :
 energy of atom  3       EATOM=-1056.7344
 kinetic energy error for atom=    0.0221 (will be added to EATOM!!)
  PAW_PBE O 08Apr2002                   :
 energy of atom  4       EATOM= -432.3788
 kinetic energy error for atom=    0.0168 (will be added to EATOM!!)


 POSCAR:  N  O Mg  O
  positions in direct lattice
  No initial velocities read in
 exchange correlation table for  LEXCH =       43
   RHO(1)=    0.500       N(1)  =     2000
   RHO(2)=  100.500       N(2)  =     4000



--------------------------------------------------------------------------------------------------------


 ion  position               nearest neighbor table
   1  0.500  0.500  0.760-   2 1.18
   2  0.500  0.500  0.816-   1 1.18
   3  0.000  0.750  0.352-  35 2.11  37 2.11  38 2.11  45 2.11  54 2.11
   4  0.250  0.000  0.352-  36 2.11  37 2.11  38 2.11  46 2.11  53 2.11
   5  0.000  0.000  0.451-  37 2.11  36 2.11  35 2.11  43 2.11  52 2.11  41 2.12
   6  0.250  0.750  0.451-  38 2.11  36 2.11  35 2.11  44 2.11  51 2.11  42 2.12
   7  1.000  0.750  0.550-  58 2.11  49 2.11  42 2.11  41 2.11  35 2.12  39 2.15
   8  0.250  0.000  0.550-  50 2.11  57 2.11  42 2.11  41 2.11  36 2.12  40 2.15
   9  0.000  0.000  0.649-  47 2.11  39 2.11  40 2.11  56 2.11  41 2.11
  10  0.250  0.750  0.648-  42 2.11  39 2.11  40 2.11  48 2.11  55 2.11
  11  0.000  0.250  0.352-  43 2.11  37 2.11  45 2.11  46 2.11  62 2.11
  12  0.250  0.500  0.352-  44 2.11  38 2.11  45 2.11  46 2.11  61 2.11
  13  0.000  0.500  0.451-  45 2.11  43 2.11  44 2.11  35 2.11  60 2.11  49 2.12
  14  0.250  0.250  0.451-  46 2.11  43 2.11  44 2.11  36 2.11  59 2.11  50 2.12
  15  0.000  0.250  0.550-  50 2.11  49 2.11  66 2.11  41 2.11  43 2.12  47 2.15
  16  0.250  0.500  0.550-  65 2.11  50 2.11  42 2.11  49 2.11  44 2.12  48 2.14
  17  0.000  0.500  0.649-  48 2.10  64 2.10  49 2.11  47 2.11  39 2.11
  18  0.250  0.250  0.649-  50 2.11  47 2.11  40 2.11  48 2.11  63 2.11
  19  0.500  0.750  0.352-  51 2.11  38 2.11  53 2.11  54 2.11  61 2.11
  20  0.750  0.000  0.352-  52 2.11  37 2.11  53 2.11  54 2.11  62 2.11
  21  0.500  0.000  0.451-  53 2.11  51 2.11  52 2.11  36 2.11  59 2.11  57 2.12
  22  0.750  0.750  0.451-  54 2.11  51 2.11  52 2.11  35 2.11  60 2.11  58 2.12
  23  0.500  0.750  0.550-  65 2.11  58 2.11  42 2.11  57 2.11  51 2.12  55 2.14
  24  0.750  1.000  0.550-  58 2.11  57 2.11  66 2.11  41 2.11  52 2.12  56 2.15
  25  0.500  0.000  0.649-  63 2.10  55 2.10  57 2.11  40 2.11  56 2.11
  26  0.750  0.750  0.649-  58 2.11  39 2.11  56 2.11  64 2.11  55 2.11
  27  0.500  0.250  0.352-  59 2.11  53 2.11  46 2.11  61 2.11  62 2.11
  28  0.750  0.500  0.352-  60 2.11  54 2.11  45 2.11  61 2.11  62 2.11
  29  0.500  0.500  0.451-  61 2.11  51 2.11  59 2.11  60 2.11  44 2.11  65 2.12
  30  0.750  0.250  0.451-  62 2.11  52 2.11  59 2.11  60 2.11  43 2.11  66 2.12
  31  0.500  0.250  0.550-  65 2.11  50 2.11  66 2.11  57 2.11  59 2.12  63 2.14
  32  0.750  0.500  0.550-  65 2.11  58 2.11  66 2.11  49 2.11  60 2.12  64 2.14
  33  0.500  0.500  0.650-  63 2.12  55 2.12  48 2.12  64 2.12  65 2.14
  34  0.750  0.250  0.648-  66 2.11  47 2.11  56 2.11  64 2.11  63 2.11
  35  0.000  0.750  0.451-   3 2.11   5 2.11   6 2.11  13 2.11  22 2.11   7 2.12
  36  0.250  0.000  0.451-   4 2.11   5 2.11   6 2.11  14 2.11  21 2.11   8 2.12
  37  0.000  0.000  0.352-   5 2.11   4 2.11   3 2.11  11 2.11  20 2.11
  38  0.250  0.750  0.352-   6 2.11   4 2.11   3 2.11  12 2.11  19 2.11
  39  1.000  0.750  0.651-  10 2.11   9 2.11  26 2.11  17 2.11   7 2.15
  40  0.250  0.000  0.651-  10 2.11   9 2.11  18 2.11  25 2.11   8 2.15
  41  0.000  0.000  0.550-   9 2.11  15 2.11   7 2.11   8 2.11  24 2.11   5 2.12
  42  0.250  0.750  0.550-  10 2.11   8 2.11   7 2.11  23 2.11  16 2.11   6 2.12
  43  0.000  0.250  0.451-  11 2.11   5 2.11  13 2.11  14 2.11  30 2.11  15 2.12
  44  0.250  0.500  0.451-  12 2.11   6 2.11  13 2.11  14 2.11  29 2.11  16 2.12
  45  0.000  0.500  0.352-  13 2.11  11 2.11  12 2.11   3 2.11  28 2.11
  46  0.250  0.250  0.352-  14 2.11  11 2.11  12 2.11   4 2.11  27 2.11
  47  0.000  0.250  0.651-  34 2.11   9 2.11  18 2.11  17 2.11  15 2.15
  48  0.249  0.500  0.651-  17 2.10  10 2.11  18 2.11  33 2.12  16 2.14
  49  0.000  0.500  0.550-  17 2.11  15 2.11   7 2.11  16 2.11  32 2.11  13 2.12
  50  0.250  0.250  0.550-  18 2.11   8 2.11  15 2.11  31 2.11  16 2.11  14 2.12
  51  0.500  0.750  0.451-  19 2.11   6 2.11  21 2.11  22 2.11  29 2.11  23 2.12
  52  0.750  0.000  0.451-  20 2.11   5 2.11  21 2.11  22 2.11  30 2.11  24 2.12
  53  0.500  0.000  0.352-  21 2.11  19 2.11  20 2.11   4 2.11  27 2.11
  54  0.750  0.750  0.352-  22 2.11  19 2.11  20 2.11   3 2.11  28 2.11
  55  0.500  0.751  0.651-  25 2.10  10 2.11  26 2.11  33 2.12  23 2.14
  56  0.750  1.000  0.651-  34 2.11   9 2.11  26 2.11  25 2.11  24 2.15
  57  0.500  0.000  0.550-  25 2.11   8 2.11  24 2.11  31 2.11  23 2.11  21 2.12
  58  0.750  0.750  0.550-  26 2.11  24 2.11   7 2.11  23 2.11  32 2.11  22 2.12
  59  0.500  0.250  0.451-  27 2.11  21 2.11  14 2.11  29 2.11  30 2.11  31 2.12
  60  0.750  0.500  0.451-  28 2.11  22 2.11  13 2.11  29 2.11  30 2.11  32 2.12
  61  0.500  0.500  0.352-  29 2.11  19 2.11  27 2.11  28 2.11  12 2.11
  62  0.750  0.250  0.352-  30 2.11  20 2.11  27 2.11  28 2.11  11 2.11
  63  0.500  0.249  0.651-  25 2.10  34 2.11  18 2.11  33 2.12  31 2.14
  64  0.751  0.500  0.651-  17 2.10  34 2.11  26 2.11  33 2.12  32 2.14
  65  0.500  0.500  0.550-  31 2.11  23 2.11  16 2.11  32 2.11  29 2.12  33 2.14
  66  0.750  0.250  0.550-  34 2.11  24 2.11  15 2.11  31 2.11  32 2.11  30 2.12


IMPORTANT INFORMATION: All symmetrisations will be switched off!
NOSYMM: (Re-)initialisation of all symmetry stuff for point group C_1.


----------------------------------------------------------------------------------------

                                     Primitive cell                                     

  volume of cell :    1519.8199

  direct lattice vectors                    reciprocal lattice vectors
     8.440984654  0.000000000  0.000000000     0.118469591  0.000000000  0.000000000
     0.000000000  8.440984654  0.000000000     0.000000000  0.118469591  0.000000000
     0.000000000  0.000000000 21.330738491     0.000000000  0.000000000  0.046880702

  length of vectors
     8.440984654  8.440984654 21.330738491     0.118469591  0.118469591  0.046880702

  position of ions in fractional coordinates (direct lattice)
     0.499999943  0.499999960  0.760462606
     0.500000000  0.500000045  0.815589443
     0.000000000  0.750000000  0.351605267
     0.250000000  0.000000000  0.351605267
     0.000000000  0.000000000  0.450535089
     0.250000000  0.750000000  0.450535089
     0.999869420  0.749968659  0.550055605
     0.250031397  0.000130579  0.550055771
     0.000000004  0.000000002  0.648688975
     0.249696259  0.750302794  0.648459147
     0.000000000  0.250000000  0.351605267
     0.250000000  0.500000000  0.351605267
     0.000000000  0.500000000  0.450535089
     0.250000000  0.250000000  0.450535089
     0.000130579  0.250031338  0.550055600
     0.250383007  0.500065194  0.550066471
     0.000000006  0.499999997  0.648591030
     0.250110168  0.250111108  0.648735081
     0.500000000  0.750000000  0.351605267
     0.750000000  0.000000000  0.351605267
     0.500000000  0.000000000  0.450535089
     0.750000000  0.750000000  0.450535089
     0.499934800  0.749616776  0.550066468
     0.749968605  0.999869419  0.550055775
     0.499999996  0.000000003  0.648591739
     0.749889836  0.749888892  0.648735093
     0.500000000  0.250000000  0.351605267
     0.750000000  0.500000000  0.351605267
     0.500000000  0.500000000  0.450535089
     0.750000000  0.250000000  0.450535089
     0.500065202  0.250383222  0.550066454
     0.749616994  0.499934804  0.550066485
     0.499999994  0.499999991  0.650449680
     0.750303737  0.249697198  0.648459147
     0.000000000  0.750000000  0.450535089
     0.250000000  0.000000000  0.450535089
     0.000000000  0.000000000  0.351605267
     0.250000000  0.750000000  0.351605267
     0.999868283  0.750109674  0.650841088
     0.249890597  0.000131723  0.650841325
     0.000000004  0.000000002  0.549757968
     0.249886272  0.750114279  0.549749567
     0.000000000  0.250000000  0.450535089
     0.250000000  0.500000000  0.450535089
     0.000000000  0.500000000  0.351605267
     0.250000000  0.250000000  0.351605267
     0.000131720  0.249890321  0.650841086
     0.249078740  0.500381635  0.650618737
     0.000000006  0.499999997  0.549739280
     0.250070002  0.250069445  0.549829634
     0.500000000  0.750000000  0.450535089
     0.750000000  0.000000000  0.450535089
     0.500000000  0.000000000  0.351605267
     0.750000000  0.750000000  0.351605267
     0.499618329  0.750920169  0.650620212
     0.750109402  0.999868276  0.650841326
     0.499999997  0.000000006  0.549739836
     0.749930004  0.749930555  0.549829642
     0.500000000  0.250000000  0.450535089
     0.750000000  0.500000000  0.450535089
     0.500000000  0.500000000  0.351605267
     0.750000000  0.250000000  0.351605267
     0.500381666  0.249079826  0.650620227
     0.750921257  0.499618358  0.650618722
     0.499999994  0.499999993  0.550097845
     0.750113726  0.249885717  0.549749567

  ion indices of the primitive-cell ions
   primitive index   ion index
                 1           1
                 2           2
                 3           3
                 4           4
                 5           5
                 6           6
                 7           7
                 8           8
                 9           9
                10          10
                11          11
                12          12
                13          13
                14          14
                15          15
                16          16
                17          17
                18          18
                19          19
                20          20
                21          21
                22          22
                23          23
                24          24
                25          25
                26          26
                27          27
                28          28
                29          29
                30          30
                31          31
                32          32
                33          33
                34          34
                35          35
                36          36
                37          37
                38          38
                39          39
                40          40
                41          41
                42          42
                43          43
                44          44
                45          45
                46          46
                47          47
                48          48
                49          49
                50          50
                51          51
                52          52
                53          53
                54          54
                55          55
                56          56
                57          57
                58          58
                59          59
                60          60
                61          61
                62          62
                63          63
                64          64
                65          65
                66          66

----------------------------------------------------------------------------------------



 KPOINTS: pymatgen v2020.8.13 with grid density = 

Automatic generation of k-mesh.
 Grid dimensions read from file:
 generate k-points for:    2    2    1

 Generating k-lattice:

  Cartesian coordinates                     Fractional coordinates (reciprocal lattice)
     0.059234796  0.000000000  0.000000000     0.500000000  0.000000000  0.000000000
     0.000000000  0.059234796  0.000000000     0.000000000  0.500000000  0.000000000
     0.000000000  0.000000000  0.046880702     0.000000000  0.000000000  1.000000000

  Length of vectors
     0.059234796  0.059234796  0.046880702

  Shift w.r.t. Gamma in fractional coordinates (k-lattice)
     0.000000000  0.000000000  0.000000000

 
 Subroutine IBZKPT returns following result:
 ===========================================
 
 Found      4 irreducible k-points:
 
 Following reciprocal coordinates:
            Coordinates               Weight
  0.000000  0.000000  0.000000      1.000000
  0.500000  0.000000  0.000000      1.000000
  0.000000  0.500000  0.000000      1.000000
  0.500000  0.500000  0.000000      1.000000
 
 Following cartesian coordinates:
            Coordinates               Weight
  0.000000  0.000000  0.000000      1.000000
  0.059235  0.000000  0.000000      1.000000
  0.000000  0.059235  0.000000      1.000000
  0.059235  0.059235  0.000000      1.000000
 


--------------------------------------------------------------------------------------------------------




 Dimension of arrays:
   k-points           NKPTS =      4   k-points in BZ     NKDIM =      4   number of bands    NBANDS=    320
   number of dos      NEDOS =    301   number of ions     NIONS =     66
   non local maximal  LDIM  =      5   non local SUM 2l+1 LMDIM =     13
   total plane-waves  NPLWV = 882000
   max r-space proj   IRMAX =      1   max aug-charges    IRDMAX=  11635
   dimension x,y,z NGX =    70 NGY =   70 NGZ =  180
   dimension x,y,z NGXF=   140 NGYF=  140 NGZF=  360
   support grid    NGXF=   140 NGYF=  140 NGZF=  360
   ions per type =               1   1  32  32
   NGX,Y,Z   is equivalent  to a cutoff of  13.79, 13.79, 14.03 a.u.
   NGXF,Y,Z  is equivalent  to a cutoff of  27.57, 27.57, 28.06 a.u.

 SYSTEM =  MgO-rocksalt                            
 POSCAR =   N  O Mg  O                             

--------------------------------------------------------------------------------------------------------


  energy-cutoff  :      600.00
  volume of cell :     1519.82
      direct lattice vectors                 reciprocal lattice vectors
     8.440984654  0.000000000  0.000000000     0.118469591  0.000000000  0.000000000
     0.000000000  8.440984654  0.000000000     0.000000000  0.118469591  0.000000000
     0.000000000  0.000000000 21.330738491     0.000000000  0.000000000  0.046880702

  length of vectors
     8.440984654  8.440984654 21.330738491     0.118469591  0.118469591  0.046880702



 k-points in units of 2pi/SCALE and weight: pymatgen v2020.8.13 with grid density = 
   0.00000000  0.00000000  0.00000000       0.250
   0.05923480  0.00000000  0.00000000       0.250
   0.00000000  0.05923480  0.00000000       0.250
   0.05923480  0.05923480  0.00000000       0.250

 k-points in reciprocal lattice and weights: pymatgen v2020.8.13 with grid density = 
   0.00000000  0.00000000  0.00000000       0.250
   0.50000000  0.00000000  0.00000000       0.250
   0.00000000  0.50000000  0.00000000       0.250
   0.50000000  0.50000000  0.00000000       0.250

 position of ions in fractional coordinates (direct lattice) 
   0.49999994  0.49999996  0.76046261
   0.50000000  0.50000005  0.81558944
   0.00000000  0.75000000  0.35160527
   0.25000000  0.00000000  0.35160527
   0.00000000  0.00000000  0.45053509
   0.25000000  0.75000000  0.45053509
   0.99986942  0.74996866  0.55005560
   0.25003140  0.00013058  0.55005577
   0.00000000  0.00000000  0.64868897
   0.24969626  0.75030279  0.64845915
   0.00000000  0.25000000  0.35160527
   0.25000000  0.50000000  0.35160527
   0.00000000  0.50000000  0.45053509
   0.25000000  0.25000000  0.45053509
   0.00013058  0.25003134  0.55005560
   0.25038301  0.50006519  0.55006647
   0.00000001  0.50000000  0.64859103
   0.25011017  0.25011111  0.64873508
   0.50000000  0.75000000  0.35160527
   0.75000000  0.00000000  0.35160527
   0.50000000  0.00000000  0.45053509
   0.75000000  0.75000000  0.45053509
   0.49993480  0.74961678  0.55006647
   0.74996861  0.99986942  0.55005577
   0.50000000  0.00000000  0.64859174
   0.74988984  0.74988889  0.64873509
   0.50000000  0.25000000  0.35160527
   0.75000000  0.50000000  0.35160527
   0.50000000  0.50000000  0.45053509
   0.75000000  0.25000000  0.45053509
   0.50006520  0.25038322  0.55006645
   0.74961699  0.49993480  0.55006648
   0.49999999  0.49999999  0.65044968
   0.75030374  0.24969720  0.64845915
   0.00000000  0.75000000  0.45053509
   0.25000000  0.00000000  0.45053509
   0.00000000  0.00000000  0.35160527
   0.25000000  0.75000000  0.35160527
   0.99986828  0.75010967  0.65084109
   0.24989060  0.00013172  0.65084132
   0.00000000  0.00000000  0.54975797
   0.24988627  0.75011428  0.54974957
   0.00000000  0.25000000  0.45053509
   0.25000000  0.50000000  0.45053509
   0.00000000  0.50000000  0.35160527
   0.25000000  0.25000000  0.35160527
   0.00013172  0.24989032  0.65084109
   0.24907874  0.50038163  0.65061874
   0.00000001  0.50000000  0.54973928
   0.25007000  0.25006944  0.54982963
   0.50000000  0.75000000  0.45053509
   0.75000000  0.00000000  0.45053509
   0.50000000  0.00000000  0.35160527
   0.75000000  0.75000000  0.35160527
   0.49961833  0.75092017  0.65062021
   0.75010940  0.99986828  0.65084133
   0.50000000  0.00000001  0.54973984
   0.74993000  0.74993055  0.54982964
   0.50000000  0.25000000  0.45053509
   0.75000000  0.50000000  0.45053509
   0.50000000  0.50000000  0.35160527
   0.75000000  0.25000000  0.35160527
   0.50038167  0.24907983  0.65062023
   0.75092126  0.49961836  0.65061872
   0.49999999  0.49999999  0.55009785
   0.75011373  0.24988572  0.54974957

 position of ions in cartesian coordinates  (Angst):
   4.22049184  4.22049199 16.22122898
   4.22049233  4.22049271 17.39712513
   0.00000000  6.33073849  7.50000000
   2.11024616  0.00000000  7.50000000
   0.00000000  0.00000000  9.61024616
   2.11024616  6.33073849  9.61024616
   8.43988243  6.33047394 11.73309226
   2.11051119  0.00110221 11.73309581
   0.00000003  0.00000001 13.83701489
   2.10768229  6.33329437 13.83211250
   0.00000000  2.11024616  7.50000000
   2.11024616  4.22049233  7.50000000
   0.00000000  4.22049233  9.61024616
   2.11024616  2.11024616  9.61024616
   0.00110222  2.11051069 11.73309216
   2.11347912  4.22104263 11.73332406
   0.00000005  4.22049230 13.83492564
   2.11117609  2.11118402 13.83799836
   4.22049233  6.33073849  7.50000000
   6.33073849  0.00000000  7.50000000
   4.22049233  0.00000000  9.61024616
   6.33073849  6.33073849  9.61024616
   4.21994197  6.32750370 11.73332397
   6.33047349  8.43988243 11.73309588
   4.22049229  0.00000003 13.83494077
   6.32980860  6.32980063 13.83799863
   4.22049233  2.11024616  7.50000000
   6.33073849  4.22049233  7.50000000
   4.22049233  4.22049233  9.61024616
   6.33073849  2.11024616  9.61024616
   4.22104270  2.11348093 11.73332369
   6.32750555  4.21994201 11.73332434
   4.22049228  4.22049225 13.87457202
   6.33330233  2.10769022 13.83211249
   0.00000000  6.33073849  9.61024616
   2.11024616  0.00000000  9.61024616
   0.00000000  0.00000000  7.50000000
   2.11024616  6.33073849  7.50000000
   8.43987283  6.33166425 13.88292105
   2.10932269  0.00111187 13.88292610
   0.00000004  0.00000002 11.72674345
   2.10928618  6.33170312 11.72656424
   0.00000000  2.11024616  9.61024616
   2.11024616  4.22049233  9.61024616
   0.00000000  4.22049233  7.50000000
   2.11024616  2.11024616  7.50000000
   0.00111185  2.10932037 13.88292100
   2.10246982  4.22371370 13.87817814
   0.00000005  4.22049230 11.72634481
   2.11083705  2.11083234 11.72827214
   4.22049233  6.33073849  9.61024616
   6.33073849  0.00000000  9.61024616
   4.22049233  0.00000000  7.50000000
   6.33073849  6.33073849  7.50000000
   4.21727065  6.33850562 13.87820960
   6.33166196  8.43987277 13.88292612
   4.22049230  0.00000005 11.72635669
   6.33014765  6.33015231 11.72827231
   4.22049233  2.11024616  9.61024616
   6.33073849  4.22049233  9.61024616
   4.22049233  4.22049233  7.50000000
   6.33073849  2.11024616  7.50000000
   4.22371397  2.10247899 13.87820992
   6.33851480  4.21727089 13.87817782
   4.22049228  4.22049227 11.73399328
   6.33169845  2.10928150 11.72656424



--------------------------------------------------------------------------------------------------------

--------------------------------------- Iteration      FINAL  ---------------------------------------


--------------------OUTCAR has been truncated-------------------------


--------------------OUTCAR has been truncated-------------------------


--------------------OUTCAR has been truncated-------------------------


--------------------OUTCAR has been truncated-------------------------


--------------------OUTCAR has been truncated-------------------------


--------------------OUTCAR has been truncated-------------------------


--------------------OUTCAR has been truncated-------------------------


--------------------OUTCAR has been truncated-------------------------


--------------------OUTCAR has been truncated-------------------------


--------------------OUTCAR has been truncated-------------------------


  FORCE on cell =-STRESS in cart. coord.  units (eV):
  Direction    XX          YY          ZZ          XY          YZ          ZX
  --------------------------------------------------------------------------------------
  Alpha Z   910.25235   910.25235   910.25235
  Ewald  157755.67387157755.67808************     0.20724     0.00023     0.00016
  Hartree168162.05161168161.84410************     5.98819     0.00009     0.00007
  E(xc)   -2506.56074 -2506.56519 -2505.46861     0.13756     0.00000     0.00000
  Local  ************************335363.43676   -17.30124    -0.00030    -0.00022
  n-local -2862.57714 -2862.44679 -2889.57972    -3.97513    -0.00001    -0.00001
  augment  1059.09744  1059.06228  1048.67360     1.05567    -0.00000     0.00000
  Kinetic  7538.31020  7537.84736  7545.38145    13.68170    -0.00000    -0.00000
  Fock        0.00000     0.00000     0.00000     0.00000     0.00000     0.00000
  -------------------------------------------------------------------------------------
  Total     -30.16820   -30.17811    -4.39267    -0.20601     0.00002     0.00000
  in kB     -31.80298   -31.81343    -4.63070    -0.21718     0.00002     0.00000
  external pressure =      -22.75 kB  Pullay stress =        0.00 kB


 VOLUME and BASIS-vectors are now :
 -----------------------------------------------------------------------------
  energy-cutoff  :      600.00
  volume of cell :     1519.82
      direct lattice vectors                 reciprocal lattice vectors
     8.440984654  0.000000000  0.000000000     0.118469591  0.000000000  0.000000000
     0.000000000  8.440984654  0.000000000     0.000000000  0.118469591  0.000000000
     0.000000000  0.000000000 21.330738491     0.000000000  0.000000000  0.046880702

  length of vectors
     8.440984654  8.440984654 21.330738491     0.118469591  0.118469591  0.046880702


 FORCES acting on ions:
    Electron-Ion                     Ewald-Force                    Non-Local-Force
 -----------------------------------------------------------------------------------------------
   0.823E-04 0.144E-03 -.110E+04   -.125E-03 -.184E-03 0.106E+04   0.537E-04 0.475E-04 0.410E+02
   -.101E-03 -.167E-03 -.152E+04   0.130E-03 0.190E-03 0.158E+04   -.322E-04 -.227E-04 -.598E+02
   0.695E-02 -.204E+00 0.208E+04   -.734E-02 0.206E+00 -.207E+04   0.387E-03 -.946E-03 -.679E+01
   0.204E+00 -.692E-02 0.208E+04   -.205E+00 0.733E-02 -.207E+04   0.946E-03 -.327E-03 -.679E+01
   0.218E-04 0.186E-04 0.718E+03   -.118E-04 -.121E-04 -.718E+03   0.149E-04 0.100E-04 0.450E+00
   0.915E+00 -.916E+00 0.719E+03   -.926E+00 0.926E+00 -.720E+03   0.744E-02 -.727E-02 0.454E+00
   0.206E+00 -.357E+01 -.638E+03   -.209E+00 0.355E+01 0.638E+03   0.482E-02 0.116E-01 -.157E+00
   0.356E+01 -.206E+00 -.638E+03   -.355E+01 0.209E+00 0.638E+03   -.103E-01 -.483E-02 -.156E+00
   0.238E-04 0.230E-04 -.200E+04   -.122E-04 -.649E-05 0.200E+04   0.241E-05 0.225E-04 0.572E+01
   0.227E+02 -.227E+02 -.197E+04   -.227E+02 0.227E+02 0.197E+04   0.572E-01 -.517E-01 0.580E+01
   -.695E-02 0.204E+00 0.208E+04   0.733E-02 -.206E+00 -.207E+04   -.379E-03 0.891E-03 -.679E+01
   0.228E+00 0.816E-02 0.208E+04   -.228E+00 -.807E-02 -.207E+04   -.146E-03 -.206E-04 -.678E+01
   0.102E-04 -.243E-04 0.719E+03   -.227E-04 0.115E-04 -.720E+03   -.139E-04 -.162E-04 0.431E+00
   0.918E+00 0.919E+00 0.719E+03   -.920E+00 -.920E+00 -.720E+03   0.156E-02 0.131E-02 0.478E+00
   -.206E+00 0.357E+01 -.638E+03   0.209E+00 -.355E+01 0.638E+03   -.478E-02 -.116E-01 -.157E+00
   0.610E+01 0.242E+00 -.627E+03   -.601E+01 -.250E+00 0.628E+03   -.960E-01 0.634E-02 -.221E+00
   0.301E-04 0.957E-05 -.199E+04   -.252E-04 -.283E-07 0.198E+04   -.140E-04 0.152E-04 0.574E+01
   0.225E+02 0.225E+02 -.198E+04   -.226E+02 -.226E+02 0.197E+04   0.103E+00 0.978E-01 0.579E+01
   -.812E-02 -.228E+00 0.208E+04   0.807E-02 0.228E+00 -.207E+04   0.806E-04 0.224E-03 -.678E+01
   -.204E+00 0.692E-02 0.208E+04   0.205E+00 -.734E-02 -.207E+04   -.932E-03 0.318E-03 -.679E+01
   -.232E-05 0.226E-04 0.719E+03   0.124E-04 -.237E-04 -.720E+03   0.208E-04 -.357E-05 0.433E+00
   -.918E+00 -.919E+00 0.719E+03   0.920E+00 0.920E+00 -.720E+03   -.153E-02 -.131E-02 0.478E+00
   -.242E+00 -.611E+01 -.627E+03   0.250E+00 0.601E+01 0.628E+03   -.635E-02 0.979E-01 -.215E+00
   -.356E+01 0.206E+00 -.638E+03   0.355E+01 -.209E+00 0.638E+03   0.103E-01 0.475E-02 -.156E+00
   -.640E-05 0.190E-04 -.199E+04   0.121E-04 -.170E-04 0.198E+04   0.179E-04 -.125E-04 0.574E+01
   -.225E+02 -.225E+02 -.198E+04   0.226E+02 0.226E+02 0.197E+04   -.103E+00 -.978E-01 0.579E+01
   0.810E-02 0.228E+00 0.208E+04   -.807E-02 -.228E+00 -.207E+04   -.120E-03 -.175E-03 -.678E+01
   -.228E+00 -.813E-02 0.208E+04   0.228E+00 0.807E-02 -.207E+04   0.153E-03 0.637E-04 -.678E+01
   -.970E-05 -.184E-04 0.721E+03   0.230E-04 0.232E-04 -.721E+03   0.227E-04 0.628E-05 0.521E+00
   -.915E+00 0.916E+00 0.719E+03   0.926E+00 -.926E+00 -.720E+03   -.746E-02 0.725E-02 0.454E+00
   0.242E+00 0.611E+01 -.627E+03   -.250E+00 -.601E+01 0.628E+03   0.631E-02 -.979E-01 -.215E+00
   -.610E+01 -.242E+00 -.627E+03   0.601E+01 0.250E+00 0.628E+03   0.959E-01 -.627E-02 -.221E+00
   -.152E-04 -.288E-04 -.188E+04   0.280E-04 0.214E-04 0.188E+04   0.231E-04 -.979E-05 0.462E+01
   -.227E+02 0.227E+02 -.197E+04   0.227E+02 -.227E+02 0.197E+04   -.572E-01 0.517E-01 0.580E+01
   0.360E-01 -.605E+00 0.538E+03   -.264E-01 0.604E+00 -.538E+03   -.131E-01 0.126E-02 -.947E-01
   0.604E+00 -.360E-01 0.538E+03   -.603E+00 0.264E-01 -.538E+03   -.704E-03 0.131E-01 -.944E-01
   0.330E-07 -.458E-05 0.156E+04   -.214E-05 -.216E-05 -.157E+04   0.836E-05 0.128E-04 0.360E+01
   0.163E+00 -.163E+00 0.156E+04   -.164E+00 0.164E+00 -.157E+04   0.101E-02 -.900E-03 0.360E+01
   0.257E+00 -.893E+01 -.152E+04   -.286E+00 0.890E+01 0.152E+04   0.306E-01 0.370E-01 -.513E+01
   0.893E+01 -.257E+00 -.152E+04   -.890E+01 0.286E+00 0.152E+04   -.330E-01 -.307E-01 -.513E+01
   0.145E-04 0.132E-04 -.475E+03   -.141E-04 -.135E-04 0.475E+03   -.983E-06 -.871E-06 0.253E+00
   0.363E+01 -.363E+01 -.468E+03   -.363E+01 0.363E+01 0.468E+03   0.575E-02 -.334E-02 0.305E+00
   -.360E-01 0.605E+00 0.538E+03   0.264E-01 -.604E+00 -.538E+03   0.131E-01 -.126E-02 -.947E-01
   0.784E+00 0.584E-01 0.540E+03   -.808E+00 -.601E-01 -.540E+03   0.307E-01 0.214E-02 -.889E-01
   0.830E-05 -.832E-05 0.156E+04   -.312E-05 0.214E-05 -.157E+04   -.603E-05 0.236E-05 0.360E+01
   0.162E+00 0.162E+00 0.156E+04   -.163E+00 -.163E+00 -.157E+04   0.155E-02 0.145E-02 0.360E+01
   -.257E+00 0.893E+01 -.152E+04   0.286E+00 -.890E+01 0.152E+04   -.306E-01 -.370E-01 -.513E+01
   0.306E+02 0.280E+00 -.148E+04   -.304E+02 -.299E+00 0.149E+04   -.231E+00 0.178E-01 -.512E+01
   0.186E-04 -.537E-05 -.469E+03   -.178E-04 0.942E-05 0.469E+03   -.414E-05 -.132E-05 0.245E+00
   0.356E+01 0.357E+01 -.470E+03   -.355E+01 -.355E+01 0.469E+03   -.168E-01 -.192E-01 0.233E+00
   -.584E-01 -.786E+00 0.540E+03   0.601E-01 0.808E+00 -.540E+03   -.213E-02 -.301E-01 -.883E-01
   -.604E+00 0.360E-01 0.538E+03   0.603E+00 -.264E-01 -.538E+03   0.703E-03 -.131E-01 -.944E-01
   -.360E-05 -.533E-06 0.156E+04   0.216E-05 -.318E-05 -.157E+04   0.151E-06 0.506E-05 0.360E+01
   -.162E+00 -.162E+00 0.156E+04   0.163E+00 0.163E+00 -.157E+04   -.155E-02 -.144E-02 0.360E+01
   -.280E+00 -.307E+02 -.148E+04   0.299E+00 0.304E+02 0.149E+04   -.177E-01 0.230E+00 -.511E+01
   -.893E+01 0.257E+00 -.152E+04   0.890E+01 -.286E+00 0.152E+04   0.330E-01 0.307E-01 -.513E+01
   -.168E-04 0.201E-04 -.469E+03   0.181E-04 -.215E-04 0.469E+03   0.212E-05 -.156E-05 0.249E+00
   -.356E+01 -.357E+01 -.470E+03   0.355E+01 0.355E+01 0.469E+03   0.168E-01 0.192E-01 0.233E+00
   0.584E-01 0.786E+00 0.540E+03   -.601E-01 -.808E+00 -.540E+03   0.214E-02 0.301E-01 -.883E-01
   -.784E+00 -.584E-01 0.540E+03   0.808E+00 0.601E-01 -.540E+03   -.307E-01 -.214E-02 -.889E-01
   -.159E-04 -.442E-05 0.156E+04   0.313E-05 0.316E-05 -.157E+04   0.195E-04 0.166E-05 0.360E+01
   -.163E+00 0.163E+00 0.156E+04   0.164E+00 -.164E+00 -.157E+04   -.102E-02 0.882E-03 0.360E+01
   0.280E+00 0.307E+02 -.148E+04   -.299E+00 -.304E+02 0.149E+04   0.177E-01 -.230E+00 -.511E+01
   -.306E+02 -.280E+00 -.148E+04   0.304E+02 0.299E+00 0.149E+04   0.231E+00 -.178E-01 -.512E+01
   -.146E-04 -.213E-04 -.466E+03   0.190E-04 0.188E-04 0.466E+03   -.623E-05 0.545E-05 -.232E+00
   -.363E+01 0.363E+01 -.468E+03   0.363E+01 -.363E+01 0.468E+03   -.576E-02 0.333E-02 0.305E+00
 -----------------------------------------------------------------------------------------------
   0.111E-04 0.102E-04 0.372E+02   0.799E-14 0.101E-12 0.909E-12   0.348E-04 0.748E-04 -.372E+02


 POSITION                                       TOTAL-FORCE (eV/Angst)
 -----------------------------------------------------------------------------------
      4.22049      4.22049     16.22123         0.000010      0.000006      0.434916
      4.22049      4.22049     17.39713        -0.000004     -0.000001     -0.454672
      0.00000      6.33074      7.50000        -0.000003      0.000252      0.330586
      2.11025      0.00000      7.50000        -0.000348      0.000087      0.330469
      0.00000      0.00000      9.61025         0.000024      0.000015      0.034416
      2.11025      6.33074      9.61025        -0.003406      0.003283      0.033136
      8.43988      6.33047     11.73309         0.001276     -0.001255      0.032876
      2.11051      0.00110     11.73310         0.000789     -0.001285      0.032621
      0.00000      0.00000     13.83701         0.000014      0.000038      0.017305
      2.10768      6.33329     13.83211        -0.009431      0.007981      0.010834
      0.00000      2.11025      7.50000         0.000004     -0.000359      0.330666
      2.11025      4.22049      7.50000        -0.000105      0.000071      0.329755
      0.00000      4.22049      9.61025        -0.000027     -0.000031      0.038770
      2.11025      2.11025      9.61025         0.000131      0.000140      0.033941
      0.00110      2.11051     11.73309        -0.001208      0.001228      0.032814
      2.11348      4.22104     11.73332        -0.000730     -0.001199      0.041247
      0.00000      4.22049     13.83493        -0.000010      0.000024      0.017050
      2.11118      2.11118     13.83800        -0.011054     -0.009597      0.015471
      4.22049      6.33074      7.50000         0.000032      0.000139      0.329612
      6.33074      0.00000      7.50000         0.000359     -0.000103      0.330500
      4.22049      0.00000      9.61025         0.000031     -0.000006      0.038298
      6.33074      6.33074      9.61025        -0.000098     -0.000139      0.033904
      4.21994      6.32750     11.73332         0.001230      0.000067      0.040038
      6.33047      8.43988     11.73310        -0.000783      0.001157      0.032548
      4.22049      0.00000     13.83494         0.000023     -0.000012      0.016673
      6.32981      6.32980     13.83800         0.011136      0.009622      0.015611
      4.22049      2.11025      7.50000        -0.000085     -0.000074      0.329654
      6.33074      4.22049      7.50000         0.000106      0.000007      0.329738
      4.22049      4.22049      9.61025         0.000036      0.000010      0.041635
      6.33074      2.11025      9.61025         0.003383     -0.003316      0.033082
      4.22104      2.11348     11.73332        -0.001294     -0.000051      0.040036
      6.32751      4.21994     11.73332         0.000615      0.001303      0.041247
      4.22049      4.22049     13.87457         0.000036     -0.000019      0.055621
      6.33330      2.10769     13.83211         0.009385     -0.007957      0.010867
      0.00000      6.33074      9.61025        -0.003459      0.000283      0.058047
      2.11025      0.00000      9.61025        -0.000113      0.003460      0.058137
      0.00000      0.00000      7.50000         0.000006      0.000005     -0.403466
      2.11025      6.33074      7.50000         0.000295     -0.000263     -0.402648
      8.43987      6.33166     13.88292         0.002327      0.001097     -0.093028
      2.10932      0.00111     13.88293         0.000078     -0.002332     -0.092844
      0.00000      0.00000     11.72674        -0.000001     -0.000003      0.019980
      2.10929      6.33170     11.72656         0.001988     -0.001252      0.013089
      0.00000      2.11025      9.61025         0.003455     -0.000285      0.058048
      2.11025      4.22049      9.61025         0.007347      0.000407      0.061338
      0.00000      4.22049      7.50000        -0.000002     -0.000005     -0.402687
      2.11025      2.11025      7.50000         0.000462      0.000438     -0.402694
      0.00111      2.10932     13.88292        -0.002329     -0.001100     -0.093019
      2.10247      4.22371     13.87818        -0.000989     -0.000902     -0.088886
      0.00000      4.22049     11.72634        -0.000004      0.000001      0.012276
      2.11084      2.11083     11.72827        -0.000199     -0.000920      0.012913
      4.22049      6.33074      9.61025        -0.000411     -0.007174      0.061525
      6.33074      0.00000      9.61025         0.000115     -0.003459      0.058141
      4.22049      0.00000      7.50000        -0.000002      0.000000     -0.402630
      6.33074      6.33074      7.50000        -0.000468     -0.000425     -0.402690
      4.21727      6.33851     13.87821         0.000941      0.000568     -0.085754
      6.33166      8.43987     13.88293        -0.000082      0.002334     -0.092840
      4.22049      0.00000     11.72636         0.000003     -0.000004      0.013433
      6.33015      6.33015     11.72827         0.000197      0.000922      0.012917
      4.22049      2.11025      9.61025         0.000410      0.007171      0.061527
      6.33074      4.22049      9.61025        -0.007348     -0.000410      0.061343
      4.22049      4.22049      7.50000         0.000006     -0.000001     -0.402129
      6.33074      2.11025      7.50000        -0.000299      0.000251     -0.402653
      4.22371      2.10248     13.87821        -0.000950     -0.000574     -0.085750
      6.33851      4.21727     13.87818         0.000984      0.000894     -0.088888
      4.22049      4.22049     11.73399        -0.000002      0.000002      0.005536
      6.33170      2.10928     11.72656        -0.001988      0.001248      0.013090
 -----------------------------------------------------------------------------------
    total drift:                                0.000046      0.000085      0.016549


--------------------------------------------------------------------------------------------------------



  FREE ENERGIE OF THE ION-ELECTRON SYSTEM (eV)
  ---------------------------------------------------
  free  energy   TOTEN  =      -274.51857420 eV

  energy  without entropy=     -274.51821256  energy(sigma->0) =     -274.51839338



--------------------------------------------------------------------------------------------------------


    POTLOK:  cpu time      2.6479: real time      2.6481


--------------------------------------------------------------------------------------------------------


     LOOP+:  cpu time    371.5552: real time    371.8645
    4ORBIT:  cpu time      0.0000: real time      0.0000

 total amount of memory used by VASP MPI-rank0    78960. kBytes
=======================================================================

   base      :      30000. kBytes
   nonl-proj :      17408. kBytes
   fftplans  :       4923. kBytes
   grid      :      13952. kBytes
   one-center:        146. kBytes
   wavefun   :      12531. kBytes

  
  
 General timing and accounting informations for this job:
 ========================================================
  
                  Total CPU time used (sec):      407.583
                            User time (sec):      405.784
                          System time (sec):        1.799
                         Elapsed time (sec):      417.298
  
                   Maximum memory used (kb):      298468.
                   Average memory used (kb):          N/A
  
                          Minor page faults:       124729
                          Major page faults:            0
                 Voluntary context switches:        13177
