 vasp.6.4.2 20Jul23 (build Feb 22 2024 13:53:45) complex                         
 executed on              LinuxNV date 2024.08.30  04:23:20
 running    4 mpi-ranks, with    1 threads/rank, on    1 nodes
 distrk:  each k-point on    4 cores,    1 groups
 distr:  one band on NCORE=   1 cores,    4 groups
 OpenACC runtime initialized ...    4 GPUs detected


--------------------------------------------------------------------------------------------------------


 INCAR:
   SYSTEM = Oxide-Surface
   ISMEAR = 0
   SIGMA = 0.05
   EDIFF = 1E-5
   ALGO = Normal
   IBRION = -1
   NSW = 0
   ISYM = 0
   DIPOL = 0.5 0.5 0.5
   IDIPOL = 3
   LDIPOL = .TRUE.
   ISTART = 1
   LHFCALC = .TRUE.
   HFSCREEN = 0.2
   GGA = PE
   HFRCUT = -1
   ENCUT = 520
   PREC = Normal
   PRECFOCK = Normal
   LASPH = .TRUE.
   LREAL = Auto
   ISPIN = 1
   NELM = 200
   NELMIN = 8
   NCORE = 1
   KPAR = 1
   LWAVE = .FALSE.
   LCHARG = .FALSE.

 POTCAR:    PAW_PBE H 15Jun2001                   
 POTCAR:    PAW_PBE O 08Apr2002                   
 POTCAR:    PAW_PBE Ti_pv 07Sep2000               
 POTCAR:    PAW_PBE O 08Apr2002                   
 POTCAR:    PAW_PBE H 15Jun2001                   
   SHA256 =  030f79b5d3ab3cf0e668861823c8fb652ff669f3e15e46930bd03bfd63a607b6 H/POTCAR              
   COPYR  = (c) Copyright 15Jun2001 Georg Kresse                                                    
   COPYR  = This file is part of the software VASP. Any use, copying, and all other rights are regul
   COPYR  = If you do not have a valid VASP license, you may not use, copy or distribute this file. 
   VRHFIN =H: ultrasoft test                                                                        
   LEXCH  = PE                                                                                      
   EATOM  =    12.4884 eV,    0.9179 Ry                                                             
                                                                                                    
   TITEL  = PAW_PBE H 15Jun2001                                                                     
   LULTRA =        F    use ultrasoft PP ?                                                          
   IUNSCR =        0    unscreen: 0-lin 1-nonlin 2-no                                               
   RPACOR =    0.000    partial core radius                                                         
   POMASS =    1.000; ZVAL   =    1.000    mass and valenz                                          
   RCORE  =    1.100    outmost cutoff radius                                                       
   RWIGS  =    0.700; RWIGS  =    0.370    wigner-seitz radius (au A)                               
   ENMAX  =  250.000; ENMIN  =  200.000 eV                                                          
   RCLOC  =    0.701    cutoff for local pot                                                        
   LCOR   =        T    correct aug charges                                                         
   LPAW   =        T    paw PP                                                                      
   EAUG   =  400.000                                                                                
   RMAX   =    1.123    core radius for proj-oper                                                   
   RAUG   =    1.200    factor for augmentation sphere                                              
   RDEP   =    1.112    radius for radial grids                                                     
   RDEPT  =    0.926    core radius for aug-charge                                                  
                                                                                                    
   Atomic configuration                                                                             
    2 entries                                                                                       
     n  l   j            E        occ.                                                              
     1  0  0.50        -6.4927   1.0000                                                             
     2  1  0.50        -3.4015   0.0000                                                             
   Description                                                                                      
     l       E           TYP  RCUT    TYP  RCUT                                                     
     0     -6.4927494     23  1.100                                                                 
     0      6.8029130     23  1.100                                                                 
     1     -4.0817478     23  1.100                                                                 
  local pseudopotential read in
  atomic valenz-charges read in
  non local Contribution for L=            0  read in
    real space projection operators read in
  non local Contribution for L=            0  read in
    real space projection operators read in
  non local Contribution for L=            1  read in
    real space projection operators read in
    PAW grid and wavefunctions read in
 
   number of l-projection  operators is LMAX  =            3
   number of lm-projection operators is LMMAX =            5
 
 POTCAR:    PAW_PBE O 08Apr2002                   
   SHA256 =  818f92134a0a090dccd8ba1447fa70422a3b330e708bb4f08108d8ae51209ddf O/POTCAR              
   COPYR  = (c) Copyright 08Apr2002 Georg Kresse                                                    
   COPYR  = This file is part of the software VASP. Any use, copying, and all other rights are regul
   COPYR  = If you do not have a valid VASP license, you may not use, copy or distribute this file. 
   VRHFIN =O: s2p4                                                                                  
   LEXCH  = PE                                                                                      
   EATOM  =   432.3788 eV,   31.7789 Ry                                                             
                                                                                                    
   TITEL  = PAW_PBE O 08Apr2002                                                                     
   LULTRA =        F    use ultrasoft PP ?                                                          
   IUNSCR =        1    unscreen: 0-lin 1-nonlin 2-no                                               
   RPACOR =    1.200    partial core radius                                                         
   POMASS =   16.000; ZVAL   =    6.000    mass and valenz                                          
   RCORE  =    1.520    outmost cutoff radius                                                       
   RWIGS  =    1.550; RWIGS  =    0.820    wigner-seitz radius (au A)                               
   ENMAX  =  400.000; ENMIN  =  300.000 eV                                                          
   ICORE  =        2    local potential                                                             
   LCOR   =        T    correct aug charges                                                         
   LPAW   =        T    paw PP                                                                      
   EAUG   =  605.392                                                                                
   DEXC   =    0.000                                                                                
   RMAX   =    1.553    core radius for proj-oper                                                   
   RAUG   =    1.300    factor for augmentation sphere                                              
   RDEP   =    1.550    radius for radial grids                                                     
   RDEPT  =    1.329    core radius for aug-charge                                                  
                                                                                                    
   Atomic configuration                                                                             
    4 entries                                                                                       
     n  l   j            E        occ.                                                              
     1  0  0.50      -514.6923   2.0000                                                             
     2  0  0.50       -23.9615   2.0000                                                             
     2  1  0.50        -9.0305   4.0000                                                             
     3  2  1.50        -9.5241   0.0000                                                             
   Description                                                                                      
     l       E           TYP  RCUT    TYP  RCUT                                                     
     0    -23.9615318     23  1.200                                                                 
     0     -9.5240782     23  1.200                                                                 
     1     -9.0304911     23  1.520                                                                 
     1      8.1634956     23  1.520                                                                 
     2     -9.5240782      7  1.500                                                                 
  local pseudopotential read in
  partial core-charges read in
  partial kinetic energy density read in
  kinetic energy density of atom read in
  atomic valenz-charges read in
  non local Contribution for L=            0  read in
    real space projection operators read in
  non local Contribution for L=            0  read in
    real space projection operators read in
  non local Contribution for L=            1  read in
    real space projection operators read in
  non local Contribution for L=            1  read in
    real space projection operators read in
    PAW grid and wavefunctions read in
 
   number of l-projection  operators is LMAX  =            4
   number of lm-projection operators is LMMAX =            8
 
 POTCAR:    PAW_PBE Ti_pv 07Sep2000               
   SHA256 =  f757a1b2c6d082f4c628fa3d987464a8763bf92e53844ac0500b0e2ddc9ce5c0 Ti_pv/POTCAR          
   COPYR  = (c) Copyright 07Sep2000 Georg Kresse                                                    
   COPYR  = This file is part of the software VASP. Any use, copying, and all other rights are regul
   COPYR  = If you do not have a valid VASP license, you may not use, copy or distribute this file. 
   VRHFIN =Ti: d3 s1                                                                                
   LEXCH  = PE                                                                                      
   EATOM  =  1042.5995 eV,   76.6289 Ry                                                             
                                                                                                    
   TITEL  = PAW_PBE Ti_pv 07Sep2000                                                                 
   LULTRA =        F    use ultrasoft PP ?                                                          
   IUNSCR =        1    unscreen: 0-lin 1-nonlin 2-no                                               
   RPACOR =    2.200    partial core radius                                                         
   POMASS =   47.880; ZVAL   =   10.000    mass and valenz                                          
   RCORE  =    2.500    outmost cutoff radius                                                       
   RWIGS  =    2.500; RWIGS  =    1.323    wigner-seitz radius (au A)                               
   ENMAX  =  222.335; ENMIN  =  166.751 eV                                                          
   RCLOC  =    1.701    cutoff for local pot                                                        
   LCOR   =        T    correct aug charges                                                         
   LPAW   =        T    paw PP                                                                      
   EAUG   =  482.848                                                                                
   DEXC   =    0.000                                                                                
   RMAX   =    2.564    core radius for proj-oper                                                   
   RAUG   =    1.300    factor for augmentation sphere                                              
   RDEP   =    2.538    radius for radial grids                                                     
   RDEPT  =    1.952    core radius for aug-charge                                                  
                                                                                                    
   Atomic configuration                                                                             
    8 entries                                                                                       
     n  l   j            E        occ.                                                              
     1  0  0.50     -4865.3608   2.0000                                                             
     2  0  0.50      -533.1368   2.0000                                                             
     2  1  1.50      -440.5031   6.0000                                                             
     3  0  0.50       -59.3186   2.0000                                                             
     3  1  1.50       -35.7012   6.0000                                                             
     3  2  2.50        -1.9157   3.0000                                                             
     4  0  0.50        -3.7291   1.0000                                                             
     4  3  2.50        -1.3606   0.0000                                                             
   Description                                                                                      
     l       E           TYP  RCUT    TYP  RCUT                                                     
     1    -35.7012140     23  2.300                                                                 
     1     -1.3605826     23  2.300                                                                 
     2     -1.9156996     23  2.500                                                                 
     2     -0.4063033     23  2.500                                                                 
     0     -3.7290856     23  2.500                                                                 
     0     20.4087390     23  2.500                                                                 
  local pseudopotential read in
  partial core-charges read in
  partial kinetic energy density read in
  atomic valenz-charges read in
  non local Contribution for L=            1  read in
    real space projection operators read in
  non local Contribution for L=            1  read in
    real space projection operators read in
  non local Contribution for L=            2  read in
    real space projection operators read in
  non local Contribution for L=            2  read in
    real space projection operators read in
  non local Contribution for L=            0  read in
    real space projection operators read in
  non local Contribution for L=            0  read in
    real space projection operators read in
    PAW grid and wavefunctions read in
 
   number of l-projection  operators is LMAX  =            6
   number of lm-projection operators is LMMAX =           18
 
 POTCAR:    PAW_PBE O 08Apr2002                   
   SHA256 =  818f92134a0a090dccd8ba1447fa70422a3b330e708bb4f08108d8ae51209ddf O/POTCAR              
   COPYR  = (c) Copyright 08Apr2002 Georg Kresse                                                    
   COPYR  = This file is part of the software VASP. Any use, copying, and all other rights are regul
   COPYR  = If you do not have a valid VASP license, you may not use, copy or distribute this file. 
   VRHFIN =O: s2p4                                                                                  
   LEXCH  = PE                                                                                      
   EATOM  =   432.3788 eV,   31.7789 Ry                                                             
                                                                                                    
   TITEL  = PAW_PBE O 08Apr2002                                                                     
   LULTRA =        F    use ultrasoft PP ?                                                          
   IUNSCR =        1    unscreen: 0-lin 1-nonlin 2-no                                               
   RPACOR =    1.200    partial core radius                                                         
   POMASS =   16.000; ZVAL   =    6.000    mass and valenz                                          
   RCORE  =    1.520    outmost cutoff radius                                                       
   RWIGS  =    1.550; RWIGS  =    0.820    wigner-seitz radius (au A)                               
   ENMAX  =  400.000; ENMIN  =  300.000 eV                                                          
   ICORE  =        2    local potential                                                             
   LCOR   =        T    correct aug charges                                                         
   LPAW   =        T    paw PP                                                                      
   EAUG   =  605.392                                                                                
   DEXC   =    0.000                                                                                
   RMAX   =    1.553    core radius for proj-oper                                                   
   RAUG   =    1.300    factor for augmentation sphere                                              
   RDEP   =    1.550    radius for radial grids                                                     
   RDEPT  =    1.329    core radius for aug-charge                                                  
                                                                                                    
   Atomic configuration                                                                             
    4 entries                                                                                       
     n  l   j            E        occ.                                                              
     1  0  0.50      -514.6923   2.0000                                                             
     2  0  0.50       -23.9615   2.0000                                                             
     2  1  0.50        -9.0305   4.0000                                                             
     3  2  1.50        -9.5241   0.0000                                                             
   Description                                                                                      
     l       E           TYP  RCUT    TYP  RCUT                                                     
     0    -23.9615318     23  1.200                                                                 
     0     -9.5240782     23  1.200                                                                 
     1     -9.0304911     23  1.520                                                                 
     1      8.1634956     23  1.520                                                                 
     2     -9.5240782      7  1.500                                                                 
  local pseudopotential read in
  partial core-charges read in
  partial kinetic energy density read in
  kinetic energy density of atom read in
  atomic valenz-charges read in
  non local Contribution for L=            0  read in
    real space projection operators read in
  non local Contribution for L=            0  read in
    real space projection operators read in
  non local Contribution for L=            1  read in
    real space projection operators read in
  non local Contribution for L=            1  read in
    real space projection operators read in
    PAW grid and wavefunctions read in
 
   number of l-projection  operators is LMAX  =            4
   number of lm-projection operators is LMMAX =            8
 
 Optimization of the real space projectors (new method)

 maximal supplied QI-value         = 34.20
 optimisation between [QCUT,QGAM] = [ 11.63, 23.26] = [ 37.87,151.49] Ry 
 Optimized for a Real-space Cutoff    1.14 Angstroem

   l    n(q)    QCUT    max X(q) W(low)/X(q) W(high)/X(q)  e(spline) 
   0      8    11.629    19.460    0.27E-03    0.65E-03    0.17E-06
   0      8    11.629    12.209    0.25E-03    0.62E-03    0.16E-06
   1      7    11.629     4.655    0.29E-03    0.85E-04    0.19E-06
 Optimization of the real space projectors (new method)

 maximal supplied QI-value         = 24.76
 optimisation between [QCUT,QGAM] = [ 11.64, 23.27] = [ 37.91,151.63] Ry 
 Optimized for a Real-space Cutoff    1.04 Angstroem

   l    n(q)    QCUT    max X(q) W(low)/X(q) W(high)/X(q)  e(spline) 
   0      7    11.635    20.381    0.14E-03    0.49E-03    0.18E-06
   0      7    11.635    15.268    0.16E-03    0.52E-03    0.19E-06
   1      7    11.635     5.964    0.30E-03    0.44E-03    0.22E-06
   1      7    11.635     5.382    0.27E-03    0.34E-03    0.19E-06
 Optimization of the real space projectors (new method)

 maximal supplied QI-value         = 15.12
 optimisation between [QCUT,QGAM] = [ 11.64, 23.28] = [ 37.95,151.78] Ry 
 Optimized for a Real-space Cutoff    1.45 Angstroem

   l    n(q)    QCUT    max X(q) W(low)/X(q) W(high)/X(q)  e(spline) 
   1     10    11.641     4.216    0.33E-04    0.72E-04    0.48E-07
   1     10    11.641     5.422    0.11E-03    0.20E-03    0.10E-06
   2      9    11.641    72.084    0.36E-03    0.27E-03    0.57E-06
   2      9    11.641    65.965    0.35E-03    0.27E-03    0.57E-06
   0     10    11.641    41.531    0.11E-03    0.93E-04    0.16E-06
   0     10    11.641    16.290    0.82E-04    0.72E-04    0.13E-06
 Optimization of the real space projectors (new method)

 maximal supplied QI-value         = 24.76
 optimisation between [QCUT,QGAM] = [ 11.64, 23.27] = [ 37.91,151.63] Ry 
 Optimized for a Real-space Cutoff    1.04 Angstroem

   l    n(q)    QCUT    max X(q) W(low)/X(q) W(high)/X(q)  e(spline) 
   0      7    11.635    20.381    0.14E-03    0.49E-03    0.18E-06
   0      7    11.635    15.268    0.16E-03    0.52E-03    0.19E-06
   1      7    11.635     5.964    0.30E-03    0.44E-03    0.22E-06
   1      7    11.635     5.382    0.27E-03    0.34E-03    0.19E-06
  PAW_PBE H 15Jun2001                   :
 energy of atom  1       EATOM=  -12.4884
 kinetic energy error for atom=    0.0014 (will be added to EATOM!!)
  PAW_PBE O 08Apr2002                   :
 energy of atom  2       EATOM= -432.3788
 kinetic energy error for atom=    0.0208 (will be added to EATOM!!)
  PAW_PBE Ti_pv 07Sep2000               :
 energy of atom  3       EATOM=-1042.5995
 kinetic energy error for atom=    0.0019 (will be added to EATOM!!)
  PAW_PBE O 08Apr2002                   :
 energy of atom  4       EATOM= -432.3788
 kinetic energy error for atom=    0.0208 (will be added to EATOM!!)
 
 
 POSCAR:  H  O Ti  O
  positions in direct lattice
  No initial velocities read in
 exchange correlation table for  LEXCH =        8
   RHO(1)=    0.500       N(1)  =     2000
   RHO(2)=  100.500       N(2)  =     4000
 


--------------------------------------------------------------------------------------------------------


 ion  position               nearest neighbor table
   1  0.557  0.550  0.840-   3 0.97
   2  0.660  0.496  0.817-   3 1.00
   3  0.584  0.491  0.817-   1 0.97   2 1.00  83 2.23
   4  0.796  0.625  0.211-  85 1.95 145 1.95 144 1.95  84 1.95  87 1.98 166 1.98  14 2.96  34 2.96

   5  0.046  0.750  0.211-  86 1.95  87 1.95 106 1.95 107 1.95  88 1.98  35 2.96  15 2.96
   6  0.046  0.625  0.341-  88 1.95 148 1.95  89 1.95 149 1.95  90 1.98  91 1.98  16 2.96  36 2.96

   7  0.796  0.750  0.341-  90 1.95 110 1.95 171 1.95 191 1.95  92 1.98  85 1.98  17 2.96  37 2.96

   8  0.796  0.625  0.471-  92 1.95  93 1.95 152 1.95 153 1.95  95 1.98 174 1.98  18 2.96  38 2.96

   9  0.046  0.750  0.471-  94 1.95  95 1.95 114 1.95 115 1.95  89 1.98  96 2.00  19 2.96  39 2.96

  10  0.054  0.625  0.598-  99 1.87 156 1.90  96 1.90  97 2.02 157 2.02  98 2.03  20 2.96  40 2.96

  11  0.803  0.750  0.606- 100 1.87  98 1.93 118 1.93 179 2.01 199 2.01  93 2.10  21 2.96  41 2.96

  12  0.798  0.626  0.739- 101 1.83 161 1.86 182 2.01 103 2.02 100 2.08 160 2.09  22 2.95  42 2.98

  13  0.047  0.750  0.725-  97 1.81 122 1.94 123 1.94 102 1.95 103 1.96  23 2.95  43 2.96
  14  0.796  0.875  0.211-  85 1.95 105 1.95 104 1.95  84 1.95 107 1.98 186 1.98   4 2.96  24 2.96

  15  0.046  0.000  0.211- 106 1.95 107 1.95 126 1.95 127 1.95 108 1.98  25 2.96   5 2.96
  16  0.046  0.875  0.341-  88 1.95 108 1.95  89 1.95 109 1.95 110 1.98 111 1.98   6 2.96  26 2.96

  17  0.796  0.000  0.341- 110 1.95 130 1.95 191 1.95 211 1.95 112 1.98 105 1.98   7 2.96  27 2.96

  18  0.796  0.875  0.471-  92 1.95  93 1.95 112 1.95 113 1.95 115 1.98 194 1.98   8 2.96  28 2.96

  19  0.046  0.000  0.471- 114 1.95 115 1.95 134 1.95 135 1.95 109 1.98 116 2.00   9 2.96  29 2.96

  20  0.054  0.875  0.598- 119 1.87  96 1.90 116 1.90 117 2.02  97 2.02 118 2.04  30 2.96  10 2.96

  21  0.802  1.000  0.606- 120 1.87 118 1.93 138 1.93 219 2.01 199 2.01 113 2.10  11 2.96  31 2.96

  22  0.797  0.875  0.740- 121 1.84 101 1.84 202 2.02 123 2.04 100 2.09 120 2.10  12 2.95  32 2.95

  23  0.047  1.000  0.725- 117 1.81 123 1.95 143 1.95 142 1.95 122 1.95  33 2.95  13 2.95
  24  0.796  0.125  0.211- 105 1.95 125 1.95 124 1.95 104 1.95 127 1.98 206 1.98  14 2.96  34 2.96

  25  0.046  0.250  0.211- 126 1.95 127 1.95 146 1.95 147 1.95 128 1.98  35 2.96  15 2.96
  26  0.046  0.125  0.341- 108 1.95 128 1.95 109 1.95 129 1.95 130 1.98 131 1.98  16 2.96  36 2.96

  27  0.796  0.250  0.341- 130 1.95 150 1.95 211 1.95 231 1.95 132 1.98 125 1.98  17 2.96  37 2.96

  28  0.796  0.125  0.471- 112 1.95 113 1.95 132 1.95 133 1.95 135 1.98 214 1.98  18 2.96  38 2.96

  29  0.046  0.250  0.471- 134 1.95 135 1.95 154 1.95 155 1.95 129 1.98 136 2.00  19 2.96  39 2.96

  30  0.054  0.125  0.598- 139 1.87 136 1.90 116 1.90 117 2.02 137 2.02 138 2.04  20 2.96  40 2.96

  31  0.803  0.250  0.606- 140 1.87 158 1.93 138 1.93 219 2.01 239 2.02 133 2.10  21 2.96  41 2.96

  32  0.797  0.124  0.740- 121 1.83 141 1.84 222 2.02 143 2.04 120 2.09 140 2.10  42 2.95  22 2.95

  33  0.047  0.250  0.725- 137 1.81 142 1.94 143 1.94 162 1.95 163 1.96  23 2.95  43 2.96
  34  0.796  0.375  0.211- 125 1.95 145 1.95 144 1.95 124 1.95 147 1.98 226 1.98   4 2.96  24 2.96

  35  0.046  0.500  0.211-  86 1.95  87 1.95 146 1.95 147 1.95 148 1.98  25 2.96   5 2.96
  36  0.046  0.375  0.341- 128 1.95 148 1.95 129 1.95 149 1.95 150 1.98 151 1.98   6 2.96  26 2.96

  37  0.796  0.500  0.341-  90 1.95 150 1.95 171 1.95 231 1.95 145 1.98 152 1.98   7 2.96  27 2.96

  38  0.796  0.375  0.471- 132 1.95 133 1.95 152 1.95 153 1.95 155 1.98 234 1.98   8 2.96  28 2.96

  39  0.046  0.500  0.471-  94 1.95  95 1.95 154 1.95 155 1.95 149 1.98 156 2.00   9 2.96  29 2.96

  40  0.054  0.375  0.598- 159 1.87 156 1.90 136 1.90 137 2.02 157 2.02 158 2.03  30 2.96  10 2.96

  41  0.803  0.500  0.606- 160 1.86 158 1.93  98 1.93 239 2.02 179 2.02 153 2.10  11 2.96  31 2.96

  42  0.799  0.373  0.739- 141 1.83 161 1.87 163 2.01 242 2.02 140 2.07 160 2.10  32 2.95  12 2.98

  43  0.048  0.500  0.725- 157 1.81 102 1.94 162 1.94 103 1.95 163 1.95  13 2.96  33 2.96
  44  0.296  0.625  0.211- 165 1.95 225 1.95 224 1.95 164 1.95  86 1.98 167 1.98  54 2.96  74 2.96

  45  0.546  0.750  0.211- 166 1.95 167 1.95 186 1.95 187 1.95 168 1.98  75 2.96  55 2.96
  46  0.546  0.625  0.341- 168 1.95 228 1.95 169 1.95 229 1.95 170 1.98 171 1.98  56 2.96  76 2.96

  47  0.296  0.750  0.341-  91 1.95 111 1.95 170 1.95 190 1.95 172 1.98 165 1.98  57 2.96  77 2.96

  48  0.296  0.625  0.471- 172 1.95 173 1.95 232 1.95 233 1.95  94 1.98 175 1.98  58 2.96  78 2.96

  49  0.546  0.750  0.471- 174 1.95 175 1.95 194 1.95 195 1.95 169 1.98 176 1.99  59 2.96  79 2.96

  50  0.554  0.623  0.600- 179 1.87 236 1.90 176 1.93 237 1.99 177 2.01 178 2.04  80 2.91  60 2.97

  51  0.303  0.750  0.606- 180 1.87 178 1.92 198 1.93  99 2.02 119 2.02 173 2.10  81 2.96  61 2.96

  52  0.298  0.625  0.740- 181 1.83 241 1.84 102 2.03 183 2.04 180 2.09 240 2.09  62 2.96  82 2.96

  53  0.548  0.750  0.724- 177 1.80 182 1.91 202 1.94 183 1.95 203 1.96  63 2.96  83 2.97
  54  0.296  0.875  0.211- 165 1.95 185 1.95 184 1.95 164 1.95 106 1.98 187 1.98  44 2.96  64 2.96

  55  0.546  0.000  0.211- 186 1.95 187 1.95 206 1.95 207 1.95 188 1.98  65 2.96  45 2.96
  56  0.546  0.875  0.341- 168 1.95 188 1.95 169 1.95 189 1.95 190 1.98 191 1.98  46 2.96  66 2.96

  57  0.296  0.000  0.341- 111 1.95 131 1.95 190 1.95 210 1.95 192 1.98 185 1.98  47 2.96  67 2.96

  58  0.296  0.875  0.471- 172 1.95 173 1.95 192 1.95 193 1.95 114 1.98 195 1.98  48 2.96  68 2.96

  59  0.546  0.000  0.471- 194 1.95 195 1.95 214 1.95 215 1.95 189 1.98 196 1.98  49 2.96  69 2.96

  60  0.554  0.874  0.597- 199 1.88 176 1.88 196 1.90 177 2.00 197 2.03 198 2.04  50 2.97  70 2.98

  61  0.303  1.000  0.606- 200 1.86 198 1.92 218 1.92 139 2.02 119 2.02 193 2.11  71 2.96  51 2.96

  62  0.298  0.875  0.740- 201 1.83 181 1.84 203 2.02 122 2.04 200 2.10 180 2.10  72 2.96  52 2.96

  63  0.547  1.000  0.724- 197 1.80 203 1.94 223 1.94 222 1.95 202 1.96  73 2.95  53 2.96
  64  0.296  0.125  0.211- 185 1.95 205 1.95 204 1.95 184 1.95 126 1.98 207 1.98  54 2.96  74 2.96

  65  0.546  0.250  0.211- 206 1.95 207 1.95 226 1.95 227 1.95 208 1.98  75 2.96  55 2.96
  66  0.546  0.125  0.341- 188 1.95 208 1.95 189 1.95 209 1.95 210 1.98 211 1.98  56 2.96  76 2.96

  67  0.296  0.250  0.341- 131 1.95 151 1.95 210 1.95 230 1.95 212 1.98 205 1.98  57 2.96  77 2.96

  68  0.296  0.125  0.471- 192 1.95 193 1.95 212 1.95 213 1.95 134 1.98 215 1.98  58 2.96  78 2.96

  69  0.546  0.250  0.471- 214 1.95 215 1.95 234 1.95 235 1.95 209 1.98 216 1.99  59 2.96  79 2.96

  70  0.554  0.126  0.597- 219 1.88 216 1.88 196 1.90 217 2.00 197 2.03 218 2.04  80 2.97  60 2.98

  71  0.303  0.250  0.606- 220 1.86 238 1.92 218 1.93 159 2.02 139 2.02 213 2.11  81 2.96  61 2.96

  72  0.298  0.125  0.740- 201 1.83 221 1.84 223 2.02 142 2.04 200 2.10 220 2.10  62 2.96  82 2.96

  73  0.548  0.250  0.724- 217 1.80 242 1.92 243 1.94 222 1.95 223 1.96  63 2.95  83 2.96
  74  0.296  0.375  0.211- 205 1.95 225 1.95 224 1.95 204 1.95 146 1.98 227 1.98  44 2.96  64 2.96

  75  0.546  0.500  0.211- 166 1.95 167 1.95 226 1.95 227 1.95 228 1.98  65 2.96  45 2.96
  76  0.546  0.375  0.341- 208 1.95 228 1.95 209 1.95 229 1.95 230 1.98 231 1.98  46 2.96  66 2.96

  77  0.296  0.500  0.341-  91 1.95 151 1.95 170 1.95 230 1.95 225 1.98 232 1.98  47 2.96  67 2.96

  78  0.296  0.375  0.471- 212 1.95 213 1.95 232 1.95 233 1.95 154 1.98 235 1.98  48 2.96  68 2.96

  79  0.546  0.500  0.471- 174 1.95 175 1.95 234 1.95 235 1.95 229 1.98 236 2.00  49 2.96  69 2.96

  80  0.554  0.377  0.600- 239 1.87 236 1.90 216 1.93 237 1.99 217 2.01 238 2.04  50 2.91  70 2.97

  81  0.302  0.500  0.606- 240 1.86 178 1.92 238 1.93 159 2.02  99 2.02 233 2.11  51 2.96  71 2.96

  82  0.298  0.375  0.740- 221 1.83 241 1.84 162 2.03 243 2.03 220 2.10 240 2.10  72 2.96  52 2.96

  83  0.548  0.499  0.729- 237 1.89 243 1.93 183 1.94 242 1.96 182 1.98   3 2.23  73 2.96  53 2.97

  84  0.796  0.750  0.160-   4 1.95  14 1.95
  85  0.796  0.750  0.262-   4 1.95  14 1.95   7 1.98
  86  0.144  0.625  0.211-   5 1.95  35 1.95  44 1.98
  87  0.948  0.625  0.211-   5 1.95  35 1.95   4 1.98
  88  0.046  0.750  0.290-   6 1.95  16 1.95   5 1.98
  89  0.046  0.750  0.392-   6 1.95  16 1.95   9 1.98
  90  0.894  0.625  0.341-   7 1.95  37 1.95   6 1.98
  91  0.198  0.625  0.341-  47 1.95  77 1.95   6 1.98
  92  0.796  0.750  0.420-   8 1.95  18 1.95   7 1.98
  93  0.796  0.750  0.522-   8 1.95  18 1.95  11 2.10
  94  0.144  0.625  0.471-   9 1.95  39 1.95  48 1.98
  95  0.948  0.625  0.471-   9 1.95  39 1.95   8 1.98
  96  0.047  0.750  0.551-  20 1.90  10 1.90   9 2.00
  97  0.047  0.750  0.653-  13 1.81  10 2.02  20 2.02
  98  0.898  0.625  0.601-  11 1.93  41 1.93  10 2.03
  99  0.197  0.625  0.602-  10 1.87  51 2.02  81 2.02
 100  0.801  0.751  0.680-  11 1.87  12 2.08  22 2.09
 101  0.796  0.749  0.783-  12 1.83  22 1.84
 102  0.142  0.625  0.738-  43 1.94  13 1.95  52 2.03
 103  0.954  0.624  0.740-  43 1.95  13 1.96  12 2.02
 104  0.796  0.000  0.160-  14 1.95  24 1.95
 105  0.796  0.000  0.262-  14 1.95  24 1.95  17 1.98
 106  0.144  0.875  0.211-   5 1.95  15 1.95  54 1.98
 107  0.948  0.875  0.211-   5 1.95  15 1.95  14 1.98
 108  0.046  0.000  0.290-  16 1.95  26 1.95  15 1.98
 109  0.046  0.000  0.392-  16 1.95  26 1.95  19 1.98
 110  0.894  0.875  0.341-   7 1.95  17 1.95  16 1.98
 111  0.198  0.875  0.341-  47 1.95  57 1.95  16 1.98
 112  0.796  0.000  0.420-  18 1.95  28 1.95  17 1.98
 113  0.796  0.000  0.522-  18 1.95  28 1.95  21 2.10
 114  0.144  0.875  0.471-   9 1.95  19 1.95  58 1.98
 115  0.948  0.875  0.471-   9 1.95  19 1.95  18 1.98
 116  0.047  1.000  0.551-  30 1.90  20 1.90  19 2.00
 117  0.047  1.000  0.653-  23 1.81  20 2.02  30 2.02
 118  0.897  0.875  0.602-  21 1.93  11 1.93  20 2.04
 119  0.197  0.875  0.602-  20 1.87  51 2.02  61 2.02
 120  0.798  1.000  0.681-  21 1.87  32 2.09  22 2.10
 121  0.797  1.000  0.784-  32 1.83  22 1.84
 122  0.142  0.875  0.738-  13 1.94  23 1.95  62 2.04
 123  0.954  0.875  0.739-  13 1.94  23 1.95  22 2.04
 124  0.796  0.250  0.160-  24 1.95  34 1.95
 125  0.796  0.250  0.262-  24 1.95  34 1.95  27 1.98
 126  0.144  0.125  0.211-  15 1.95  25 1.95  64 1.98
 127  0.948  0.125  0.211-  15 1.95  25 1.95  24 1.98
 128  0.046  0.250  0.290-  26 1.95  36 1.95  25 1.98
 129  0.046  0.250  0.392-  26 1.95  36 1.95  29 1.98
 130  0.894  0.125  0.341-  17 1.95  27 1.95  26 1.98
 131  0.198  0.125  0.341-  57 1.95  67 1.95  26 1.98
 132  0.796  0.250  0.420-  28 1.95  38 1.95  27 1.98
 133  0.796  0.250  0.522-  28 1.95  38 1.95  31 2.10
 134  0.144  0.125  0.471-  19 1.95  29 1.95  68 1.98
 135  0.948  0.125  0.471-  19 1.95  29 1.95  28 1.98
 136  0.047  0.250  0.551-  40 1.90  30 1.90  29 2.00
 137  0.047  0.250  0.653-  33 1.81  40 2.02  30 2.02
 138  0.897  0.125  0.602-  21 1.93  31 1.93  30 2.04
 139  0.197  0.125  0.602-  30 1.87  61 2.02  71 2.02
 140  0.800  0.250  0.680-  31 1.87  42 2.07  32 2.10
 141  0.796  0.251  0.783-  42 1.83  32 1.84
 142  0.142  0.125  0.738-  33 1.94  23 1.95  72 2.04
 143  0.953  0.125  0.739-  33 1.94  23 1.95  32 2.04
 144  0.796  0.500  0.160-   4 1.95  34 1.95
 145  0.796  0.500  0.262-   4 1.95  34 1.95  37 1.98
 146  0.144  0.375  0.211-  25 1.95  35 1.95  74 1.98
 147  0.948  0.375  0.211-  25 1.95  35 1.95  34 1.98
 148  0.046  0.500  0.290-   6 1.95  36 1.95  35 1.98
 149  0.046  0.500  0.392-   6 1.95  36 1.95  39 1.98
 150  0.894  0.375  0.341-  27 1.95  37 1.95  36 1.98
 151  0.198  0.375  0.341-  67 1.95  77 1.95  36 1.98
 152  0.796  0.500  0.420-   8 1.95  38 1.95  37 1.98
 153  0.796  0.500  0.522-   8 1.95  38 1.95  41 2.10
 154  0.144  0.375  0.471-  29 1.95  39 1.95  78 1.98
 155  0.948  0.375  0.471-  29 1.95  39 1.95  38 1.98
 156  0.047  0.500  0.551-  40 1.90  10 1.90  39 2.00
 157  0.047  0.500  0.653-  43 1.81  40 2.02  10 2.02
 158  0.898  0.375  0.601-  31 1.93  41 1.93  40 2.03
 159  0.197  0.375  0.602-  40 1.87  81 2.02  71 2.02
 160  0.803  0.500  0.680-  41 1.86  12 2.09  42 2.10
 161  0.787  0.500  0.783-  12 1.86  42 1.87
 162  0.142  0.375  0.738-  43 1.94  33 1.95  82 2.03
 163  0.954  0.376  0.739-  43 1.95  33 1.96  42 2.01
 164  0.296  0.750  0.160-  44 1.95  54 1.95
 165  0.296  0.750  0.262-  44 1.95  54 1.95  47 1.98
 166  0.644  0.625  0.211-  45 1.95  75 1.95   4 1.98
 167  0.448  0.625  0.211-  45 1.95  75 1.95  44 1.98
 168  0.546  0.750  0.290-  46 1.95  56 1.95  45 1.98
 169  0.546  0.750  0.392-  46 1.95  56 1.95  49 1.98
 170  0.394  0.625  0.341-  47 1.95  77 1.95  46 1.98
 171  0.698  0.625  0.341-   7 1.95  37 1.95  46 1.98
 172  0.296  0.750  0.420-  48 1.95  58 1.95  47 1.98
 173  0.296  0.750  0.522-  48 1.95  58 1.95  51 2.10
 174  0.644  0.625  0.471-  49 1.95  79 1.95   8 1.98
 175  0.448  0.625  0.471-  49 1.95  79 1.95  48 1.98
 176  0.547  0.749  0.551-  60 1.88  50 1.93  49 1.99
 177  0.545  0.751  0.652-  53 1.80  60 2.00  50 2.01
 178  0.397  0.625  0.602-  51 1.92  81 1.92  50 2.04
 179  0.698  0.625  0.602-  50 1.87  11 2.01  41 2.02
 180  0.299  0.750  0.681-  51 1.87  52 2.09  62 2.10
 181  0.298  0.750  0.784-  52 1.83  62 1.84
 182  0.644  0.629  0.733-  53 1.91  83 1.98  12 2.01
 183  0.455  0.626  0.740-  83 1.94  53 1.95  52 2.04
 184  0.296  0.000  0.160-  54 1.95  64 1.95
 185  0.296  0.000  0.262-  54 1.95  64 1.95  57 1.98
 186  0.644  0.875  0.211-  45 1.95  55 1.95  14 1.98
 187  0.448  0.875  0.211-  45 1.95  55 1.95  54 1.98
 188  0.546  0.000  0.290-  56 1.95  66 1.95  55 1.98
 189  0.546  0.000  0.392-  56 1.95  66 1.95  59 1.98
 190  0.394  0.875  0.341-  47 1.95  57 1.95  56 1.98
 191  0.698  0.875  0.341-   7 1.95  17 1.95  56 1.98
 192  0.296  0.000  0.420-  58 1.95  68 1.95  57 1.98
 193  0.296  0.000  0.522-  58 1.95  68 1.95  61 2.11
 194  0.644  0.875  0.471-  49 1.95  59 1.95  18 1.98
 195  0.448  0.875  0.471-  49 1.95  59 1.95  58 1.98
 196  0.547  1.000  0.550-  60 1.90  70 1.90  59 1.98
 197  0.547  1.000  0.652-  63 1.80  60 2.03  70 2.03
 198  0.397  0.875  0.601-  61 1.92  51 1.93  60 2.04
 199  0.698  0.875  0.602-  60 1.88  11 2.01  21 2.01
 200  0.298  1.000  0.681-  61 1.86  72 2.10  62 2.10
 201  0.297  1.000  0.784-  62 1.83  72 1.83
 202  0.642  0.875  0.737-  53 1.94  63 1.96  22 2.02
 203  0.453  0.876  0.738-  63 1.94  53 1.96  62 2.02
 204  0.296  0.250  0.160-  64 1.95  74 1.95
 205  0.296  0.250  0.262-  64 1.95  74 1.95  67 1.98
 206  0.644  0.125  0.211-  55 1.95  65 1.95  24 1.98
 207  0.448  0.125  0.211-  55 1.95  65 1.95  64 1.98
 208  0.546  0.250  0.290-  66 1.95  76 1.95  65 1.98
 209  0.546  0.250  0.392-  66 1.95  76 1.95  69 1.98
 210  0.394  0.125  0.341-  57 1.95  67 1.95  66 1.98
 211  0.698  0.125  0.341-  17 1.95  27 1.95  66 1.98
 212  0.296  0.250  0.420-  68 1.95  78 1.95  67 1.98
 213  0.296  0.250  0.522-  68 1.95  78 1.95  71 2.11
 214  0.644  0.125  0.471-  59 1.95  69 1.95  28 1.98
 215  0.448  0.125  0.471-  59 1.95  69 1.95  68 1.98
 216  0.547  0.251  0.551-  70 1.88  80 1.93  69 1.99
 217  0.546  0.248  0.652-  73 1.80  70 2.00  80 2.01
 218  0.397  0.125  0.601-  61 1.92  71 1.93  70 2.04
 219  0.698  0.125  0.602-  70 1.88  31 2.01  21 2.01
 220  0.298  0.250  0.681-  71 1.86  82 2.10  72 2.10
 221  0.298  0.250  0.783-  82 1.83  72 1.84
 222  0.642  0.125  0.737-  73 1.95  63 1.95  32 2.02
 223  0.453  0.124  0.738-  63 1.94  73 1.96  72 2.02
 224  0.296  0.500  0.160-  44 1.95  74 1.95
 225  0.296  0.500  0.262-  44 1.95  74 1.95  77 1.98
 226  0.644  0.375  0.211-  65 1.95  75 1.95  34 1.98
 227  0.448  0.375  0.211-  65 1.95  75 1.95  74 1.98
 228  0.546  0.500  0.290-  46 1.95  76 1.95  75 1.98
 229  0.546  0.500  0.392-  46 1.95  76 1.95  79 1.98
 230  0.394  0.375  0.341-  67 1.95  77 1.95  76 1.98
 231  0.698  0.375  0.341-  27 1.95  37 1.95  76 1.98
 232  0.296  0.500  0.420-  48 1.95  78 1.95  77 1.98
 233  0.296  0.500  0.522-  48 1.95  78 1.95  81 2.11
 234  0.644  0.375  0.471-  69 1.95  79 1.95  38 1.98
 235  0.448  0.375  0.471-  69 1.95  79 1.95  78 1.98
 236  0.548  0.500  0.551-  50 1.90  80 1.90  79 2.00
 237  0.546  0.500  0.654-  83 1.89  50 1.99  80 1.99
 238  0.397  0.375  0.602-  71 1.92  81 1.93  80 2.04
 239  0.698  0.375  0.603-  80 1.87  31 2.02  41 2.02
 240  0.298  0.500  0.681-  81 1.86  52 2.09  82 2.10
 241  0.299  0.500  0.784-  82 1.84  52 1.84
 242  0.644  0.372  0.733-  73 1.92  83 1.96  42 2.02
 243  0.454  0.374  0.737-  83 1.93  73 1.94  82 2.03
 

IMPORTANT INFORMATION: All symmetrisations will be switched off!
NOSYMM: (Re-)initialisation of all symmetry stuff for point group C_1.


----------------------------------------------------------------------------------------

                                     Primitive cell                                     

  volume of cell :    3846.0501

  direct lattice vectors                    reciprocal lattice vectors
    13.003980404  0.000000000  0.000000000     0.076899531  0.000000000  0.000000000
     0.000000000 11.830378115  0.000000000     0.000000000  0.084528152  0.000000000
     0.000000000  0.000000000 25.000000000     0.000000000  0.000000000  0.040000000

  length of vectors
    13.003980404 11.830378115 25.000000000     0.076899531  0.084528152  0.040000000

  position of ions in fractional coordinates (direct lattice)
     0.557344291  0.549757631  0.840085132
     0.660249560  0.496094975  0.817011996
     0.583830190  0.491132145  0.816593541
     0.796469805  0.625012682  0.210890236
     0.046469805  0.750012682  0.210890236
     0.046469805  0.625012682  0.340930040
     0.796469805  0.750012682  0.340930040
     0.796469805  0.625012682  0.470969844
     0.046469805  0.750012682  0.470969844
     0.053623656  0.625026990  0.598131909
     0.802773807  0.750088464  0.605722728
     0.798114496  0.625575600  0.738920944
     0.047264667  0.750185234  0.725389851
     0.796469805  0.875012682  0.210890236
     0.046469805  0.000012682  0.210890236
     0.046469805  0.875012682  0.340930040
     0.796469805  0.000012682  0.340930040
     0.796469805  0.875012682  0.470969844
     0.046469805  0.000012682  0.470969844
     0.053747774  0.875000886  0.598216515
     0.802293775  0.999949401  0.606062736
     0.797028260  0.874814460  0.740091583
     0.047442171  0.999873346  0.725337059
     0.796469805  0.125012682  0.210890236
     0.046469805  0.250012682  0.210890236
     0.046469805  0.125012682  0.340930040
     0.796469805  0.250012682  0.340930040
     0.796469805  0.125012682  0.470969844
     0.046469805  0.250012682  0.470969844
     0.053768063  0.124930326  0.598191771
     0.802754763  0.249821140  0.605692176
     0.796924074  0.124177669  0.740077984
     0.047361621  0.249559835  0.725368873
     0.796469805  0.375012682  0.210890236
     0.046469805  0.500012682  0.210890236
     0.046469805  0.375012682  0.340930040
     0.796469805  0.500012682  0.340930040
     0.796469805  0.375012682  0.470969844
     0.046469805  0.500012682  0.470969844
     0.053648518  0.374955751  0.598133362
     0.803033051  0.499971001  0.605916512
     0.798652412  0.373387703  0.738962983
     0.048099410  0.500010489  0.725307002
     0.296469805  0.625012682  0.210890236
     0.546469805  0.750012682  0.210890236
     0.546469805  0.625012682  0.340930040
     0.296469805  0.750012682  0.340930040
     0.296469805  0.625012682  0.470969844
     0.546469805  0.750012682  0.470969844
     0.553789888  0.622920794  0.599533192
     0.302783524  0.749876682  0.606056658
     0.297794688  0.625086510  0.740151961
     0.547996109  0.750059170  0.723945844
     0.296469805  0.875012682  0.210890236
     0.546469805  0.000012682  0.210890236
     0.546469805  0.875012682  0.340930040
     0.296469805  0.000012682  0.340930040
     0.296469805  0.875012682  0.470969844
     0.546469805  0.000012682  0.470969844
     0.553557721  0.874100632  0.597032342
     0.302597894  0.999958622  0.606104960
     0.298197932  0.874978298  0.740168140
     0.546757142  0.999874189  0.724189594
     0.296469805  0.125012682  0.210890236
     0.546469805  0.250012682  0.210890236
     0.546469805  0.125012682  0.340930040
     0.296469805  0.250012682  0.340930040
     0.296469805  0.125012682  0.470969844
     0.546469805  0.250012682  0.470969844
     0.553583501  0.125931508  0.597089827
     0.302673853  0.250019907  0.606084908
     0.298075897  0.124824693  0.740107272
     0.547865770  0.249638844  0.724245336
     0.296469805  0.375012682  0.210890236
     0.546469805  0.500012682  0.210890236
     0.546469805  0.375012682  0.340930040
     0.296469805  0.500012682  0.340930040
     0.296469805  0.375012682  0.470969844
     0.546469805  0.500012682  0.470969844
     0.553721370  0.376923307  0.599770162
     0.302443963  0.499999757  0.606203815
     0.297626023  0.374775784  0.740076155
     0.548124865  0.499206312  0.729482142
     0.796469805  0.750012682  0.159914868
     0.796469805  0.750012682  0.261865604
     0.144469353  0.625012682  0.210890236
     0.948470257  0.625012682  0.210890236
     0.046469805  0.750012682  0.289954672
     0.046469805  0.750012682  0.391905408
     0.894469353  0.625012682  0.340930040
     0.198470257  0.625012682  0.340930040
     0.796469805  0.750012682  0.419994476
     0.796469805  0.750012682  0.521945212
     0.144469353  0.625012682  0.470969844
     0.948470257  0.625012682  0.470969844
     0.047326786  0.750104940  0.550814237
     0.046530500  0.749773656  0.653144917
     0.897534781  0.625252665  0.601151005
     0.197163706  0.625149212  0.601899051
     0.800692835  0.750642548  0.680476455
     0.796035227  0.748906924  0.783322378
     0.141839580  0.624989788  0.738226076
     0.953528748  0.624186860  0.739504513
     0.796469805  0.000012682  0.159914868
     0.796469805  0.000012682  0.261865604
     0.144469353  0.875012682  0.210890236
     0.948470257  0.875012682  0.210890236
     0.046469805  0.000012682  0.289954672
     0.046469805  0.000012682  0.391905408
     0.894469353  0.875012682  0.340930040
     0.198470257  0.875012682  0.340930040
     0.796469805  0.000012682  0.419994476
     0.796469805  0.000012682  0.521945212
     0.144469353  0.875012682  0.470969844
     0.948470257  0.875012682  0.470969844
     0.047384483  0.999945827  0.550821463
     0.046849684  0.999968429  0.653097207
     0.897307841  0.875381315  0.601521111
     0.197150966  0.874788612  0.601990398
     0.798169393  0.999970141  0.680802281
     0.797292196  0.999701124  0.783662955
     0.141614062  0.874530673  0.737883904
     0.953530195  0.874888385  0.738864328
     0.796469805  0.250012682  0.159914868
     0.796469805  0.250012682  0.261865604
     0.144469353  0.125012682  0.210890236
     0.948470257  0.125012682  0.210890236
     0.046469805  0.250012682  0.289954672
     0.046469805  0.250012682  0.391905408
     0.894469353  0.125012682  0.340930040
     0.198470257  0.125012682  0.340930040
     0.796469805  0.250012682  0.419994476
     0.796469805  0.250012682  0.521945212
     0.144469353  0.125012682  0.470969844
     0.948470257  0.125012682  0.470969844
     0.047316316  0.249890082  0.550819148
     0.046652007  0.250111347  0.653137883
     0.897291206  0.124638032  0.601554973
     0.197112965  0.124970837  0.601858501
     0.800463773  0.249548015  0.680477759
     0.796175942  0.250555486  0.783236145
     0.141520373  0.125196186  0.738021898
     0.953473374  0.124894739  0.738741357
     0.796469805  0.500012682  0.159914868
     0.796469805  0.500012682  0.261865604
     0.144469353  0.375012682  0.210890236
     0.948470257  0.375012682  0.210890236
     0.046469805  0.500012682  0.289954672
     0.046469805  0.500012682  0.391905408
     0.894469353  0.375012682  0.340930040
     0.198470257  0.375012682  0.340930040
     0.796469805  0.500012682  0.419994476
     0.796469805  0.500012682  0.521945212
     0.144469353  0.375012682  0.470969844
     0.948470257  0.375012682  0.470969844
     0.047398786  0.499980886  0.550798790
     0.046771874  0.499987370  0.653072717
     0.897519564  0.374713383  0.601176254
     0.197174333  0.374974468  0.601872240
     0.802534166  0.500109078  0.680342687
     0.787175108  0.499741562  0.783469805
     0.141748711  0.374902882  0.738161488
     0.953524589  0.375592006  0.739496770
     0.296469805  0.750012682  0.159914868
     0.296469805  0.750012682  0.261865604
     0.644469353  0.625012682  0.210890236
     0.448470257  0.625012682  0.210890236
     0.546469805  0.750012682  0.289954672
     0.546469805  0.750012682  0.391905408
     0.394469353  0.625012682  0.340930040
     0.698470257  0.625012682  0.340930040
     0.296469805  0.750012682  0.419994476
     0.296469805  0.750012682  0.521945212
     0.644469353  0.625012682  0.470969844
     0.448470257  0.625012682  0.470969844
     0.547482443  0.748804287  0.550609344
     0.544919381  0.751236562  0.651981590
     0.396809721  0.624893942  0.601599471
     0.697843425  0.625097317  0.602475264
     0.298651440  0.749593840  0.680697880
     0.297615415  0.749895144  0.783667936
     0.644174863  0.628972730  0.732574542
     0.454901955  0.625658975  0.739554083
     0.296469805  0.000012682  0.159914868
     0.296469805  0.000012682  0.261865604
     0.644469353  0.875012682  0.210890236
     0.448470257  0.875012682  0.210890236
     0.546469805  0.000012682  0.289954672
     0.546469805  0.000012682  0.391905408
     0.394469353  0.875012682  0.340930040
     0.698470257  0.875012682  0.340930040
     0.296469805  0.000012682  0.419994476
     0.296469805  0.000012682  0.521945212
     0.644469353  0.875012682  0.470969844
     0.448470257  0.875012682  0.470969844
     0.547112694  0.999987318  0.550267011
     0.546941168  0.999874764  0.652184920
     0.396907653  0.875144518  0.601322869
     0.697547737  0.874780908  0.601778741
     0.297649196  0.999883340  0.680579788
     0.296913980  0.999911138  0.783567849
     0.641816210  0.874783215  0.737424388
     0.453356571  0.875717333  0.738068037
     0.296469805  0.250012682  0.159914868
     0.296469805  0.250012682  0.261865604
     0.644469353  0.125012682  0.210890236
     0.448470257  0.125012682  0.210890236
     0.546469805  0.250012682  0.289954672
     0.546469805  0.250012682  0.391905408
     0.394469353  0.125012682  0.340930040
     0.698470257  0.125012682  0.340930040
     0.296469805  0.250012682  0.419994476
     0.296469805  0.250012682  0.521945212
     0.644469353  0.125012682  0.470969844
     0.448470257  0.125012682  0.470969844
     0.547440416  0.251305430  0.550704715
     0.545607210  0.248312768  0.652160436
     0.396934124  0.124829029  0.601395782
     0.697601109  0.125124457  0.601726933
     0.297557621  0.249831424  0.680567350
     0.297850067  0.250034246  0.783492015
     0.641849080  0.124620556  0.737411916
     0.453270708  0.124128584  0.737886500
     0.296469805  0.500012682  0.159914868
     0.296469805  0.500012682  0.261865604
     0.644469353  0.375012682  0.210890236
     0.448470257  0.375012682  0.210890236
     0.546469805  0.500012682  0.289954672
     0.546469805  0.500012682  0.391905408
     0.394469353  0.375012682  0.340930040
     0.698470257  0.375012682  0.340930040
     0.296469805  0.500012682  0.419994476
     0.296469805  0.500012682  0.521945212
     0.644469353  0.375012682  0.470969844
     0.448470257  0.375012682  0.470969844
     0.547587190  0.499791526  0.551058290
     0.546182982  0.500399425  0.653786666
     0.396861682  0.375007442  0.601867252
     0.697795746  0.375003800  0.602561805
     0.297652105  0.500392716  0.680704424
     0.298820498  0.499848928  0.783548042
     0.643989967  0.371507167  0.732558045
     0.453805715  0.373893743  0.737234794

  ion indices of the primitive-cell ions
   primitive index   ion index
                 1           1
                 2           2
                 3           3
                 4           4
                 5           5
                 6           6
                 7           7
                 8           8
                 9           9
                10          10
                11          11
                12          12
                13          13
                14          14
                15          15
                16          16
                17          17
                18          18
                19          19
                20          20
                21          21
                22          22
                23          23
                24          24
                25          25
                26          26
                27          27
                28          28
                29          29
                30          30
                31          31
                32          32
                33          33
                34          34
                35          35
                36          36
                37          37
                38          38
                39          39
                40          40
                41          41
                42          42
                43          43
                44          44
                45          45
                46          46
                47          47
                48          48
                49          49
                50          50
                51          51
                52          52
                53          53
                54          54
                55          55
                56          56
                57          57
                58          58
                59          59
                60          60
                61          61
                62          62
                63          63
                64          64
                65          65
                66          66
                67          67
                68          68
                69          69
                70          70
                71          71
                72          72
                73          73
                74          74
                75          75
                76          76
                77          77
                78          78
                79          79
                80          80
                81          81
                82          82
                83          83
                84          84
                85          85
                86          86
                87          87
                88          88
                89          89
                90          90
                91          91
                92          92
                93          93
                94          94
                95          95
                96          96
                97          97
                98          98
                99          99
               100         100
               101         101
               102         102
               103         103
               104         104
               105         105
               106         106
               107         107
               108         108
               109         109
               110         110
               111         111
               112         112
               113         113
               114         114
               115         115
               116         116
               117         117
               118         118
               119         119
               120         120
               121         121
               122         122
               123         123
               124         124
               125         125
               126         126
               127         127
               128         128
               129         129
               130         130
               131         131
               132         132
               133         133
               134         134
               135         135
               136         136
               137         137
               138         138
               139         139
               140         140
               141         141
               142         142
               143         143
               144         144
               145         145
               146         146
               147         147
               148         148
               149         149
               150         150
               151         151
               152         152
               153         153
               154         154
               155         155
               156         156
               157         157
               158         158
               159         159
               160         160
               161         161
               162         162
               163         163
               164         164
               165         165
               166         166
               167         167
               168         168
               169         169
               170         170
               171         171
               172         172
               173         173
               174         174
               175         175
               176         176
               177         177
               178         178
               179         179
               180         180
               181         181
               182         182
               183         183
               184         184
               185         185
               186         186
               187         187
               188         188
               189         189
               190         190
               191         191
               192         192
               193         193
               194         194
               195         195
               196         196
               197         197
               198         198
               199         199
               200         200
               201         201
               202         202
               203         203
               204         204
               205         205
               206         206
               207         207
               208         208
               209         209
               210         210
               211         211
               212         212
               213         213
               214         214
               215         215
               216         216
               217         217
               218         218
               219         219
               220         220
               221         221
               222         222
               223         223
               224         224
               225         225
               226         226
               227         227
               228         228
               229         229
               230         230
               231         231
               232         232
               233         233
               234         234
               235         235
               236         236
               237         237
               238         238
               239         239
               240         240
               241         241
               242         242
               243         243

----------------------------------------------------------------------------------------

 
 
 KPOINTS: pymatgen v2020.8.13 with grid density = 

Automatic generation of k-mesh.
 Grid dimensions read from file:
 generate k-points for:    2    2    1

 Generating k-lattice:

  Cartesian coordinates                     Fractional coordinates (reciprocal lattice)
     0.038449766  0.000000000  0.000000000     0.500000000  0.000000000  0.000000000
     0.000000000  0.042264076  0.000000000     0.000000000  0.500000000  0.000000000
     0.000000000  0.000000000  0.040000000     0.000000000  0.000000000  1.000000000

  Length of vectors
     0.038449766  0.042264076  0.040000000

  Shift w.r.t. Gamma in fractional coordinates (k-lattice)
     0.000000000  0.000000000  0.000000000

 
 Subroutine IBZKPT returns following result:
 ===========================================
 
 Found      4 irreducible k-points:
 
 Following reciprocal coordinates:
            Coordinates               Weight
  0.000000  0.000000  0.000000      1.000000
  0.500000  0.000000  0.000000      1.000000
  0.000000  0.500000  0.000000      1.000000
  0.500000  0.500000  0.000000      1.000000
 
 Following cartesian coordinates:
            Coordinates               Weight
  0.000000  0.000000  0.000000      1.000000
  0.038450  0.000000  0.000000      1.000000
  0.000000  0.042264  0.000000      1.000000
  0.038450  0.042264  0.000000      1.000000
 
 
 Subroutine IBZKPT_HF returns following result:
 ==============================================
 
 Found      4 k-points in 1st BZ
 the following      4 k-points will be used (e.g. in the exchange kernel)
 Following reciprocal coordinates:   # in IRBZ
  0.000000  0.000000  0.000000    0.25000000   1 t-inv F
  0.500000  0.000000  0.000000    0.25000000   2 t-inv F
  0.000000  0.500000  0.000000    0.25000000   3 t-inv F
  0.500000  0.500000  0.000000    0.25000000   4 t-inv F


--------------------------------------------------------------------------------------------------------




 Dimension of arrays:
   k-points           NKPTS =      4   k-points in BZ     NKDIM =      4   number of bands    NBANDS=   1060
   number of dos      NEDOS =    301   number of ions     NIONS =    243
   non local maximal  LDIM  =      6   non local SUM 2l+1 LMDIM =     18
   total plane-waves  NPLWV = 784000
   max r-space proj   IRMAX =   2630   max aug-charges    IRDMAX=   8113
   dimension x,y,z NGX =    80 NGY =   70 NGZ =  140
   dimension x,y,z NGXF=   160 NGYF=  140 NGZF=  280
   support grid    NGXF=   160 NGYF=  140 NGZF=  280
   ions per type =               2   1  80 160
   NGX,Y,Z   is equivalent  to a cutoff of  10.23,  9.84,  9.31 a.u.
   NGXF,Y,Z  is equivalent  to a cutoff of  20.45, 19.67, 18.62 a.u.

 SYSTEM =  Oxide-Surface                           
 POSCAR =   H  O Ti  O                             

    13.003980404 11.830378115 25.000000000     0.076899531  0.084528152  0.040000000


 
 old parameters found on file WAVECAR:
  energy-cutoff  :      520.00
  volume of cell :     3846.05
      direct lattice vectors                 reciprocal lattice vectors
    13.003980404  0.000000000  0.000000000     0.076899531  0.000000000  0.000000000
     0.000000000 11.830378115  0.000000000     0.000000000  0.084528152  0.000000000
     0.000000000  0.000000000 25.000000000     0.000000000  0.000000000  0.040000000

  length of vectors

 
 k-points in units of 2pi/SCALE and weight: pymatgen v2020.8.13 with grid density = 
   0.00000000  0.00000000  0.00000000       0.250
   0.03844977  0.00000000  0.00000000       0.250
   0.00000000  0.04226408  0.00000000       0.250
   0.03844977  0.04226408  0.00000000       0.250
 
 k-points in reciprocal lattice and weights: pymatgen v2020.8.13 with grid density = 
   0.00000000  0.00000000  0.00000000       0.250
   0.50000000  0.00000000  0.00000000       0.250
   0.00000000  0.50000000  0.00000000       0.250
   0.50000000  0.50000000  0.00000000       0.250
 
 position of ions in fractional coordinates (direct lattice) 
   0.55734429  0.54975763  0.84008513
   0.66024956  0.49609497  0.81701200
   0.58383019  0.49113215  0.81659354
   0.79646980  0.62501268  0.21089024
   0.04646980  0.75001268  0.21089024
   0.04646980  0.62501268  0.34093004
   0.79646980  0.75001268  0.34093004
   0.79646980  0.62501268  0.47096984
   0.04646980  0.75001268  0.47096984
   0.05362366  0.62502699  0.59813191
   0.80277381  0.75008846  0.60572273
   0.79811450  0.62557560  0.73892094
   0.04726467  0.75018523  0.72538985
   0.79646980  0.87501268  0.21089024
   0.04646980  0.00001268  0.21089024
   0.04646980  0.87501268  0.34093004
   0.79646980  0.00001268  0.34093004
   0.79646980  0.87501268  0.47096984
   0.04646980  0.00001268  0.47096984
   0.05374777  0.87500089  0.59821651
   0.80229377  0.99994940  0.60606274
   0.79702826  0.87481446  0.74009158
   0.04744217  0.99987335  0.72533706
   0.79646980  0.12501268  0.21089024
   0.04646980  0.25001268  0.21089024
   0.04646980  0.12501268  0.34093004
   0.79646980  0.25001268  0.34093004
   0.79646980  0.12501268  0.47096984
   0.04646980  0.25001268  0.47096984
   0.05376806  0.12493033  0.59819177
   0.80275476  0.24982114  0.60569218
   0.79692407  0.12417767  0.74007798
   0.04736162  0.24955983  0.72536887
   0.79646980  0.37501268  0.21089024
   0.04646980  0.50001268  0.21089024
   0.04646980  0.37501268  0.34093004
   0.79646980  0.50001268  0.34093004
   0.79646980  0.37501268  0.47096984
   0.04646980  0.50001268  0.47096984
   0.05364852  0.37495575  0.59813336
   0.80303305  0.49997100  0.60591651
   0.79865241  0.37338770  0.73896298
   0.04809941  0.50001049  0.72530700
   0.29646980  0.62501268  0.21089024
   0.54646980  0.75001268  0.21089024
   0.54646980  0.62501268  0.34093004
   0.29646980  0.75001268  0.34093004
   0.29646980  0.62501268  0.47096984
   0.54646980  0.75001268  0.47096984
   0.55378989  0.62292079  0.59953319
   0.30278352  0.74987668  0.60605666
   0.29779469  0.62508651  0.74015196
   0.54799611  0.75005917  0.72394584
   0.29646980  0.87501268  0.21089024
   0.54646980  0.00001268  0.21089024
   0.54646980  0.87501268  0.34093004
   0.29646980  0.00001268  0.34093004
   0.29646980  0.87501268  0.47096984
   0.54646980  0.00001268  0.47096984
   0.55355772  0.87410063  0.59703234
   0.30259789  0.99995862  0.60610496
   0.29819793  0.87497830  0.74016814
   0.54675714  0.99987419  0.72418959
   0.29646980  0.12501268  0.21089024
   0.54646980  0.25001268  0.21089024
   0.54646980  0.12501268  0.34093004
   0.29646980  0.25001268  0.34093004
   0.29646980  0.12501268  0.47096984
   0.54646980  0.25001268  0.47096984
   0.55358350  0.12593151  0.59708983
   0.30267385  0.25001991  0.60608491
   0.29807590  0.12482469  0.74010727
   0.54786577  0.24963884  0.72424534
   0.29646980  0.37501268  0.21089024
   0.54646980  0.50001268  0.21089024
   0.54646980  0.37501268  0.34093004
   0.29646980  0.50001268  0.34093004
   0.29646980  0.37501268  0.47096984
   0.54646980  0.50001268  0.47096984
   0.55372137  0.37692331  0.59977016
   0.30244396  0.49999976  0.60620381
   0.29762602  0.37477578  0.74007615
   0.54812487  0.49920631  0.72948214
   0.79646980  0.75001268  0.15991487
   0.79646980  0.75001268  0.26186560
   0.14446935  0.62501268  0.21089024
   0.94847026  0.62501268  0.21089024
   0.04646980  0.75001268  0.28995467
   0.04646980  0.75001268  0.39190541
   0.89446935  0.62501268  0.34093004
   0.19847026  0.62501268  0.34093004
   0.79646980  0.75001268  0.41999448
   0.79646980  0.75001268  0.52194521
   0.14446935  0.62501268  0.47096984
   0.94847026  0.62501268  0.47096984
   0.04732679  0.75010494  0.55081424
   0.04653050  0.74977366  0.65314492
   0.89753478  0.62525266  0.60115101
   0.19716371  0.62514921  0.60189905
   0.80069284  0.75064255  0.68047645
   0.79603523  0.74890692  0.78332238
   0.14183958  0.62498979  0.73822608
   0.95352875  0.62418686  0.73950451
   0.79646980  0.00001268  0.15991487
   0.79646980  0.00001268  0.26186560
   0.14446935  0.87501268  0.21089024
   0.94847026  0.87501268  0.21089024
   0.04646980  0.00001268  0.28995467
   0.04646980  0.00001268  0.39190541
   0.89446935  0.87501268  0.34093004
   0.19847026  0.87501268  0.34093004
   0.79646980  0.00001268  0.41999448
   0.79646980  0.00001268  0.52194521
   0.14446935  0.87501268  0.47096984
   0.94847026  0.87501268  0.47096984
   0.04738448  0.99994583  0.55082146
   0.04684968  0.99996843  0.65309721
   0.89730784  0.87538131  0.60152111
   0.19715097  0.87478861  0.60199040
   0.79816939  0.99997014  0.68080228
   0.79729220  0.99970112  0.78366296
   0.14161406  0.87453067  0.73788390
   0.95353020  0.87488839  0.73886433
   0.79646980  0.25001268  0.15991487
   0.79646980  0.25001268  0.26186560
   0.14446935  0.12501268  0.21089024
   0.94847026  0.12501268  0.21089024
   0.04646980  0.25001268  0.28995467
   0.04646980  0.25001268  0.39190541
   0.89446935  0.12501268  0.34093004
   0.19847026  0.12501268  0.34093004
   0.79646980  0.25001268  0.41999448
   0.79646980  0.25001268  0.52194521
   0.14446935  0.12501268  0.47096984
   0.94847026  0.12501268  0.47096984
   0.04731632  0.24989008  0.55081915
   0.04665201  0.25011135  0.65313788
   0.89729121  0.12463803  0.60155497
   0.19711296  0.12497084  0.60185850
   0.80046377  0.24954802  0.68047776
   0.79617594  0.25055549  0.78323614
   0.14152037  0.12519619  0.73802190
   0.95347337  0.12489474  0.73874136
   0.79646980  0.50001268  0.15991487
   0.79646980  0.50001268  0.26186560
   0.14446935  0.37501268  0.21089024
   0.94847026  0.37501268  0.21089024
   0.04646980  0.50001268  0.28995467
   0.04646980  0.50001268  0.39190541
   0.89446935  0.37501268  0.34093004
   0.19847026  0.37501268  0.34093004
   0.79646980  0.50001268  0.41999448
   0.79646980  0.50001268  0.52194521
   0.14446935  0.37501268  0.47096984
   0.94847026  0.37501268  0.47096984
   0.04739879  0.49998089  0.55079879
   0.04677187  0.49998737  0.65307272
   0.89751956  0.37471338  0.60117625
   0.19717433  0.37497447  0.60187224
   0.80253417  0.50010908  0.68034269
   0.78717511  0.49974156  0.78346980
   0.14174871  0.37490288  0.73816149
   0.95352459  0.37559201  0.73949677
   0.29646980  0.75001268  0.15991487
   0.29646980  0.75001268  0.26186560
   0.64446935  0.62501268  0.21089024
   0.44847026  0.62501268  0.21089024
   0.54646980  0.75001268  0.28995467
   0.54646980  0.75001268  0.39190541
   0.39446935  0.62501268  0.34093004
   0.69847026  0.62501268  0.34093004
   0.29646980  0.75001268  0.41999448
   0.29646980  0.75001268  0.52194521
   0.64446935  0.62501268  0.47096984
   0.44847026  0.62501268  0.47096984
   0.54748244  0.74880429  0.55060934
   0.54491938  0.75123656  0.65198159
   0.39680972  0.62489394  0.60159947
   0.69784343  0.62509732  0.60247526
   0.29865144  0.74959384  0.68069788
   0.29761542  0.74989514  0.78366794
   0.64417486  0.62897273  0.73257454
   0.45490195  0.62565897  0.73955408
   0.29646980  0.00001268  0.15991487
   0.29646980  0.00001268  0.26186560
   0.64446935  0.87501268  0.21089024
   0.44847026  0.87501268  0.21089024
   0.54646980  0.00001268  0.28995467
   0.54646980  0.00001268  0.39190541
   0.39446935  0.87501268  0.34093004
   0.69847026  0.87501268  0.34093004
   0.29646980  0.00001268  0.41999448
   0.29646980  0.00001268  0.52194521
   0.64446935  0.87501268  0.47096984
   0.44847026  0.87501268  0.47096984
   0.54711269  0.99998732  0.55026701
   0.54694117  0.99987476  0.65218492
   0.39690765  0.87514452  0.60132287
   0.69754774  0.87478091  0.60177874
   0.29764920  0.99988334  0.68057979
   0.29691398  0.99991114  0.78356785
   0.64181621  0.87478322  0.73742439
   0.45335657  0.87571733  0.73806804
   0.29646980  0.25001268  0.15991487
   0.29646980  0.25001268  0.26186560
   0.64446935  0.12501268  0.21089024
   0.44847026  0.12501268  0.21089024
   0.54646980  0.25001268  0.28995467
   0.54646980  0.25001268  0.39190541
   0.39446935  0.12501268  0.34093004
   0.69847026  0.12501268  0.34093004
   0.29646980  0.25001268  0.41999448
   0.29646980  0.25001268  0.52194521
   0.64446935  0.12501268  0.47096984
   0.44847026  0.12501268  0.47096984
   0.54744042  0.25130543  0.55070472
   0.54560721  0.24831277  0.65216044
   0.39693412  0.12482903  0.60139578
   0.69760111  0.12512446  0.60172693
   0.29755762  0.24983142  0.68056735
   0.29785007  0.25003425  0.78349201
   0.64184908  0.12462056  0.73741192
   0.45327071  0.12412858  0.73788650
   0.29646980  0.50001268  0.15991487
   0.29646980  0.50001268  0.26186560
   0.64446935  0.37501268  0.21089024
   0.44847026  0.37501268  0.21089024
   0.54646980  0.50001268  0.28995467
   0.54646980  0.50001268  0.39190541
   0.39446935  0.37501268  0.34093004
   0.69847026  0.37501268  0.34093004
   0.29646980  0.50001268  0.41999448
   0.29646980  0.50001268  0.52194521
   0.64446935  0.37501268  0.47096984
   0.44847026  0.37501268  0.47096984
   0.54758719  0.49979153  0.55105829
   0.54618298  0.50039943  0.65378667
   0.39686168  0.37500744  0.60186725
   0.69779575  0.37500380  0.60256180
   0.29765211  0.50039272  0.68070442
   0.29882050  0.49984893  0.78354804
   0.64398997  0.37150717  0.73255805
   0.45380571  0.37389374  0.73723479
 
 position of ions in cartesian coordinates  (Angst):
   7.24769424  6.50384064 21.00212831
   8.58587234  5.86899113 20.42529989
   7.59211635  5.81027898 20.41483853
  10.35727773  7.39413636  5.27225589
   0.60429243  8.87293362  5.27225589
   0.60429243  7.39413636  8.52325099
  10.35727773  8.87293362  8.52325099
  10.35727773  7.39413636 11.77424609
   0.60429243  8.87293362 11.77424609
   0.69732097  7.39430563 14.95329774
  10.43925485  8.87383015 15.14306821
  10.37866527  7.40079588 18.47302360
   0.61462880  8.87497497 18.13474628
  10.35727773 10.35173089  5.27225589
   0.60429243  0.00015004  5.27225589
   0.60429243 10.35173089  8.52325099
  10.35727773  0.00015004  8.52325099
  10.35727773 10.35173089 11.77424609
   0.60429243  0.00015004 11.77424609
   0.69893500 10.35159133 14.95541287
  10.43301252 11.82977951 15.15156841
  10.36453988 10.34938584 18.50228958
   0.61693706 11.82887975 18.13342647
  10.35727773  1.47894730  5.27225589
   0.60429243  2.95774457  5.27225589
   0.60429243  1.47894730  8.52325099
  10.35727773  2.95774457  8.52325099
  10.35727773  1.47894730 11.77424609
   0.60429243  2.95774457 11.77424609
   0.69919884  1.47797300 14.95479426
  10.43900721  2.95547855 15.14230441
  10.36318505  1.46906878 18.50194959
   0.61588959  2.95238721 18.13422182
  10.35727773  4.43654183  5.27225589
   0.60429243  5.91533909  5.27225589
   0.60429243  4.43654183  8.52325099
  10.35727773  5.91533909  8.52325099
  10.35727773  4.43654183 11.77424609
   0.60429243  5.91533909 11.77424609
   0.69764428  4.43586831 14.95333406
  10.44262606  5.91484599 15.14791280
  10.38566032  4.41731772 18.47407458
   0.62548379  5.91531315 18.13267504
   3.85528753  7.39413636  5.27225589
   7.10628263  8.87293362  5.27225589
   7.10628263  7.39413636  8.52325099
   3.85528753  8.87293362  8.52325099
   3.85528753  7.39413636 11.77424609
   7.10628263  8.87293362 11.77424609
   7.20147285  7.36938852 14.98832981
   3.93739101  8.87132468 15.15141644
   3.87251629  7.39500977 18.50379904
   7.12613066  8.87348359 18.09864610
   3.85528753 10.35173089  5.27225589
   7.10628263  0.00015004  5.27225589
   7.10628263 10.35173089  8.52325099
   3.85528753  0.00015004  8.52325099
   3.85528753 10.35173089 11.77424609
   7.10628263  0.00015004 11.77424609
   7.19845375 10.34094098 14.92580854
   3.93497709 11.82988860 15.15262401
   3.87776007 10.35132411 18.50420349
   7.11001916 11.82888972 18.10473984
   3.85528753  1.47894730  5.27225589
   7.10628263  2.95774457  5.27225589
   7.10628263  1.47894730  8.52325099
   3.85528753  2.95774457  8.52325099
   3.85528753  1.47894730 11.77424609
   7.10628263  2.95774457 11.77424609
   7.19878899  1.48981736 14.92724567
   3.93596485  2.95783004 15.15212270
   3.87617312  1.47672332 18.50268180
   7.12443574  2.95332191 18.10613340
   3.85528753  4.43654183  5.27225589
   7.10628263  5.91533909  5.27225589
   7.10628263  4.43654183  8.52325099
   3.85528753  5.91533909  8.52325099
   3.85528753  4.43654183 11.77424609
   7.10628263  5.91533909 11.77424609
   7.20058184  4.45914524 14.99425404
   3.93297537  5.91518619 15.15509537
   3.87032297  4.43373923 18.50190387
   7.12780501  5.90579943 18.23705354
  10.35727773  8.87293362  3.99787169
  10.35727773  8.87293362  6.54664010
   1.87867664  7.39413636  5.27225589
  12.33388863  7.39413636  5.27225589
   0.60429243  8.87293362  7.24886679
   0.60429243  8.87293362  9.79763520
  11.63166194  7.39413636  8.52325099
   2.58090333  7.39413636  8.52325099
  10.35727773  8.87293362 10.49986189
  10.35727773  8.87293362 13.04863030
   1.87867664  7.39413636 11.77424609
  12.33388863  7.39413636 11.77424609
   0.61543660  8.87402506 13.77035593
   0.60508172  8.87010585 16.32862292
  11.67152470  7.39697544 15.02877513
   2.56391297  7.39575156 15.04747627
  10.41219394  8.88038517 17.01191137
  10.35162649  8.85985209 19.58305944
   1.84447912  7.39386551 18.45565191
  12.39966915  7.38436656 18.48761282
  10.35727773  0.00015004  3.99787169
  10.35727773  0.00015004  6.54664010
   1.87867664 10.35173089  5.27225589
  12.33388863 10.35173089  5.27225589
   0.60429243  0.00015004  7.24886679
   0.60429243  0.00015004  9.79763520
  11.63166194 10.35173089  8.52325099
   2.58090333 10.35173089  8.52325099
  10.35727773  0.00015004 10.49986189
  10.35727773  0.00015004 13.04863030
   1.87867664 10.35173089 11.77424609
  12.33388863 10.35173089 11.77424609
   0.61618689 11.82973723 13.77053657
   0.60923238 11.83000461 16.32743018
  11.66857358 10.35609195 15.03802778
   2.56374730 10.34908005 15.04975996
  10.37937914 11.83002487 17.02005701
  10.36797209 11.82684229 19.59157388
   1.84154649 10.34602853 18.44709759
  12.39968797 10.35026041 18.47160821
  10.35727773  2.95774457  3.99787169
  10.35727773  2.95774457  6.54664010
   1.87867664  1.47894730  5.27225589
  12.33388863  1.47894730  5.27225589
   0.60429243  2.95774457  7.24886679
   0.60429243  2.95774457  9.79763520
  11.63166194  1.47894730  8.52325099
   2.58090333  1.47894730  8.52325099
  10.35727773  2.95774457 10.49986189
  10.35727773  2.95774457 13.04863030
   1.87867664  1.47894730 11.77424609
  12.33388863  1.47894730 11.77424609
   0.61530045  2.95629415 13.77047871
   0.60666178  2.95891181 16.32844707
  11.66835726  1.47451505 15.03887432
   2.56325313  1.47845226 15.04646252
  10.40921521  2.95224738 17.01194397
  10.35345634  2.96416614 19.58090362
   1.84032816  1.48111821 18.45054746
  12.39894907  1.47755199 18.46853393
  10.35727773  5.91533909  3.99787169
  10.35727773  5.91533909  6.54664010
   1.87867664  4.43654183  5.27225589
  12.33388863  4.43654183  5.27225589
   0.60429243  5.91533909  7.24886679
   0.60429243  5.91533909  9.79763520
  11.63166194  4.43654183  8.52325099
   2.58090333  4.43654183  8.52325099
  10.35727773  5.91533909 10.49986189
  10.35727773  5.91533909 13.04863030
   1.87867664  4.43654183 11.77424609
  12.33388863  4.43654183 11.77424609
   0.61637288  5.91496294 13.76996975
   0.60822054  5.91503964 16.32681793
  11.67132682  4.43300101 15.02940634
   2.56405117  4.43608974 15.04680600
  10.43613856  5.91647949 17.00856716
  10.23640968  5.91213164 19.58674511
   1.84329745  4.43524285 18.45403720
  12.39961506  4.44339545 18.48741926
   3.85528753  8.87293362  3.99787169
   3.85528753  8.87293362  6.54664010
   8.38066684  7.39413636  5.27225589
   5.83189843  7.39413636  5.27225589
   7.10628263  8.87293362  7.24886679
   7.10628263  8.87293362  9.79763520
   5.12967174  7.39413636  8.52325099
   9.08289353  7.39413636  8.52325099
   3.85528753  8.87293362 10.49986189
   3.85528753  8.87293362 13.04863030
   8.38066684  7.39413636 11.77424609
   5.83189843  7.39413636 11.77424609
   7.11945096  8.85863784 13.76523360
   7.08612095  8.88741258 16.29953974
   5.16010584  7.39273161 15.03998677
   9.07474223  7.39513762 15.06188159
   3.88365747  8.86797856 17.01744699
   3.87018503  8.87154310 19.59169840
   8.37683729  7.44098522 18.31436356
   5.91553611  7.40178224 18.48885208
   3.85528753  0.00015004  3.99787169
   3.85528753  0.00015004  6.54664010
   8.38066684 10.35173089  5.27225589
   5.83189843 10.35173089  5.27225589
   7.10628263  0.00015004  7.24886679
   7.10628263  0.00015004  9.79763520
   5.12967174 10.35173089  8.52325099
   9.08289353 10.35173089  8.52325099
   3.85528753  0.00015004 10.49986189
   3.85528753  0.00015004 13.04863030
   8.38066684 10.35173089 11.77424609
   5.83189843 10.35173089 11.77424609
   7.11464275 11.83022808 13.75667528
   7.11241223 11.82889653 16.30462300
   5.16137935 10.35329055 15.03307173
[...]
      0.62548      5.91531     18.13268         0.010877     -0.001456     -0.090303
      3.85529      7.39414      5.27226         0.001031      0.000860     -4.039535
      7.10628      8.87293      5.27226        -0.001275      0.003719      3.241249
      7.10628      7.39414      8.52325        -0.005447      0.009381      0.573586
      3.85529      8.87293      8.52325         0.006671      0.000234     -0.821593
      3.85529      7.39414     11.77425         0.048613     -0.014660      0.743619
      7.10628      8.87293     11.77425        -0.029178     -0.051355     -0.709016
      7.20147      7.36939     14.98833         0.054627     -0.019077     -0.002765
      3.93739      8.87132     15.15142        -0.010615     -0.007899      0.137052
      3.87252      7.39501     18.50380         0.000105      0.003591      0.386554
      7.12613      8.87348     18.09865         0.017672     -0.008379     -0.112020
      3.85529     10.35173      5.27226         0.001747      0.003039     -4.042044
      7.10628      0.00015      5.27226         0.002001      0.002462      3.234675
      7.10628     10.35173      8.52325        -0.005549      0.000947      0.575156
      3.85529      0.00015      8.52325         0.010053     -0.000224     -0.822458
      3.85529     10.35173     11.77425         0.036514      0.004041      0.736359
      7.10628      0.00015     11.77425        -0.030389     -0.002870     -0.891038
      7.19845     10.34094     14.92581         0.052149     -0.018171      0.004219
      3.93498     11.82989     15.15262        -0.013459      0.000875      0.137900
      3.87776     10.35132     18.50420        -0.003030      0.006482      0.385236
      7.11002     11.82889     18.10474        -0.012699      0.009029     -0.099175
      3.85529      1.47895      5.27226         0.002276      0.000089     -4.043958
      7.10628      2.95774      5.27226        -0.001253     -0.003300      3.236203
      7.10628      1.47895      8.52325        -0.005716     -0.001998      0.573459
      3.85529      2.95774      8.52325         0.006516     -0.000422     -0.821727
      3.85529      1.47895     11.77425         0.034951     -0.000996      0.739249
      7.10628      2.95774     11.77425        -0.030073      0.058662     -0.700005
      7.19879      1.48982     14.92725         0.050809      0.025159      0.010884
      3.93596      2.95783     15.15212        -0.012072      0.006463      0.143304
      3.87617      1.47672     18.50268         0.000881      0.001675      0.385670
      7.12444      2.95332     18.10613         0.008554      0.021239     -0.115983
      3.85529      4.43654      5.27226         0.001508     -0.004510     -4.041466
      7.10628      5.91534      5.27226         0.001618     -0.002249      3.240196
      7.10628      4.43654      8.52325        -0.005576     -0.007474      0.572337
      3.85529      5.91534      8.52325         0.009298     -0.000315     -0.818606
      3.85529      4.43654     11.77425         0.049730      0.011384      0.744860
      7.10628      5.91534     11.77425        -0.022497     -0.004301     -0.734533
      7.20058      4.45915     14.99425         0.056040      0.015708     -0.003041
      3.93298      5.91519     15.15510        -0.001077      0.001493      0.143281
      3.87032      4.43374     18.50190         0.012449     -0.015572      0.385166
      7.12781      5.90580     18.23705         0.016276     -0.030290      0.136023
     10.35728      8.87293      3.99787         0.003503     -0.001892      2.587234
     10.35728      8.87293      6.54664         0.001917     -0.000747      1.752457
      1.87868      7.39414      5.27226        -2.356702      0.001737     -0.857533
     12.33389      7.39414      5.27226         2.356631     -0.000362     -0.857773
      0.60429      8.87293      7.24887         0.003014      0.000225     -1.300517
      0.60429      8.87293      9.79764        -0.003613      0.000435     -0.279222
     11.63166      7.39414      8.52325         0.294342      0.002840      0.063866
      2.58090      7.39414      8.52325        -0.302017     -0.002344      0.061950
     10.35728      8.87293     10.49986         0.005970     -0.000339      0.094827
     10.35728      8.87293     13.04863         0.027595      0.001749     -0.206830
      1.87868      7.39414     11.77425        -0.723260      0.007282      0.105202
     12.33389      7.39414     11.77425         0.710970      0.000608      0.122803
      0.61544      8.87403     13.77036         0.023266     -0.003749      0.190907
      0.60508      8.87011     16.32862         0.027299      0.008420      0.051585
     11.67152      7.39698     15.02878        -0.155149     -0.000403      0.033935
      2.56391      7.39575     15.04748         0.024422     -0.000472      0.014254
     10.41219      8.88039     17.01191         0.003562     -0.011715     -0.008723
     10.35163      8.85985     19.58306         0.020473     -0.004579     -0.627506
      1.84448      7.39387     18.45565        -0.324508     -0.008719     -0.054075
     12.39967      7.38437     18.48761         0.298812     -0.003493     -0.062412
     10.35728      0.00015      3.99787         0.005788     -0.003329      2.589476
     10.35728      0.00015      6.54664         0.008143     -0.000224      1.754097
      1.87868     10.35173      5.27226        -2.357088     -0.002059     -0.857024
     12.33389     10.35173      5.27226         2.359064     -0.001295     -0.857799
      0.60429      0.00015      7.24887         0.000062      0.000347     -1.295466
      0.60429      0.00015      9.79764        -0.002865     -0.000908     -0.277938
     11.63166     10.35173      8.52325         0.294332     -0.002305      0.063976
      2.58090     10.35173      8.52325        -0.302138      0.003098      0.060392
     10.35728      0.00015     10.49986        -0.004764      0.001999      0.094312
     10.35728      0.00015     13.04863         0.011000     -0.001710     -0.218217
      1.87868     10.35173     11.77425        -0.719228     -0.007091      0.103443
     12.33389     10.35173     11.77425         0.709659     -0.000180      0.120480
      0.61619     11.82974     13.77054         0.017670      0.003499      0.194898
      0.60923     11.83000     16.32743         0.021026     -0.001900      0.035825
     11.66857     10.35609     15.03803        -0.154708     -0.003105      0.030736
      2.56375     10.34908     15.04976         0.022829      0.001368      0.012811
     10.37938     11.83002     17.02006         0.004322      0.000786     -0.023258
     10.36797     11.82684     19.59157        -0.010036      0.002580     -0.636552
      1.84155     10.34603     18.44710        -0.325508     -0.005403     -0.044710
     12.39969     10.35026     18.47161         0.314232     -0.009426     -0.053105
     10.35728      2.95774      3.99787         0.004214      0.002533      2.591289
     10.35728      2.95774      6.54664         0.001937      0.001444      1.753617
      1.87868      1.47895      5.27226        -2.357495      0.002051     -0.856623
     12.33389      1.47895      5.27226         2.357649      0.000057     -0.856836
      0.60429      2.95774      7.24887         0.003008      0.000452     -1.299991
      0.60429      2.95774      9.79764        -0.003742      0.000081     -0.278467
     11.63166      1.47895      8.52325         0.294290      0.003089      0.064050
      2.58090      1.47895      8.52325        -0.301953     -0.002605      0.062215
     10.35728      2.95774     10.49986         0.006062      0.000293      0.096736
     10.35728      2.95774     13.04863         0.025767      0.001297     -0.199319
      1.87868      1.47895     11.77425        -0.720420      0.005306      0.103543
     12.33389      1.47895     11.77425         0.708761      0.000781      0.122118
      0.61530      2.95629     13.77048         0.023012      0.003906      0.189711
      0.60666      2.95891     16.32845         0.026560     -0.007878      0.050301
     11.66836      1.47452     15.03887        -0.155585      0.002489      0.032135
      2.56325      1.47845     15.04646         0.019113     -0.003747      0.014121
     10.40922      2.95225     17.01194         0.006754      0.007887     -0.008236
     10.35346      2.96417     19.58090         0.030791      0.017606     -0.633449
      1.84033      1.48112     18.45055        -0.324088      0.000617     -0.044322
     12.39895      1.47755     18.46853         0.318128      0.001535     -0.049821
     10.35728      5.91534      3.99787         0.004895     -0.000637      2.583077
     10.35728      5.91534      6.54664         0.008016      0.000998      1.752718
      1.87868      4.43654      5.27226        -2.357052     -0.000340     -0.857176
     12.33389      4.43654      5.27226         2.358817      0.000525     -0.857974
      0.60429      5.91534      7.24887         0.000037      0.000466     -1.296116
      0.60429      5.91534      9.79764        -0.002922     -0.000933     -0.278649
     11.63166      4.43654      8.52325         0.294278     -0.002257      0.064008
      2.58090      4.43654      8.52325        -0.302349      0.003114      0.060209
     10.35728      5.91534     10.49986        -0.001852     -0.000581      0.093439
     10.35728      5.91534     13.04863         0.013782     -0.003624     -0.212098
      1.87868      4.43654     11.77425        -0.724544     -0.009635      0.105511
     12.33389      4.43654     11.77425         0.710081     -0.001327      0.122869
      0.61637      5.91496     13.76997         0.016569      0.002197      0.191843
      0.60822      5.91504     16.32682         0.026520      0.000216      0.040262
     11.67133      4.43300     15.02941        -0.154382      0.002879      0.033382
      2.56405      4.43609     15.04681         0.024179      0.001273      0.014330
     10.43614      5.91648     17.00857         0.007294     -0.000405     -0.029991
     10.23641      5.91213     19.58675         0.050351      0.010712     -0.526948
      1.84330      4.43524     18.45404        -0.324018      0.009008     -0.053276
     12.39962      4.44340     18.48742         0.297507      0.000822     -0.061602
      3.85529      8.87293      3.99787         0.005826     -0.001382      2.588638
      3.85529      8.87293      6.54664         0.000381     -0.000488      1.749637
      8.38067      7.39414      5.27226        -2.352667      0.001440     -0.860453
      5.83190      7.39414      5.27226         2.358835     -0.000564     -0.860343
      7.10628      8.87293      7.24887         0.004624     -0.001256     -1.314609
      7.10628      8.87293      9.79764         0.000158     -0.002304     -0.331598
      5.12967      7.39414      8.52325         0.289591      0.002593      0.060131
      9.08289      7.39414      8.52325        -0.284976     -0.003118      0.062147
      3.85529      8.87293     10.49986        -0.004407      0.002482      0.072337
      3.85529      8.87293     13.04863         0.005554      0.000482     -0.223534
      8.38067      7.39414     11.77425        -0.656940     -0.020861      0.080241
      5.83190      7.39414     11.77425         0.696346     -0.027274      0.098328
      7.11945      8.85864     13.76523         0.020366      0.038054      0.185859
      7.08612      8.88741     16.29954         0.043996     -0.009705      0.029108
      5.16011      7.39273     15.03999        -0.169158      0.002371      0.033304
      9.07474      7.39514     15.06188         0.040041     -0.008656      0.011084
      3.88366      8.86798     17.01745         0.007240      0.001258     -0.029543
      3.87019      8.87154     19.59170        -0.000656     -0.002259     -0.626754
      8.37684      7.44099     18.31436        -0.301711      0.035131      0.035616
      5.91554      7.40178     18.48885         0.279902      0.025930     -0.066538
      3.85529      0.00015      3.99787         0.006588     -0.003326      2.590151
      3.85529      0.00015      6.54664         0.006426     -0.000255      1.751238
      8.38067     10.35173      5.27226        -2.352941     -0.002723     -0.859266
      5.83190     10.35173      5.27226         2.360717     -0.001857     -0.859906
      7.10628      0.00015      7.24887         0.001709      0.000510     -1.309517
      7.10628      0.00015      9.79764         0.000216     -0.000454     -0.330026
      5.12967     10.35173      8.52325         0.288027     -0.002239      0.060329
      9.08289     10.35173      8.52325        -0.283886      0.003162      0.060640
      3.85529      0.00015     10.49986        -0.013681      0.000169      0.072776
      3.85529      0.00015     13.04863        -0.010298     -0.004492     -0.233307
      8.38067     10.35173     11.77425        -0.659092     -0.004833      0.099949
      5.83190     10.35173     11.77425         0.691807     -0.000807      0.108492
      7.11464     11.83023     13.75668         0.018728     -0.001103      0.172149
      7.11241     11.82890     16.30462         0.022478     -0.003699      0.059045
      5.16138     10.35329     15.03307        -0.157698     -0.000972      0.027178
      9.07090     10.34899     15.04447         0.041038      0.000529      0.014083
      3.87062     11.82900     17.01449         0.008897      0.000568     -0.030034
      3.86106     11.82933     19.58920         0.010572     -0.004847     -0.629845
      8.34617     10.34902     18.43561        -0.302476     -0.003230     -0.044988
      5.89544     10.36007     18.45170         0.304768      0.008930     -0.055381
      3.85529      2.95774      3.99787         0.005130      0.002025      2.592510
      3.85529      2.95774      6.54664         0.000369      0.001177      1.750385
      8.38067      1.47895      5.27226        -2.353165      0.002297     -0.858355
      5.83190      1.47895      5.27226         2.359092      0.000202     -0.858449
      7.10628      2.95774      7.24887         0.004650      0.001888     -1.313058
      7.10628      2.95774      9.79764         0.000076      0.002817     -0.324924
      5.12967      1.47895      8.52325         0.288334      0.002859      0.060416
      9.08289      1.47895      8.52325        -0.283843     -0.002341      0.062643
      3.85529      2.95774     10.49986        -0.004509     -0.002466      0.071297
      3.85529      2.95774     13.04863         0.005909      0.000736     -0.226526
      8.38067      1.47895     11.77425        -0.660767      0.007881      0.102882
      5.83190      1.47895     11.77425         0.694668      0.004599      0.110993
      7.11890      2.97304     13.76762         0.022074     -0.043639      0.186610
      7.09507      2.93763     16.30401         0.036742      0.014763      0.018647
      5.16172      1.47677     15.03489        -0.157240     -0.000882      0.029454
      9.07159      1.48027     15.04317         0.045224     -0.001600      0.012787
      3.86943      2.95560     17.01418         0.015725     -0.000721     -0.039603
      3.87324      2.95800     19.58730        -0.008687     -0.000327     -0.634718
      8.34659      1.47431     18.43530        -0.299235     -0.006766     -0.046559
      5.89432      1.46849     18.44716         0.306521     -0.015847     -0.059037
      3.85529      5.91534      3.99787         0.007418     -0.000643      2.585296
      3.85529      5.91534      6.54664         0.006544      0.001029      1.749699
      8.38067      4.43654      5.27226        -2.352805      0.000371     -0.859517
      5.83190      4.43654      5.27226         2.360791      0.001166     -0.860160
      7.10628      5.91534      7.24887         0.001690      0.000344     -1.308535
      7.10628      5.91534      9.79764         0.000683     -0.001466     -0.292102
      5.12967      4.43654      8.52325         0.289885     -0.001847      0.060231
      9.08289      4.43654      8.52325        -0.285411      0.003577      0.060508
      3.85529      5.91534     10.49986        -0.016225      0.000899      0.068290
      3.85529      5.91534     13.04863        -0.000647     -0.004277     -0.219498
      8.38067      4.43654     11.77425        -0.656041      0.013346      0.077727
      5.83190      4.43654     11.77425         0.696427      0.022943      0.095328
      7.12081      5.91272     13.77646         0.018777      0.011051      0.217696
      7.10255      5.91991     16.34467         0.031494      0.001656     -0.061858
      5.16078      4.43648     15.04668        -0.166960      0.001440      0.027113
      9.07412      4.43644     15.06405         0.039777      0.007737      0.008498
      3.87066      5.91984     17.01761         0.004483     -0.005893     -0.036357
      3.88586      5.91340     19.58870        -0.027056      0.005720     -0.627208
      8.37443      4.39507     18.31395        -0.310527     -0.025060      0.033331
      5.90128      4.42330     18.43087         0.301475     -0.013356     -0.037965
 -----------------------------------------------------------------------------------
    total drift:                                0.057114     -0.020143     -0.051416


--------------------------------------------------------------------------------------------------------



  FREE ENERGIE OF THE ION-ELECTRON SYSTEM (eV)
  ---------------------------------------------------
  free  energy   TOTEN  =     -2636.46783968 eV

  energy  without entropy=    -2636.46783968  energy(sigma->0) =    -2636.46783968
 


--------------------------------------------------------------------------------------------------------


    POTLOK:  cpu time     16.5890: real time     16.8355


--------------------------------------------------------------------------------------------------------


     LOOP+:  cpu time  29341.8676: real time  29433.0953
    4ORBIT:  cpu time      0.0001: real time      0.0019

 total amount of memory used by VASP MPI-rank0  3989161. kBytes
=======================================================================

   base      :      30000. kBytes
   nonlr-proj:     126606. kBytes
   fftplans  :      56070. kBytes
   grid      :     144972. kBytes
   one-center:       3779. kBytes
   HF        :        259. kBytes
   wavefun   :    1804001. kBytes
   fock_wrk  :    1823474. kBytes
 
  
  
 General timing and accounting informations for this job:
 ========================================================
  
                  Total CPU time used (sec):    29361.984
                            User time (sec):    28982.240
                          System time (sec):      379.745
                         Elapsed time (sec):    29456.681
  
                   Maximum memory used (kb):     6462600.
                   Average memory used (kb):          N/A
  
                          Minor page faults:       253123
                          Major page faults:            0
                 Voluntary context switches:       313922


                    ____  _____ _____     ____  _  _
      -------------|  _ \|  ___|_   _|---|  _ \| || |------------
     |             | | | | |_    | | ___ | | | | || |_           |
     |             | |_| |  _|   | ||___|| |_| |__   _|          |
     |             |____/|_|     |_|     |____/   |_|            |
     |             ===================================           |
     |            E. Caldeweyher, S. Ehlert & S. Grimme          |
     |          Mulliken Center for Theoretical Chemistry        |
     |                    University of Bonn                     |
      ----------------------------------------------------------- 

Rational (Becke-Johnson) damping: hse06-D4-ATM
---------------------
  s6         1.0000
  s8         1.1953
  s9         1.0000
  a1         0.3866
  a2         5.1913
 alp        16.0000
--------------------

Dispersion energy:      -1.4424270025648E+00 Eh

