 vasp.6.3.0 20Jan22 (build Mar 11 2022 13:48:16) complex                        
  
 executed on             LinuxIFC date 2024.01.23  02:02:20
 running on  304 total cores
 distrk:  each k-point on  304 cores,    1 groups
 distr:  one band on NCORE=   2 cores,  152 groups


--------------------------------------------------------------------------------------------------------


 INCAR:
   SYSTEM = TiO2
   ISMEAR = 0
   SIGMA = 0.05
   EDIFF = 1E-5
   ALGO = ALL
   ISTART = 0
   IBRION = -1
   NSW = 0
   ISYM = 0
   ISIF = 2
   EDIFFG = -0.01
   DIPOL = 0.5 0.5 0.5
   IDIPOL = 3
   LDIPOL = .TRUE.
   GGA = PE
   IVDW = 21
   LDAU = .TRUE.
   LDAUTYPE = 2
   LDAUL = -1 -1 2 -1
   LDAUU = 0.0 0.0 4.2 0.0
   LDAUPRINT = 1
   LMAXMIX = 4
   ENCUT = 600
   PREC = Accurate
   LASPH = .TRUE.
   LREAL = .FALSE.
   ISPIN = 1
   NELM = 200
   NELMIN = 8
   NCORE = 2
   KPAR = 1
   LWAVE = .FALSE.
   LCHARG = .FALSE.

 POTCAR:    PAW_PBE C 08Apr2002                   
 POTCAR:    PAW_PBE O 08Apr2002                   
 POTCAR:    PAW_PBE Ti_pv 07Sep2000               
 POTCAR:    PAW_PBE O 08Apr2002                   
 -----------------------------------------------------------------------------
|                                                                             |
|           W    W    AA    RRRRR   N    N  II  N    N   GGGG   !!!           |
|           W    W   A  A   R    R  NN   N  II  NN   N  G    G  !!!           |
|           W    W  A    A  R    R  N N  N  II  N N  N  G       !!!           |
|           W WW W  AAAAAA  RRRRR   N  N N  II  N  N N  G  GGG   !            |
|           WW  WW  A    A  R   R   N   NN  II  N   NN  G    G                |
|           W    W  A    A  R    R  N    N  II  N    N   GGGG   !!!           |
|                                                                             |
|     For optimal performance we recommend to set                             |
|       NCORE = 2 up to number-of-cores-per-socket                            |
|     NCORE specifies how many cores store one orbital (NPAR=cpu/NCORE).      |
|     This setting can greatly improve the performance of VASP for DFT.       |
|     The default, NCORE=1 might be grossly inefficient on modern             |
|     multi-core architectures or massively parallel machines. Do your        |
|     own testing! More info at https://www.vasp.at/wiki/index.php/NCORE      |
|     Unfortunately you need to use the default for GW and RPA                |
|     calculations (for HF NCORE is supported but not extensively tested      |
|     yet).                                                                   |
|                                                                             |
 -----------------------------------------------------------------------------

 POTCAR:    PAW_PBE C 08Apr2002                   
   SHA256 =  253f7b50bb8d59471dbedb8285d89021f4a42ed1a2c5d38a03a736e69125dd95 C/POTCAR              
   COPYR  = (c) Copyright 08Apr2002 Georg Kresse                                                    
   COPYR  = This file is part of the software VASP. Any use, copying, and all other rights are regul
   COPYR  = If you do not have a valid VASP license, you may not use, copy or distribute this file. 
   VRHFIN =C: s2p2                                                                                  
   LEXCH  = PE                                                                                      
   EATOM  =   147.1560 eV,   10.8157 Ry                                                             
                                                                                                    
   TITEL  = PAW_PBE C 08Apr2002                                                                     
   LULTRA =        F    use ultrasoft PP ?                                                          
   IUNSCR =        1    unscreen: 0-lin 1-nonlin 2-no                                               
   RPACOR =    1.200    partial core radius                                                         
   POMASS =   12.011; ZVAL   =    4.000    mass and valenz                                          
   RCORE  =    1.500    outmost cutoff radius                                                       
   RWIGS  =    1.630; RWIGS  =    0.863    wigner-seitz radius (au A)                               
   ENMAX  =  400.000; ENMIN  =  300.000 eV                                                          
   ICORE  =        2    local potential                                                             
   LCOR   =        T    correct aug charges                                                         
   LPAW   =        T    paw PP                                                                      
   EAUG   =  644.873                                                                                
   DEXC   =    0.000                                                                                
   RMAX   =    1.529    core radius for proj-oper                                                   
   RAUG   =    1.300    factor for augmentation sphere                                              
   RDEP   =    1.501    radius for radial grids                                                     
   RDEPT  =    1.300    core radius for aug-charge                                                  
                                                                                                    
   Atomic configuration                                                                             
    4 entries                                                                                       
     n  l   j            E        occ.                                                              
     1  0  0.50      -273.3789   2.0000                                                             
     2  0  0.50       -13.7508   2.0000                                                             
     2  1  0.50        -5.2854   2.0000                                                             
     3  2  1.50        -5.4423   0.0000                                                             
   Description                                                                                      
     l       E           TYP  RCUT    TYP  RCUT                                                     
     0    -13.7508458     23  1.200                                                                 
     0     -8.2022199     23  1.200                                                                 
     1     -5.2854383     23  1.500                                                                 
     1     34.0145650     23  1.500                                                                 
     2     -5.4423304      7  1.500                                                                 
  local pseudopotential read in
  partial core-charges read in
  partial kinetic energy density read in
  atomic valenz-charges read in
  non local Contribution for L=           0  read in
    real space projection operators read in
  non local Contribution for L=           0  read in
    real space projection operators read in
  non local Contribution for L=           1  read in
    real space projection operators read in
  non local Contribution for L=           1  read in
    real space projection operators read in
    PAW grid and wavefunctions read in
 
   number of l-projection  operators is LMAX  =           4
   number of lm-projection operators is LMMAX =           8
 
 POTCAR:    PAW_PBE O 08Apr2002                   
   SHA256 =  818f92134a0a090dccd8ba1447fa70422a3b330e708bb4f08108d8ae51209ddf O/POTCAR              
   COPYR  = (c) Copyright 08Apr2002 Georg Kresse                                                    
   COPYR  = This file is part of the software VASP. Any use, copying, and all other rights are regul
   COPYR  = If you do not have a valid VASP license, you may not use, copy or distribute this file. 
   VRHFIN =O: s2p4                                                                                  
   LEXCH  = PE                                                                                      
   EATOM  =   432.3788 eV,   31.7789 Ry                                                             
                                                                                                    
   TITEL  = PAW_PBE O 08Apr2002                                                                     
   LULTRA =        F    use ultrasoft PP ?                                                          
   IUNSCR =        1    unscreen: 0-lin 1-nonlin 2-no                                               
   RPACOR =    1.200    partial core radius                                                         
   POMASS =   16.000; ZVAL   =    6.000    mass and valenz                                          
   RCORE  =    1.520    outmost cutoff radius                                                       
   RWIGS  =    1.550; RWIGS  =    0.820    wigner-seitz radius (au A)                               
   ENMAX  =  400.000; ENMIN  =  300.000 eV                                                          
   ICORE  =        2    local potential                                                             
   LCOR   =        T    correct aug charges                                                         
   LPAW   =        T    paw PP                                                                      
   EAUG   =  605.392                                                                                
   DEXC   =    0.000                                                                                
   RMAX   =    1.553    core radius for proj-oper                                                   
   RAUG   =    1.300    factor for augmentation sphere                                              
   RDEP   =    1.550    radius for radial grids                                                     
   RDEPT  =    1.329    core radius for aug-charge                                                  
                                                                                                    
   Atomic configuration                                                                             
    4 entries                                                                                       
     n  l   j            E        occ.                                                              
     1  0  0.50      -514.6923   2.0000                                                             
     2  0  0.50       -23.9615   2.0000                                                             
     2  1  0.50        -9.0305   4.0000                                                             
     3  2  1.50        -9.5241   0.0000                                                             
   Description                                                                                      
     l       E           TYP  RCUT    TYP  RCUT                                                     
     0    -23.9615318     23  1.200                                                                 
     0     -9.5240782     23  1.200                                                                 
     1     -9.0304911     23  1.520                                                                 
     1      8.1634956     23  1.520                                                                 
     2     -9.5240782      7  1.500                                                                 
  local pseudopotential read in
  partial core-charges read in
  partial kinetic energy density read in
  kinetic energy density of atom read in
  atomic valenz-charges read in
  non local Contribution for L=           0  read in
    real space projection operators read in
  non local Contribution for L=           0  read in
    real space projection operators read in
  non local Contribution for L=           1  read in
    real space projection operators read in
  non local Contribution for L=           1  read in
    real space projection operators read in
    PAW grid and wavefunctions read in
 
   number of l-projection  operators is LMAX  =           4
   number of lm-projection operators is LMMAX =           8
 
 POTCAR:    PAW_PBE Ti_pv 07Sep2000               
   SHA256 =  f757a1b2c6d082f4c628fa3d987464a8763bf92e53844ac0500b0e2ddc9ce5c0 Ti_pv/POTCAR          
   COPYR  = (c) Copyright 07Sep2000 Georg Kresse                                                    
   COPYR  = This file is part of the software VASP. Any use, copying, and all other rights are regul
   COPYR  = If you do not have a valid VASP license, you may not use, copy or distribute this file. 
   VRHFIN =Ti: d3 s1                                                                                
   LEXCH  = PE                                                                                      
   EATOM  =  1042.5995 eV,   76.6289 Ry                                                             
                                                                                                    
   TITEL  = PAW_PBE Ti_pv 07Sep2000                                                                 
   LULTRA =        F    use ultrasoft PP ?                                                          
   IUNSCR =        1    unscreen: 0-lin 1-nonlin 2-no                                               
   RPACOR =    2.200    partial core radius                                                         
   POMASS =   47.880; ZVAL   =   10.000    mass and valenz                                          
   RCORE  =    2.500    outmost cutoff radius                                                       
   RWIGS  =    2.500; RWIGS  =    1.323    wigner-seitz radius (au A)                               
   ENMAX  =  222.335; ENMIN  =  166.751 eV                                                          
   RCLOC  =    1.701    cutoff for local pot                                                        
   LCOR   =        T    correct aug charges                                                         
   LPAW   =        T    paw PP                                                                      
   EAUG   =  482.848                                                                                
   DEXC   =    0.000                                                                                
   RMAX   =    2.564    core radius for proj-oper                                                   
   RAUG   =    1.300    factor for augmentation sphere                                              
   RDEP   =    2.538    radius for radial grids                                                     
   RDEPT  =    1.952    core radius for aug-charge                                                  
                                                                                                    
   Atomic configuration                                                                             
    8 entries                                                                                       
     n  l   j            E        occ.                                                              
     1  0  0.50     -4865.3608   2.0000                                                             
     2  0  0.50      -533.1368   2.0000                                                             
     2  1  1.50      -440.5031   6.0000                                                             
     3  0  0.50       -59.3186   2.0000                                                             
     3  1  1.50       -35.7012   6.0000                                                             
     3  2  2.50        -1.9157   3.0000                                                             
     4  0  0.50        -3.7291   1.0000                                                             
     4  3  2.50        -1.3606   0.0000                                                             
   Description                                                                                      
     l       E           TYP  RCUT    TYP  RCUT                                                     
     1    -35.7012140     23  2.300                                                                 
     1     -1.3605826     23  2.300                                                                 
     2     -1.9156996     23  2.500                                                                 
     2     -0.4063033     23  2.500                                                                 
     0     -3.7290856     23  2.500                                                                 
     0     20.4087390     23  2.500                                                                 
  local pseudopotential read in
  partial core-charges read in
  partial kinetic energy density read in
  atomic valenz-charges read in
  non local Contribution for L=           1  read in
    real space projection operators read in
  non local Contribution for L=           1  read in
    real space projection operators read in
  non local Contribution for L=           2  read in
    real space projection operators read in
  non local Contribution for L=           2  read in
    real space projection operators read in
  non local Contribution for L=           0  read in
    real space projection operators read in
  non local Contribution for L=           0  read in
    real space projection operators read in
    PAW grid and wavefunctions read in
 
   number of l-projection  operators is LMAX  =           6
   number of lm-projection operators is LMMAX =          18
 
 POTCAR:    PAW_PBE O 08Apr2002                   
   SHA256 =  818f92134a0a090dccd8ba1447fa70422a3b330e708bb4f08108d8ae51209ddf O/POTCAR              
   COPYR  = (c) Copyright 08Apr2002 Georg Kresse                                                    
   COPYR  = This file is part of the software VASP. Any use, copying, and all other rights are regul
   COPYR  = If you do not have a valid VASP license, you may not use, copy or distribute this file. 
   VRHFIN =O: s2p4                                                                                  
   LEXCH  = PE                                                                                      
   EATOM  =   432.3788 eV,   31.7789 Ry                                                             
                                                                                                    
   TITEL  = PAW_PBE O 08Apr2002                                                                     
   LULTRA =        F    use ultrasoft PP ?                                                          
   IUNSCR =        1    unscreen: 0-lin 1-nonlin 2-no                                               
   RPACOR =    1.200    partial core radius                                                         
   POMASS =   16.000; ZVAL   =    6.000    mass and valenz                                          
   RCORE  =    1.520    outmost cutoff radius                                                       
   RWIGS  =    1.550; RWIGS  =    0.820    wigner-seitz radius (au A)                               
   ENMAX  =  400.000; ENMIN  =  300.000 eV                                                          
   ICORE  =        2    local potential                                                             
   LCOR   =        T    correct aug charges                                                         
   LPAW   =        T    paw PP                                                                      
   EAUG   =  605.392                                                                                
   DEXC   =    0.000                                                                                
   RMAX   =    1.553    core radius for proj-oper                                                   
   RAUG   =    1.300    factor for augmentation sphere                                              
   RDEP   =    1.550    radius for radial grids                                                     
   RDEPT  =    1.329    core radius for aug-charge                                                  
                                                                                                    
   Atomic configuration                                                                             
    4 entries                                                                                       
     n  l   j            E        occ.                                                              
     1  0  0.50      -514.6923   2.0000                                                             
     2  0  0.50       -23.9615   2.0000                                                             
     2  1  0.50        -9.0305   4.0000                                                             
     3  2  1.50        -9.5241   0.0000                                                             
   Description                                                                                      
     l       E           TYP  RCUT    TYP  RCUT                                                     
     0    -23.9615318     23  1.200                                                                 
     0     -9.5240782     23  1.200                                                                 
     1     -9.0304911     23  1.520                                                                 
     1      8.1634956     23  1.520                                                                 
     2     -9.5240782      7  1.500                                                                 
  local pseudopotential read in
  partial core-charges read in
  partial kinetic energy density read in
  kinetic energy density of atom read in
  atomic valenz-charges read in
  non local Contribution for L=           0  read in
    real space projection operators read in
  non local Contribution for L=           0  read in
    real space projection operators read in
  non local Contribution for L=           1  read in
    real space projection operators read in
  non local Contribution for L=           1  read in
    real space projection operators read in
    PAW grid and wavefunctions read in
 
   number of l-projection  operators is LMAX  =           4
   number of lm-projection operators is LMMAX =           8
 
 -----------------------------------------------------------------------------
|                                                                             |
|               ----> ADVICE to this user running VASP <----                  |
|                                                                             |
|     You have a (more or less) 'large supercell' and for larger cells it     |
|     might be more efficient to use real-space projection operators.         |
|     Therefore, try LREAL= Auto in the INCAR file.                           |
|     Mind: For very accurate calculation, you might also keep the            |
|     reciprocal projection scheme (i.e. LREAL=.FALSE.).                      |
|                                                                             |
 -----------------------------------------------------------------------------

  PAW_PBE C 08Apr2002                   :
 energy of atom  1       EATOM= -147.1560
 kinetic energy error for atom=    0.0057 (will be added to EATOM!!)
  PAW_PBE O 08Apr2002                   :
 energy of atom  2       EATOM= -432.3788
 kinetic energy error for atom=    0.0168 (will be added to EATOM!!)
  PAW_PBE Ti_pv 07Sep2000               :
 energy of atom  3       EATOM=-1042.5995
 kinetic energy error for atom=    0.0007 (will be added to EATOM!!)
  PAW_PBE O 08Apr2002                   :
 energy of atom  4       EATOM= -432.3788
 kinetic energy error for atom=    0.0168 (will be added to EATOM!!)
 
 
 POSCAR:  C  O Ti  O
  positions in direct lattice
  No initial velocities read in
 exchange correlation table for  LEXCH =        8
   RHO(1)=    0.500       N(1)  =     2000
   RHO(2)=  100.500       N(2)  =     4000
 


--------------------------------------------------------------------------------------------------------


 ion  position               nearest neighbor table
   1  0.421  0.500  0.815-   2 1.16   3 1.18
   2  0.363  0.500  0.844-   1 1.16
   3  0.484  0.500  0.787-   1 1.18  83 2.35
   4  0.750  0.625  0.287-  85 1.95 145 1.95 144 1.95  84 1.95  87 1.97 166 1.97  14 2.96  34 2.96

   5  0.000  0.750  0.287-  86 1.95  87 1.95 106 1.95 107 1.95  88 1.97  35 2.96  15 2.96
   6  0.000  0.625  0.394-  88 1.95  89 1.95 148 1.95 149 1.95  90 1.97  91 1.97  16 2.96  36 2.96

   7  0.750  0.750  0.394-  90 1.95 110 1.95 171 1.95 191 1.95  92 1.97  85 1.97  17 2.96  37 2.96

   8  0.750  0.625  0.500-  92 1.95  93 1.95 152 1.95 153 1.95  95 1.97 174 1.97  18 2.96  38 2.96

   9  0.000  0.750  0.500-  94 1.95  95 1.95 114 1.95 115 1.95  89 1.97  96 1.99  19 2.96  39 2.96

  10  1.000  0.625  0.604- 156 1.90  96 1.90  99 1.95  98 1.95  97 2.01 157 2.01  20 2.96  40 2.96

  11  0.750  0.750  0.610- 100 1.87 179 1.97 199 1.97  98 1.97 118 1.97  93 2.09  41 2.96  21 2.96

  12  0.749  0.625  0.720- 101 1.83 161 1.83 182 2.02 103 2.03 160 2.09 100 2.09  22 2.96  42 2.96

  13  1.000  0.750  0.708-  97 1.81 123 1.94 122 1.94 103 1.94 102 1.95  23 2.96  43 2.96
  14  0.750  0.875  0.287-  85 1.95 105 1.95 104 1.95  84 1.95 107 1.97 186 1.97   4 2.96  24 2.96

  15  0.000  0.000  0.287- 106 1.95 107 1.95 126 1.95 127 1.95 108 1.97  25 2.96   5 2.96
  16  0.000  0.875  0.394-  88 1.95  89 1.95 108 1.95 109 1.95 110 1.97 111 1.97   6 2.96  26 2.96

  17  0.750  0.000  0.394- 110 1.95 130 1.95 191 1.95 211 1.95 112 1.97 105 1.97   7 2.96  27 2.96

  18  0.750  0.875  0.500-  92 1.95  93 1.95 112 1.95 113 1.95 115 1.97 194 1.97   8 2.96  28 2.96

  19  0.000  0.000  0.500- 114 1.95 115 1.95 134 1.95 135 1.95 109 1.97 116 1.99   9 2.96  29 2.96

  20  1.000  0.875  0.604-  96 1.90 116 1.90 118 1.95 119 1.95 117 2.01  97 2.01  30 2.96  10 2.96

  21  0.750  1.000  0.610- 120 1.87 199 1.97 219 1.97 118 1.97 138 1.97 113 2.09  11 2.96  31 2.96

  22  0.750  0.875  0.720- 121 1.83 101 1.83 202 2.02 123 2.03 120 2.09 100 2.09  32 2.96  12 2.96

  23  0.000  1.000  0.708- 117 1.81 142 1.94 122 1.94 143 1.94 123 1.94  13 2.96  33 2.96
  24  0.750  0.125  0.287- 105 1.95 125 1.95 124 1.95 104 1.95 127 1.97 206 1.97  14 2.96  34 2.96

  25  0.000  0.250  0.287- 126 1.95 127 1.95 146 1.95 147 1.95 128 1.97  35 2.96  15 2.96
  26  0.000  0.125  0.394- 108 1.95 109 1.95 128 1.95 129 1.95 130 1.97 131 1.97  16 2.96  36 2.96

  27  0.750  0.250  0.394- 130 1.95 150 1.95 211 1.95 231 1.95 132 1.97 125 1.97  17 2.96  37 2.96

  28  0.750  0.125  0.500- 112 1.95 113 1.95 132 1.95 133 1.95 135 1.97 214 1.97  18 2.96  38 2.96

  29  0.000  0.250  0.500- 134 1.95 135 1.95 154 1.95 155 1.95 129 1.97 136 1.99  19 2.96  39 2.96

  30  1.000  0.125  0.604- 136 1.90 116 1.90 138 1.95 139 1.95 117 2.01 137 2.01  20 2.96  40 2.96

  31  0.750  0.250  0.610- 140 1.87 239 1.97 219 1.97 158 1.97 138 1.97 133 2.09  41 2.96  21 2.96

  32  0.750  0.125  0.720- 121 1.83 141 1.83 222 2.02 143 2.03 120 2.09 140 2.09  22 2.96  42 2.96

  33  1.000  0.250  0.708- 137 1.81 143 1.94 142 1.94 163 1.94 162 1.95  23 2.96  43 2.96
  34  0.750  0.375  0.287- 125 1.95 145 1.95 144 1.95 124 1.95 147 1.97 226 1.97   4 2.96  24 2.96

  35  0.000  0.500  0.287-  86 1.95  87 1.95 146 1.95 147 1.95 148 1.97  25 2.96   5 2.96
  36  0.000  0.375  0.394- 128 1.95 129 1.95 148 1.95 149 1.95 150 1.97 151 1.97   6 2.96  26 2.96

  37  0.750  0.500  0.394-  90 1.95 150 1.95 171 1.95 231 1.95 145 1.97 152 1.97   7 2.96  27 2.96

  38  0.750  0.375  0.500- 132 1.95 133 1.95 152 1.95 153 1.95 155 1.97 234 1.97   8 2.96  28 2.96

  39  0.000  0.500  0.500-  94 1.95  95 1.95 154 1.95 155 1.95 149 1.97 156 1.99   9 2.96  29 2.96

  40  1.000  0.375  0.604- 156 1.90 136 1.90 159 1.95 158 1.95 137 2.01 157 2.01  30 2.96  10 2.96

  41  0.750  0.500  0.610- 160 1.87 179 1.97 239 1.97  98 1.97 158 1.97 153 2.09  11 2.96  31 2.96

  42  0.749  0.375  0.720- 141 1.83 161 1.83 242 2.02 163 2.03 160 2.09 140 2.09  32 2.96  12 2.96

  43  0.999  0.500  0.708- 157 1.81 163 1.94 103 1.94 162 1.95 102 1.95  13 2.96  33 2.96
  44  0.250  0.625  0.287- 165 1.95 225 1.95 224 1.95 164 1.95  86 1.97 167 1.97  54 2.96  74 2.96

  45  0.500  0.750  0.287- 166 1.95 167 1.95 186 1.95 187 1.95 168 1.97  75 2.96  55 2.96
  46  0.500  0.625  0.394- 168 1.95 169 1.95 228 1.95 229 1.95 170 1.97 171 1.97  56 2.96  76 2.96

  47  0.250  0.750  0.394-  91 1.95 111 1.95 170 1.95 190 1.95 172 1.97 165 1.97  57 2.96  77 2.96

  48  0.250  0.625  0.500- 172 1.95 173 1.95 232 1.95 233 1.95  94 1.97 175 1.97  58 2.96  78 2.96

  49  0.500  0.750  0.500- 174 1.95 175 1.95 194 1.95 195 1.95 169 1.97 176 1.99  59 2.96  79 2.96

  50  0.500  0.624  0.605- 236 1.90 176 1.91 179 1.95 178 1.95 177 2.00 237 2.00  80 2.93  60 2.96

  51  0.250  0.750  0.610- 180 1.87 198 1.97 178 1.97  99 1.97 119 1.97 173 2.08  61 2.96  81 2.96

  52  0.249  0.625  0.719- 181 1.83 241 1.84 102 2.02 183 2.02 180 2.08 240 2.09  62 2.95  82 2.97

  53  0.500  0.750  0.707- 177 1.81 183 1.93 182 1.93 202 1.94 203 1.95  63 2.95  83 2.96
  54  0.250  0.875  0.287- 165 1.95 185 1.95 184 1.95 164 1.95 106 1.97 187 1.97  44 2.96  64 2.96

  55  0.500  0.000  0.287- 186 1.95 187 1.95 206 1.95 207 1.95 188 1.97  65 2.96  45 2.96
  56  0.500  0.875  0.394- 168 1.95 169 1.95 188 1.95 189 1.95 190 1.97 191 1.97  46 2.96  66 2.96

  57  0.250  0.000  0.394- 111 1.95 131 1.95 190 1.95 210 1.95 192 1.97 185 1.97  47 2.96  67 2.96

  58  0.250  0.875  0.500- 172 1.95 173 1.95 192 1.95 193 1.95 114 1.97 195 1.97  48 2.96  68 2.96

  59  0.500  0.000  0.500- 194 1.95 195 1.95 214 1.95 215 1.95 189 1.97 196 1.98  49 2.96  69 2.96

  60  0.500  0.875  0.604- 176 1.89 196 1.90 199 1.95 198 1.95 177 2.00 197 2.01  50 2.96  70 2.97

  61  0.250  1.000  0.610- 200 1.87 198 1.97 218 1.97 119 1.97 139 1.97 193 2.09  51 2.96  71 2.96

  62  0.250  0.875  0.720- 201 1.83 181 1.83 203 2.02 122 2.03 200 2.09 180 2.09  52 2.95  72 2.96

  63  0.500  1.000  0.708- 197 1.81 202 1.94 222 1.94 203 1.94 223 1.94  53 2.95  73 2.95
  64  0.250  0.125  0.287- 185 1.95 205 1.95 204 1.95 184 1.95 126 1.97 207 1.97  54 2.96  74 2.96

  65  0.500  0.250  0.287- 206 1.95 207 1.95 226 1.95 227 1.95 208 1.97  75 2.96  55 2.96
  66  0.500  0.125  0.394- 188 1.95 189 1.95 208 1.95 209 1.95 210 1.97 211 1.97  56 2.96  76 2.96

  67  0.250  0.250  0.394- 131 1.95 151 1.95 210 1.95 230 1.95 212 1.97 205 1.97  57 2.96  77 2.96

  68  0.250  0.125  0.500- 192 1.95 193 1.95 212 1.95 213 1.95 134 1.97 215 1.97  58 2.96  78 2.96

  69  0.500  0.250  0.500- 214 1.95 215 1.95 234 1.95 235 1.95 209 1.97 216 1.99  59 2.96  79 2.96

  70  0.500  0.125  0.604- 216 1.89 196 1.90 219 1.95 218 1.95 217 2.00 197 2.01  80 2.96  60 2.97

  71  0.250  0.250  0.610- 220 1.87 218 1.97 238 1.97 159 1.97 139 1.97 213 2.08  61 2.96  81 2.96

  72  0.250  0.125  0.720- 201 1.83 221 1.83 223 2.02 142 2.03 200 2.09 220 2.09  82 2.95  62 2.96

  73  0.500  0.250  0.707- 217 1.81 243 1.93 242 1.93 222 1.94 223 1.95  63 2.95  83 2.96
  74  0.250  0.375  0.287- 205 1.95 225 1.95 224 1.95 204 1.95 146 1.97 227 1.97  44 2.96  64 2.96

  75  0.500  0.500  0.287- 166 1.95 167 1.95 226 1.95 227 1.95 228 1.97  65 2.96  45 2.96
  76  0.500  0.375  0.394- 208 1.95 209 1.95 228 1.95 229 1.95 230 1.97 231 1.97  46 2.96  66 2.96

  77  0.250  0.500  0.394-  91 1.95 151 1.95 170 1.95 230 1.95 225 1.97 232 1.97  47 2.96  67 2.96

  78  0.250  0.375  0.500- 212 1.95 213 1.95 232 1.95 233 1.95 154 1.97 235 1.97  48 2.96  68 2.96

  79  0.500  0.500  0.500- 174 1.95 175 1.95 234 1.95 235 1.95 229 1.97 236 2.00  49 2.96  69 2.96

  80  0.500  0.376  0.605- 236 1.90 216 1.91 239 1.95 238 1.95 217 2.00 237 2.00  50 2.93  70 2.96

  81  0.250  0.500  0.610- 240 1.87 178 1.97 238 1.97  99 1.97 159 1.97 233 2.08  51 2.96  71 2.96

  82  0.249  0.375  0.719- 221 1.83 241 1.84 162 2.02 243 2.02 220 2.08 240 2.09  72 2.95  52 2.97

  83  0.499  0.500  0.710- 237 1.85 243 1.95 183 1.95 182 1.95 242 1.95   3 2.35  53 2.96  73 2.96

  84  0.750  0.750  0.246-   4 1.95  14 1.95
  85  0.750  0.750  0.329-   4 1.95  14 1.95   7 1.97
  86  0.098  0.625  0.287-   5 1.95  35 1.95  44 1.97
  87  0.902  0.625  0.287-   5 1.95  35 1.95   4 1.97
  88  0.000  0.750  0.352-   6 1.95  16 1.95   5 1.97
  89  0.000  0.750  0.435-   6 1.95  16 1.95   9 1.97
  90  0.848  0.625  0.394-   7 1.95  37 1.95   6 1.97
  91  0.152  0.625  0.394-  47 1.95  77 1.95   6 1.97
  92  0.750  0.750  0.458-   8 1.95  18 1.95   7 1.97
  93  0.750  0.750  0.542-   8 1.95  18 1.95  11 2.09
  94  0.098  0.625  0.500-   9 1.95  39 1.95  48 1.97
  95  0.902  0.625  0.500-   9 1.95  39 1.95   8 1.97
  96  1.000  0.750  0.565-  20 1.90  10 1.90   9 1.99
  97  0.000  0.750  0.649-  13 1.81  10 2.01  20 2.01
  98  0.850  0.625  0.607-  10 1.95  11 1.97  41 1.97
  99  0.150  0.625  0.607-  10 1.95  51 1.97  81 1.97
 100  0.750  0.750  0.671-  11 1.87  22 2.09  12 2.09
 101  0.750  0.750  0.755-  12 1.83  22 1.83
 102  0.094  0.625  0.719-  43 1.95  13 1.95  52 2.02
 103  0.906  0.625  0.718-  43 1.94  13 1.94  12 2.03
 104  0.750  0.000  0.246-  14 1.95  24 1.95
 105  0.750  0.000  0.329-  14 1.95  24 1.95  17 1.97
 106  0.098  0.875  0.287-   5 1.95  15 1.95  54 1.97
 107  0.902  0.875  0.287-   5 1.95  15 1.95  14 1.97
 108  0.000  0.000  0.352-  16 1.95  26 1.95  15 1.97
 109  0.000  0.000  0.435-  16 1.95  26 1.95  19 1.97
 110  0.848  0.875  0.394-   7 1.95  17 1.95  16 1.97
 111  0.152  0.875  0.394-  47 1.95  57 1.95  16 1.97
 112  0.750  0.000  0.458-  18 1.95  28 1.95  17 1.97
 113  0.750  0.000  0.542-  18 1.95  28 1.95  21 2.09
 114  0.098  0.875  0.500-   9 1.95  19 1.95  58 1.97
 115  0.902  0.875  0.500-   9 1.95  19 1.95  18 1.97
 116  1.000  0.000  0.565-  20 1.90  30 1.90  19 1.99
 117  0.000  1.000  0.649-  23 1.81  20 2.01  30 2.01
 118  0.850  0.875  0.607-  20 1.95  21 1.97  11 1.97
 119  0.150  0.875  0.607-  20 1.95  61 1.97  51 1.97
 120  0.750  1.000  0.671-  21 1.87  32 2.09  22 2.09
 121  0.750  0.000  0.755-  22 1.83  32 1.83
 122  0.094  0.875  0.719-  23 1.94  13 1.94  62 2.03
 123  0.906  0.875  0.718-  13 1.94  23 1.94  22 2.03
 124  0.750  0.250  0.246-  24 1.95  34 1.95
 125  0.750  0.250  0.329-  24 1.95  34 1.95  27 1.97
 126  0.098  0.125  0.287-  15 1.95  25 1.95  64 1.97
 127  0.902  0.125  0.287-  15 1.95  25 1.95  24 1.97
 128  0.000  0.250  0.352-  26 1.95  36 1.95  25 1.97
 129  0.000  0.250  0.435-  26 1.95  36 1.95  29 1.97
 130  0.848  0.125  0.394-  17 1.95  27 1.95  26 1.97
 131  0.152  0.125  0.394-  57 1.95  67 1.95  26 1.97
 132  0.750  0.250  0.458-  28 1.95  38 1.95  27 1.97
 133  0.750  0.250  0.542-  28 1.95  38 1.95  31 2.09
 134  0.098  0.125  0.500-  19 1.95  29 1.95  68 1.97
 135  0.902  0.125  0.500-  19 1.95  29 1.95  28 1.97
 136  1.000  0.250  0.565-  30 1.90  40 1.90  29 1.99
 137  0.000  0.250  0.649-  33 1.81  40 2.01  30 2.01
 138  0.850  0.125  0.607-  30 1.95  21 1.97  31 1.97
 139  0.150  0.125  0.607-  30 1.95  61 1.97  71 1.97
 140  0.750  0.250  0.671-  31 1.87  32 2.09  42 2.09
 141  0.750  0.250  0.755-  42 1.83  32 1.83
 142  0.094  0.125  0.719-  23 1.94  33 1.94  72 2.03
 143  0.906  0.125  0.718-  33 1.94  23 1.94  32 2.03
 144  0.750  0.500  0.246-   4 1.95  34 1.95
 145  0.750  0.500  0.329-   4 1.95  34 1.95  37 1.97
 146  0.098  0.375  0.287-  25 1.95  35 1.95  74 1.97
 147  0.902  0.375  0.287-  25 1.95  35 1.95  34 1.97
 148  0.000  0.500  0.352-   6 1.95  36 1.95  35 1.97
 149  0.000  0.500  0.435-   6 1.95  36 1.95  39 1.97
 150  0.848  0.375  0.394-  27 1.95  37 1.95  36 1.97
 151  0.152  0.375  0.394-  67 1.95  77 1.95  36 1.97
 152  0.750  0.500  0.458-   8 1.95  38 1.95  37 1.97
 153  0.750  0.500  0.542-   8 1.95  38 1.95  41 2.09
 154  0.098  0.375  0.500-  29 1.95  39 1.95  78 1.97
 155  0.902  0.375  0.500-  29 1.95  39 1.95  38 1.97
 156  1.000  0.500  0.565-  10 1.90  40 1.90  39 1.99
 157  0.000  0.500  0.649-  43 1.81  40 2.01  10 2.01
 158  0.850  0.375  0.607-  40 1.95  31 1.97  41 1.97
 159  0.150  0.375  0.607-  40 1.95  71 1.97  81 1.97
 160  0.750  0.500  0.671-  41 1.87  42 2.09  12 2.09
 161  0.749  0.500  0.755-  12 1.83  42 1.83
 162  0.094  0.375  0.719-  43 1.95  33 1.95  82 2.02
 163  0.906  0.375  0.718-  43 1.94  33 1.94  42 2.03
 164  0.250  0.750  0.246-  44 1.95  54 1.95
 165  0.250  0.750  0.329-  44 1.95  54 1.95  47 1.97
 166  0.598  0.625  0.287-  45 1.95  75 1.95   4 1.97
 167  0.402  0.625  0.287-  45 1.95  75 1.95  44 1.97
 168  0.500  0.750  0.352-  46 1.95  56 1.95  45 1.97
 169  0.500  0.750  0.435-  46 1.95  56 1.95  49 1.97
 170  0.348  0.625  0.394-  47 1.95  77 1.95  46 1.97
 171  0.652  0.625  0.394-   7 1.95  37 1.95  46 1.97
 172  0.250  0.750  0.458-  48 1.95  58 1.95  47 1.97
 173  0.250  0.750  0.542-  48 1.95  58 1.95  51 2.08
 174  0.598  0.625  0.500-  49 1.95  79 1.95   8 1.97
 175  0.402  0.625  0.500-  49 1.95  79 1.95  48 1.97
 176  0.500  0.749  0.565-  60 1.89  50 1.91  49 1.99
 177  0.501  0.751  0.648-  53 1.81  60 2.00  50 2.00
 178  0.350  0.625  0.607-  50 1.95  51 1.97  81 1.97
 179  0.650  0.625  0.607-  50 1.95  41 1.97  11 1.97
 180  0.249  0.750  0.671-  51 1.87  52 2.08  62 2.09
 181  0.251  0.750  0.755-  52 1.83  62 1.83
 182  0.594  0.626  0.718-  53 1.93  83 1.95  12 2.02
 183  0.405  0.627  0.716-  53 1.93  83 1.95  52 2.02
 184  0.250  0.000  0.246-  54 1.95  64 1.95
 185  0.250  0.000  0.329-  54 1.95  64 1.95  57 1.97
 186  0.598  0.875  0.287-  45 1.95  55 1.95  14 1.97
 187  0.402  0.875  0.287-  45 1.95  55 1.95  54 1.97
 188  0.500  0.000  0.352-  56 1.95  66 1.95  55 1.97
 189  0.500  0.000  0.435-  56 1.95  66 1.95  59 1.97
 190  0.348  0.875  0.394-  47 1.95  57 1.95  56 1.97
 191  0.652  0.875  0.394-   7 1.95  17 1.95  56 1.97
 192  0.250  0.000  0.458-  58 1.95  68 1.95  57 1.97
 193  0.250  0.000  0.542-  58 1.95  68 1.95  61 2.09
 194  0.598  0.875  0.500-  49 1.95  59 1.95  18 1.97
 195  0.402  0.875  0.500-  49 1.95  59 1.95  58 1.97
 196  0.500  1.000  0.565-  60 1.90  70 1.90  59 1.98
 197  0.500  0.000  0.648-  63 1.81  60 2.01  70 2.01
 198  0.350  0.875  0.607-  60 1.95  51 1.97  61 1.97
 199  0.650  0.875  0.607-  60 1.95  21 1.97  11 1.97
 200  0.250  1.000  0.671-  61 1.87  62 2.09  72 2.09
 201  0.250  0.000  0.755-  62 1.83  72 1.83
 202  0.594  0.876  0.718-  63 1.94  53 1.94  22 2.02
 203  0.406  0.875  0.718-  63 1.94  53 1.95  62 2.02
 204  0.250  0.250  0.246-  64 1.95  74 1.95
 205  0.250  0.250  0.329-  64 1.95  74 1.95  67 1.97
 206  0.598  0.125  0.287-  55 1.95  65 1.95  24 1.97
 207  0.402  0.125  0.287-  55 1.95  65 1.95  64 1.97
 208  0.500  0.250  0.352-  66 1.95  76 1.95  65 1.97
 209  0.500  0.250  0.435-  66 1.95  76 1.95  69 1.97
 210  0.348  0.125  0.394-  57 1.95  67 1.95  66 1.97
 211  0.652  0.125  0.394-  17 1.95  27 1.95  66 1.97
 212  0.250  0.250  0.458-  68 1.95  78 1.95  67 1.97
 213  0.250  0.250  0.542-  68 1.95  78 1.95  71 2.08
 214  0.598  0.125  0.500-  59 1.95  69 1.95  28 1.97
 215  0.402  0.125  0.500-  59 1.95  69 1.95  68 1.97
 216  0.500  0.251  0.565-  70 1.89  80 1.91  69 1.99
 217  0.501  0.249  0.648-  73 1.81  70 2.00  80 2.00
 218  0.350  0.125  0.607-  70 1.95  71 1.97  61 1.97
 219  0.650  0.125  0.607-  70 1.95  21 1.97  31 1.97
 220  0.249  0.250  0.671-  71 1.87  82 2.08  72 2.09
 221  0.251  0.250  0.755-  82 1.83  72 1.83
 222  0.594  0.124  0.718-  63 1.94  73 1.94  32 2.02
 223  0.406  0.125  0.718-  63 1.94  73 1.95  72 2.02
 224  0.250  0.500  0.246-  44 1.95  74 1.95
 225  0.250  0.500  0.329-  44 1.95  74 1.95  77 1.97
 226  0.598  0.375  0.287-  65 1.95  75 1.95  34 1.97
 227  0.402  0.375  0.287-  65 1.95  75 1.95  74 1.97
 228  0.500  0.500  0.352-  46 1.95  76 1.95  75 1.97
 229  0.500  0.500  0.435-  46 1.95  76 1.95  79 1.97
 230  0.348  0.375  0.394-  67 1.95  77 1.95  76 1.97
 231  0.652  0.375  0.394-  27 1.95  37 1.95  76 1.97
 232  0.250  0.500  0.458-  48 1.95  78 1.95  77 1.97
 233  0.250  0.500  0.542-  48 1.95  78 1.95  81 2.08
 234  0.598  0.375  0.500-  69 1.95  79 1.95  38 1.97
 235  0.402  0.375  0.500-  69 1.95  79 1.95  78 1.97
 236  0.500  0.500  0.565-  50 1.90  80 1.90  79 2.00
 237  0.500  0.500  0.649-  83 1.85  80 2.00  50 2.00
 238  0.350  0.375  0.607-  80 1.95  71 1.97  81 1.97
 239  0.650  0.375  0.607-  80 1.95  41 1.97  31 1.97
 240  0.248  0.500  0.671-  81 1.87  82 2.09  52 2.09
 241  0.254  0.500  0.755-  52 1.84  82 1.84
 242  0.594  0.374  0.718-  73 1.93  83 1.95  42 2.02
 243  0.405  0.373  0.716-  73 1.93  83 1.95  82 2.02
 

IMPORTANT INFORMATION: All symmetrisations will be switched off!
NOSYMM: (Re-)initialisation of all symmetry stuff for point group C_1.


----------------------------------------------------------------------------------------

                                     Primitive cell                                     

  volume of cell :    4687.8040

  direct lattice vectors                    reciprocal lattice vectors
    12.981773603  0.000000000  0.000000000     0.077031077  0.000000000  0.000000000
     0.000000000 11.829932295  0.000000000     0.000000000  0.084531338  0.000000000
     0.000000000  0.000000000 30.524823105     0.000000000  0.000000000  0.032760223

  length of vectors
    12.981773603 11.829932295 30.524823105     0.077031077  0.084531338  0.032760223

  position of ions in fractional coordinates (direct lattice)
     0.421092088  0.499999983  0.814654111
     0.363248802  0.499999997  0.843504028
     0.484287878  0.499999969  0.786977407
     0.750000000  0.625000000  0.287357103
     0.000000000  0.750000000  0.287357103
     0.000000000  0.625000000  0.393678552
     0.750000000  0.750000000  0.393678552
     0.750000000  0.625000000  0.500000000
     0.000000000  0.750000000  0.500000000
     0.999962675  0.625024785  0.604140270
     0.749985772  0.749994585  0.610110800
     0.749367869  0.625059645  0.719607031
     0.999861507  0.750145119  0.708090504
     0.750000000  0.875000000  0.287357103
     0.000000000  0.000000000  0.287357103
     0.000000000  0.875000000  0.393678552
     0.750000000  0.000000000  0.393678552
     0.750000000  0.875000000  0.500000000
     0.000000000  0.000000000  0.500000000
     0.999992116  0.875026301  0.604181752
     0.750025828  0.999999995  0.610119633
     0.749788572  0.875070826  0.719651437
     0.000206971  0.999999999  0.708089718
     0.750000000  0.125000000  0.287357103
     0.000000000  0.250000000  0.287357103
     0.000000000  0.125000000  0.393678552
     0.750000000  0.250000000  0.393678552
     0.750000000  0.125000000  0.500000000
     0.000000000  0.250000000  0.500000000
     0.999992113  0.124973706  0.604181755
     0.749985775  0.250005412  0.610110797
     0.749788571  0.124929172  0.719651433
     0.999861508  0.249854880  0.708090505
     0.750000000  0.375000000  0.287357103
     0.000000000  0.500000000  0.287357103
     0.000000000  0.375000000  0.393678552
     0.750000000  0.500000000  0.393678552
     0.750000000  0.375000000  0.500000000
     0.000000000  0.500000000  0.500000000
     0.999962674  0.374975221  0.604140267
     0.750006238  0.500000001  0.610169645
     0.749367868  0.374940353  0.719607027
     0.999039127  0.500000001  0.708055337
     0.250000000  0.625000000  0.287357103
     0.500000000  0.750000000  0.287357103
     0.500000000  0.625000000  0.393678552
     0.250000000  0.750000000  0.393678552
     0.250000000  0.625000000  0.500000000
     0.500000000  0.750000000  0.500000000
     0.500016313  0.624030786  0.604851310
     0.249918704  0.750081304  0.609957496
     0.248983257  0.625440685  0.719083685
     0.500194682  0.750255812  0.707493918
     0.250000000  0.875000000  0.287357103
     0.500000000  0.000000000  0.287357103
     0.500000000  0.875000000  0.393678552
     0.250000000  0.000000000  0.393678552
     0.250000000  0.875000000  0.500000000
     0.500000000  0.000000000  0.500000000
     0.500140208  0.874577674  0.603655884
     0.250114298  0.999999998  0.610125473
     0.250296354  0.875087796  0.719672242
     0.499994123  0.999999998  0.707550419
     0.250000000  0.125000000  0.287357103
     0.500000000  0.250000000  0.287357103
     0.500000000  0.125000000  0.393678552
     0.250000000  0.250000000  0.393678552
     0.250000000  0.125000000  0.500000000
     0.500000000  0.250000000  0.500000000
     0.500140211  0.125422340  0.603655881
     0.249918702  0.249918696  0.609957489
     0.250296354  0.124912212  0.719672239
     0.500194682  0.249744192  0.707493916
     0.250000000  0.375000000  0.287357103
     0.500000000  0.500000000  0.287357103
     0.500000000  0.375000000  0.393678552
     0.250000000  0.500000000  0.393678552
     0.250000000  0.375000000  0.500000000
     0.500000000  0.500000000  0.500000000
     0.500016315  0.375969227  0.604851325
     0.249746225  0.500000004  0.609956692
     0.248983256  0.374559320  0.719083670
     0.498604631  0.500000003  0.710104504
     0.750000000  0.750000000  0.245701670
     0.750000000  0.750000000  0.329012537
     0.097946921  0.625000000  0.287357103
     0.902053079  0.625000000  0.287357103
     0.000000000  0.750000000  0.352023118
     0.000000000  0.750000000  0.435333986
     0.847946921  0.625000000  0.393678552
     0.152053079  0.625000000  0.393678552
     0.750000000  0.750000000  0.458344566
     0.750000000  0.750000000  0.541655434
     0.097946921  0.625000000  0.500000000
     0.902053079  0.625000000  0.500000000
     0.999927376  0.750073859  0.565163625
     0.000237414  0.749932943  0.648712554
     0.850110097  0.625064220  0.606837088
     0.149806187  0.625138083  0.606587403
     0.750071235  0.750162970  0.671258478
     0.749671301  0.749993755  0.754903535
     0.093504185  0.624628487  0.718828778
     0.905849987  0.625110823  0.718391166
     0.750000000  0.000000000  0.245701670
     0.750000000  0.000000000  0.329012537
     0.097946921  0.875000000  0.287357103
     0.902053079  0.875000000  0.287357103
     0.000000000  0.000000000  0.352023118
     0.000000000  0.000000000  0.435333986
     0.847946921  0.875000000  0.393678552
     0.152053079  0.875000000  0.393678552
     0.750000000  0.000000000  0.458344566
     0.750000000  0.000000000  0.541655434
     0.097946921  0.875000000  0.500000000
     0.902053079  0.875000000  0.500000000
     0.999926350  0.000000004  0.565170343
     0.000192730  0.999999999  0.648707758
     0.850158972  0.874993432  0.606864582
     0.149915425  0.875178976  0.606746841
     0.750161188  0.999999997  0.671268887
     0.750204421  0.000000000  0.754936412
     0.093829711  0.874928688  0.718561269
     0.906203068  0.874940775  0.718367335
     0.750000000  0.250000000  0.245701670
     0.750000000  0.250000000  0.329012537
     0.097946921  0.125000000  0.287357103
     0.902053079  0.125000000  0.287357103
     0.000000000  0.250000000  0.352023118
     0.000000000  0.250000000  0.435333986
     0.847946921  0.125000000  0.393678552
     0.152053079  0.125000000  0.393678552
     0.750000000  0.250000000  0.458344566
     0.750000000  0.250000000  0.541655434
     0.097946921  0.125000000  0.500000000
     0.902053079  0.125000000  0.500000000
     0.999927376  0.249926143  0.565163627
     0.000237416  0.250067065  0.648712554
     0.850158973  0.125006569  0.606864585
     0.149915424  0.124821027  0.606746841
     0.750071234  0.249837031  0.671258475
     0.749671300  0.250006244  0.754903530
     0.093829706  0.125071312  0.718561271
     0.906203069  0.125059221  0.718367336
     0.750000000  0.500000000  0.245701670
     0.750000000  0.500000000  0.329012537
     0.097946921  0.375000000  0.287357103
     0.902053079  0.375000000  0.287357103
     0.000000000  0.500000000  0.352023118
     0.000000000  0.500000000  0.435333986
     0.847946921  0.375000000  0.393678552
     0.152053079  0.375000000  0.393678552
     0.750000000  0.500000000  0.458344566
     0.750000000  0.500000000  0.541655434
     0.097946921  0.375000000  0.500000000
     0.902053079  0.375000000  0.500000000
     0.999888228  0.500000006  0.565153527
     0.000081513  0.499999998  0.648679979
     0.850110096  0.374935780  0.606837087
     0.149806186  0.374861922  0.606587401
     0.750404164  0.500000004  0.671300232
     0.748944741  0.499999998  0.754864568
     0.093504181  0.375371515  0.718828780
     0.905849986  0.374889181  0.718391167
     0.250000000  0.750000000  0.245701670
     0.250000000  0.750000000  0.329012537
     0.597946921  0.625000000  0.287357103
     0.402053079  0.625000000  0.287357103
     0.500000000  0.750000000  0.352023118
     0.500000000  0.750000000  0.435333986
     0.347946921  0.625000000  0.393678552
     0.652053079  0.625000000  0.393678552
     0.250000000  0.750000000  0.458344566
     0.250000000  0.750000000  0.541655434
     0.597946921  0.625000000  0.500000000
     0.402053079  0.625000000  0.500000000
     0.499894354  0.749147378  0.565132650
     0.500560329  0.750891006  0.648228831
     0.349805234  0.624994480  0.607121284
     0.650118657  0.624943372  0.606946629
     0.248585086  0.750364003  0.671209456
     0.250584445  0.749509090  0.754843588
     0.593543768  0.625913458  0.717853962
     0.404788489  0.627303089  0.716372467
     0.250000000  0.000000000  0.245701670
     0.250000000  0.000000000  0.329012537
     0.597946921  0.875000000  0.287357103
     0.402053079  0.875000000  0.287357103
     0.500000000  0.000000000  0.352023118
     0.500000000  0.000000000  0.435333986
     0.347946921  0.875000000  0.393678552
     0.652053079  0.875000000  0.393678552
     0.250000000  0.000000000  0.458344566
     0.250000000  0.000000000  0.541655434
     0.597946921  0.875000000  0.500000000
     0.402053079  0.875000000  0.500000000
     0.499944247  0.999999999  0.564891483
     0.499986595  0.000000005  0.648249551
     0.349901413  0.874933648  0.606768036
     0.650116515  0.875088871  0.606648326
     0.249874976  0.999999996  0.671365591
     0.249972219  0.000000001  0.754982613
     0.593912298  0.875519078  0.718171301
     0.406038602  0.875161672  0.718154001
     0.250000000  0.250000000  0.245701670
     0.250000000  0.250000000  0.329012537
     0.597946921  0.125000000  0.287357103
     0.402053079  0.125000000  0.287357103
     0.500000000  0.250000000  0.352023118
     0.500000000  0.250000000  0.435333986
     0.347946921  0.125000000  0.393678552
     0.652053079  0.125000000  0.393678552
     0.250000000  0.250000000  0.458344566
     0.250000000  0.250000000  0.541655434
     0.597946921  0.125000000  0.500000000
     0.402053079  0.125000000  0.500000000
     0.499894352  0.250852639  0.565132651
     0.500560332  0.249108992  0.648228828
     0.349901415  0.125066353  0.606768033
     0.650116515  0.124911128  0.606648323
     0.248585082  0.249635990  0.671209452
     0.250584451  0.250490919  0.754843579
     0.593912300  0.124480920  0.718171297
     0.406038604  0.124838330  0.718154000
     0.250000000  0.500000000  0.245701670
     0.250000000  0.500000000  0.329012537
     0.597946921  0.375000000  0.287357103
     0.402053079  0.375000000  0.287357103
     0.500000000  0.500000000  0.352023118
     0.500000000  0.500000000  0.435333986
     0.347946921  0.375000000  0.393678552
     0.652053079  0.375000000  0.393678552
     0.250000000  0.500000000  0.458344566
     0.250000000  0.500000000  0.541655434
     0.597946921  0.375000000  0.500000000
     0.402053079  0.375000000  0.500000000
     0.499889021  0.500000002  0.565387522
     0.500153568  0.500000012  0.649468659
     0.349805240  0.375005527  0.607121287
     0.650118655  0.375056632  0.606946632
     0.247675215  0.500000004  0.671099995
     0.254410047  0.499999995  0.754689948
     0.593543767  0.374086545  0.717853957
     0.404788489  0.372696913  0.716372448

  ion indices of the primitive-cell ions
   primitive index   ion index
                 1           1
                 2           2
                 3           3
                 4           4
                 5           5
                 6           6
                 7           7
                 8           8
                 9           9
                10          10
                11          11
                12          12
                13          13
                14          14
                15          15
                16          16
                17          17
                18          18
                19          19
                20          20
                21          21
                22          22
                23          23
                24          24
                25          25
                26          26
                27          27
                28          28
                29          29
                30          30
                31          31
                32          32
                33          33
                34          34
                35          35
                36          36
                37          37
                38          38
                39          39
                40          40
                41          41
                42          42
                43          43
                44          44
                45          45
                46          46
                47          47
                48          48
                49          49
                50          50
                51          51
                52          52
                53          53
                54          54
                55          55
                56          56
                57          57
                58          58
                59          59
                60          60
                61          61
                62          62
                63          63
                64          64
                65          65
                66          66
                67          67
                68          68
                69          69
                70          70
                71          71
                72          72
                73          73
                74          74
                75          75
                76          76
                77          77
                78          78
                79          79
                80          80
                81          81
                82          82
                83          83
                84          84
                85          85
                86          86
                87          87
                88          88
                89          89
                90          90
                91          91
                92          92
                93          93
                94          94
                95          95
                96          96
                97          97
                98          98
                99          99
               100         100
               101         101
               102         102
               103         103
               104         104
               105         105
               106         106
               107         107
               108         108
               109         109
               110         110
               111         111
               112         112
               113         113
               114         114
               115         115
               116         116
               117         117
               118         118
               119         119
               120         120
               121         121
               122         122
               123         123
               124         124
               125         125
               126         126
               127         127
               128         128
               129         129
               130         130
               131         131
               132         132
               133         133
               134         134
               135         135
               136         136
               137         137
               138         138
               139         139
               140         140
               141         141
               142         142
               143         143
               144         144
               145         145
               146         146
               147         147
               148         148
               149         149
               150         150
               151         151
               152         152
               153         153
               154         154
               155         155
               156         156
               157         157
               158         158
               159         159
               160         160
               161         161
               162         162
               163         163
               164         164
               165         165
               166         166
               167         167
               168         168
               169         169
               170         170
               171         171
               172         172
               173         173
               174         174
               175         175
               176         176
               177         177
               178         178
               179         179
               180         180
               181         181
               182         182
               183         183
               184         184
               185         185
               186         186
               187         187
               188         188
               189         189
               190         190
               191         191
               192         192
               193         193
               194         194
               195         195
               196         196
               197         197
               198         198
               199         199
               200         200
               201         201
               202         202
               203         203
               204         204
               205         205
               206         206
               207         207
               208         208
               209         209
               210         210
               211         211
               212         212
               213         213
               214         214
               215         215
               216         216
               217         217
               218         218
               219         219
               220         220
               221         221
               222         222
               223         223
               224         224
               225         225
               226         226
               227         227
               228         228
               229         229
               230         230
               231         231
               232         232
               233         233
               234         234
               235         235
               236         236
               237         237
               238         238
               239         239
               240         240
               241         241
               242         242
               243         243

----------------------------------------------------------------------------------------

 
 
 KPOINTS: pymatgen v2020.8.13 with grid density = 

Automatic generation of k-mesh.
 Grid dimensions read from file:
 generate k-points for:    2    2    1

 Generating k-lattice:

  Cartesian coordinates                     Fractional coordinates (reciprocal lattice)
     0.038515538  0.000000000  0.000000000     0.500000000  0.000000000  0.000000000
     0.000000000  0.042265669  0.000000000     0.000000000  0.500000000  0.000000000
     0.000000000  0.000000000  0.032760223     0.000000000  0.000000000  1.000000000

  Length of vectors
     0.038515538  0.042265669  0.032760223

  Shift w.r.t. Gamma in fractional coordinates (k-lattice)
     0.000000000  0.000000000  0.000000000

 
 Subroutine IBZKPT returns following result:
 ===========================================
 
 Found      4 irreducible k-points:
 
 Following reciprocal coordinates:
            Coordinates               Weight
  0.000000  0.000000  0.000000      1.000000
  0.500000  0.000000  0.000000      1.000000
  0.000000  0.500000  0.000000      1.000000
  0.500000  0.500000  0.000000      1.000000
 
 Following cartesian coordinates:
            Coordinates               Weight
  0.000000  0.000000  0.000000      1.000000
  0.038516  0.000000  0.000000      1.000000
  0.000000  0.042266  0.000000      1.000000
  0.038516  0.042266  0.000000      1.000000
 


--------------------------------------------------------------------------------------------------------




 Dimension of arrays:
   k-points           NKPTS =      4   k-points in BZ     NKDIM =      4   number of bands    NBANDS=   1216
   number of dos      NEDOS =    301   number of ions     NIONS =    243
   non local maximal  LDIM  =      6   non local SUM 2l+1 LMDIM =     18
   total plane-waves  NPLWV = ******
   max r-space proj   IRMAX =      1   max aug-charges    IRDMAX=  21664
   dimension x,y,z NGX =   108 NGY =   96 NGZ =  250
   dimension x,y,z NGXF=   216 NGYF=  192 NGZF=  500
   support grid    NGXF=   216 NGYF=  192 NGZF=  500
   ions per type =               1   2  80 160
   NGX,Y,Z   is equivalent  to a cutoff of  13.83, 13.49, 13.62 a.u.
   NGXF,Y,Z  is equivalent  to a cutoff of  27.66, 26.98, 27.23 a.u.

 SYSTEM =  TiO2                                    
 POSCAR =   C  O Ti  O                             

--------------------------------------------------------------------------------------------------------


  energy-cutoff  :      600.00
  volume of cell :     4687.80
      direct lattice vectors                 reciprocal lattice vectors
    12.981773603  0.000000000  0.000000000     0.077031077  0.000000000  0.000000000
     0.000000000 11.829932295  0.000000000     0.000000000  0.084531338  0.000000000
     0.000000000  0.000000000 30.524823105     0.000000000  0.000000000  0.032760223

  length of vectors
    12.981773603 11.829932295 30.524823105     0.077031077  0.084531338  0.032760223


 
 k-points in units of 2pi/SCALE and weight: pymatgen v2020.8.13 with grid density = 
   0.00000000  0.00000000  0.00000000       0.250
   0.03851554  0.00000000  0.00000000       0.250
   0.00000000  0.04226567  0.00000000       0.250
   0.03851554  0.04226567  0.00000000       0.250
 
 k-points in reciprocal lattice and weights: pymatgen v2020.8.13 with grid density = 
   0.00000000  0.00000000  0.00000000       0.250
   0.50000000  0.00000000  0.00000000       0.250
   0.00000000  0.50000000  0.00000000       0.250
   0.50000000  0.50000000  0.00000000       0.250
 
 position of ions in fractional coordinates (direct lattice) 
   0.42109209  0.49999998  0.81465411
   0.36324880  0.50000000  0.84350403
   0.48428788  0.49999997  0.78697741
   0.75000000  0.62500000  0.28735710
   0.00000000  0.75000000  0.28735710
   0.00000000  0.62500000  0.39367855
   0.75000000  0.75000000  0.39367855
   0.75000000  0.62500000  0.50000000
   0.00000000  0.75000000  0.50000000
   0.99996268  0.62502479  0.60414027
   0.74998577  0.74999458  0.61011080
   0.74936787  0.62505965  0.71960703
   0.99986151  0.75014512  0.70809050
   0.75000000  0.87500000  0.28735710
   0.00000000  0.00000000  0.28735710
   0.00000000  0.87500000  0.39367855
   0.75000000  0.00000000  0.39367855
   0.75000000  0.87500000  0.50000000
   0.00000000  0.00000000  0.50000000
   0.99999212  0.87502630  0.60418175
   0.75002583  1.00000000  0.61011963
   0.74978857  0.87507083  0.71965144
   0.00020697  1.00000000  0.70808972
   0.75000000  0.12500000  0.28735710
   0.00000000  0.25000000  0.28735710
   0.00000000  0.12500000  0.39367855
   0.75000000  0.25000000  0.39367855
   0.75000000  0.12500000  0.50000000
   0.00000000  0.25000000  0.50000000
   0.99999211  0.12497371  0.60418175
   0.74998578  0.25000541  0.61011080
   0.74978857  0.12492917  0.71965143
   0.99986151  0.24985488  0.70809050
   0.75000000  0.37500000  0.28735710
   0.00000000  0.50000000  0.28735710
   0.00000000  0.37500000  0.39367855
   0.75000000  0.50000000  0.39367855
   0.75000000  0.37500000  0.50000000
   0.00000000  0.50000000  0.50000000
   0.99996267  0.37497522  0.60414027
   0.75000624  0.50000000  0.61016965
   0.74936787  0.37494035  0.71960703
   0.99903913  0.50000000  0.70805534
   0.25000000  0.62500000  0.28735710
   0.50000000  0.75000000  0.28735710
   0.50000000  0.62500000  0.39367855
   0.25000000  0.75000000  0.39367855
   0.25000000  0.62500000  0.50000000
   0.50000000  0.75000000  0.50000000
   0.50001631  0.62403079  0.60485131
   0.24991870  0.75008130  0.60995750
   0.24898326  0.62544068  0.71908368
   0.50019468  0.75025581  0.70749392
   0.25000000  0.87500000  0.28735710
   0.50000000  0.00000000  0.28735710
   0.50000000  0.87500000  0.39367855
   0.25000000  0.00000000  0.39367855
   0.25000000  0.87500000  0.50000000
   0.50000000  0.00000000  0.50000000
   0.50014021  0.87457767  0.60365588
   0.25011430  1.00000000  0.61012547
   0.25029635  0.87508780  0.71967224
   0.49999412  1.00000000  0.70755042
   0.25000000  0.12500000  0.28735710
   0.50000000  0.25000000  0.28735710
   0.50000000  0.12500000  0.39367855
   0.25000000  0.25000000  0.39367855
   0.25000000  0.12500000  0.50000000
   0.50000000  0.25000000  0.50000000
   0.50014021  0.12542234  0.60365588
   0.24991870  0.24991870  0.60995749
   0.25029635  0.12491221  0.71967224
   0.50019468  0.24974419  0.70749392
   0.25000000  0.37500000  0.28735710
   0.50000000  0.50000000  0.28735710
   0.50000000  0.37500000  0.39367855
   0.25000000  0.50000000  0.39367855
   0.25000000  0.37500000  0.50000000
   0.50000000  0.50000000  0.50000000
   0.50001632  0.37596923  0.60485132
   0.24974623  0.50000000  0.60995669
   0.24898326  0.37455932  0.71908367
   0.49860463  0.50000000  0.71010450
   0.75000000  0.75000000  0.24570167
   0.75000000  0.75000000  0.32901254
   0.09794692  0.62500000  0.28735710
   0.90205308  0.62500000  0.28735710
   0.00000000  0.75000000  0.35202312
   0.00000000  0.75000000  0.43533399
   0.84794692  0.62500000  0.39367855
   0.15205308  0.62500000  0.39367855
   0.75000000  0.75000000  0.45834457
   0.75000000  0.75000000  0.54165543
   0.09794692  0.62500000  0.50000000
   0.90205308  0.62500000  0.50000000
   0.99992738  0.75007386  0.56516363
   0.00023741  0.74993294  0.64871255
   0.85011010  0.62506422  0.60683709
   0.14980619  0.62513808  0.60658740
   0.75007124  0.75016297  0.67125848
   0.74967130  0.74999375  0.75490354
   0.09350418  0.62462849  0.71882878
   0.90584999  0.62511082  0.71839117
   0.75000000  0.00000000  0.24570167
   0.75000000  0.00000000  0.32901254
   0.09794692  0.87500000  0.28735710
   0.90205308  0.87500000  0.28735710
   0.00000000  0.00000000  0.35202312
   0.00000000  0.00000000  0.43533399
   0.84794692  0.87500000  0.39367855
   0.15205308  0.87500000  0.39367855
   0.75000000  0.00000000  0.45834457
   0.75000000  0.00000000  0.54165543
   0.09794692  0.87500000  0.50000000
   0.90205308  0.87500000  0.50000000
   0.99992635  0.00000000  0.56517034
   0.00019273  1.00000000  0.64870776
   0.85015897  0.87499343  0.60686458
   0.14991542  0.87517898  0.60674684
   0.75016119  1.00000000  0.67126889
   0.75020442  0.00000000  0.75493641
   0.09382971  0.87492869  0.71856127
   0.90620307  0.87494078  0.71836734
   0.75000000  0.25000000  0.24570167
   0.75000000  0.25000000  0.32901254
   0.09794692  0.12500000  0.28735710
   0.90205308  0.12500000  0.28735710
   0.00000000  0.25000000  0.35202312
   0.00000000  0.25000000  0.43533399
   0.84794692  0.12500000  0.39367855
   0.15205308  0.12500000  0.39367855
   0.75000000  0.25000000  0.45834457
   0.75000000  0.25000000  0.54165543
   0.09794692  0.12500000  0.50000000
   0.90205308  0.12500000  0.50000000
   0.99992738  0.24992614  0.56516363
   0.00023742  0.25006706  0.64871255
   0.85015897  0.12500657  0.60686459
   0.14991542  0.12482103  0.60674684
   0.75007123  0.24983703  0.67125848
   0.74967130  0.25000624  0.75490353
   0.09382971  0.12507131  0.71856127
   0.90620307  0.12505922  0.71836734
   0.75000000  0.50000000  0.24570167
   0.75000000  0.50000000  0.32901254
   0.09794692  0.37500000  0.28735710
   0.90205308  0.37500000  0.28735710
   0.00000000  0.50000000  0.35202312
   0.00000000  0.50000000  0.43533399
   0.84794692  0.37500000  0.39367855
   0.15205308  0.37500000  0.39367855
   0.75000000  0.50000000  0.45834457
   0.75000000  0.50000000  0.54165543
   0.09794692  0.37500000  0.50000000
   0.90205308  0.37500000  0.50000000
   0.99988823  0.50000001  0.56515353
   0.00008151  0.50000000  0.64867998
   0.85011010  0.37493578  0.60683709
   0.14980619  0.37486192  0.60658740
   0.75040416  0.50000000  0.67130023
   0.74894474  0.50000000  0.75486457
   0.09350418  0.37537152  0.71882878
   0.90584999  0.37488918  0.71839117
   0.25000000  0.75000000  0.24570167
   0.25000000  0.75000000  0.32901254
   0.59794692  0.62500000  0.28735710
   0.40205308  0.62500000  0.28735710
   0.50000000  0.75000000  0.35202312
   0.50000000  0.75000000  0.43533399
   0.34794692  0.62500000  0.39367855
   0.65205308  0.62500000  0.39367855
   0.25000000  0.75000000  0.45834457
   0.25000000  0.75000000  0.54165543
   0.59794692  0.62500000  0.50000000
   0.40205308  0.62500000  0.50000000
   0.49989435  0.74914738  0.56513265
   0.50056033  0.75089101  0.64822883
   0.34980523  0.62499448  0.60712128
   0.65011866  0.62494337  0.60694663
   0.24858509  0.75036400  0.67120946
   0.25058444  0.74950909  0.75484359
   0.59354377  0.62591346  0.71785396
   0.40478849  0.62730309  0.71637247
   0.25000000  0.00000000  0.24570167
   0.25000000  0.00000000  0.32901254
   0.59794692  0.87500000  0.28735710
   0.40205308  0.87500000  0.28735710
   0.50000000  0.00000000  0.35202312
   0.50000000  0.00000000  0.43533399
   0.34794692  0.87500000  0.39367855
   0.65205308  0.87500000  0.39367855
   0.25000000  0.00000000  0.45834457
   0.25000000  0.00000000  0.54165543
   0.59794692  0.87500000  0.50000000
   0.40205308  0.87500000  0.50000000
   0.49994425  1.00000000  0.56489148
   0.49998659  0.00000001  0.64824955
   0.34990141  0.87493365  0.60676804
   0.65011651  0.87508887  0.60664833
   0.24987498  1.00000000  0.67136559
   0.24997222  0.00000000  0.75498261
   0.59391230  0.87551908  0.71817130
   0.40603860  0.87516167  0.71815400
   0.25000000  0.25000000  0.24570167
   0.25000000  0.25000000  0.32901254
   0.59794692  0.12500000  0.28735710
   0.40205308  0.12500000  0.28735710
   0.50000000  0.25000000  0.35202312
   0.50000000  0.25000000  0.43533399
   0.34794692  0.12500000  0.39367855
   0.65205308  0.12500000  0.39367855
   0.25000000  0.25000000  0.45834457
   0.25000000  0.25000000  0.54165543
   0.59794692  0.12500000  0.50000000
   0.40205308  0.12500000  0.50000000
   0.49989435  0.25085264  0.56513265
   0.50056033  0.24910899  0.64822883
   0.34990141  0.12506635  0.60676803
   0.65011652  0.12491113  0.60664832
   0.24858508  0.24963599  0.67120945
   0.25058445  0.25049092  0.75484358
   0.59391230  0.12448092  0.71817130
   0.40603860  0.12483833  0.71815400
   0.25000000  0.50000000  0.24570167
   0.25000000  0.50000000  0.32901254
   0.59794692  0.37500000  0.28735710
   0.40205308  0.37500000  0.28735710
   0.50000000  0.50000000  0.35202312
   0.50000000  0.50000000  0.43533399
   0.34794692  0.37500000  0.39367855
   0.65205308  0.37500000  0.39367855
   0.25000000  0.50000000  0.45834457
   0.25000000  0.50000000  0.54165543
   0.59794692  0.37500000  0.50000000
   0.40205308  0.37500000  0.50000000
   0.49988902  0.50000000  0.56538752
   0.50015357  0.50000001  0.64946866
   0.34980524  0.37500553  0.60712129
   0.65011865  0.37505663  0.60694663
   0.24767521  0.50000000  0.67110000
   0.25441005  0.50000000  0.75468995
   0.59354377  0.37408655  0.71785396
   0.40478849  0.37269691  0.71637245
 
 position of ions in cartesian coordinates  (Angst):
   5.46652216  5.91496595 24.86717263
   4.71561371  5.91496611 25.74781123
   6.28691559  5.91496578 24.02234615
   9.73633020  7.39370768  8.77152475
   0.00000000  8.87244922  8.77152475
   0.00000000  7.39370768 12.01696815
   9.73633020  8.87244922 12.01696815
   9.73633020  7.39370768 15.26241155
   0.00000000  8.87244922 15.26241155
  12.98128906  7.39400089 18.44127487
   9.73614550  8.87238516 18.62352423
   9.72812402  7.39441328 21.96587732
  12.97997572  8.87416596 21.61433739
   9.73633020 10.35119076  8.77152475
   0.00000000  0.00000000  8.77152475
   0.00000000 10.35119076 12.01696815
   9.73633020  0.00000000 12.01696815
   9.73633020 10.35119076 15.26241155
   0.00000000  0.00000000 15.26241155
  12.98167125 10.35150190 18.44254110
   9.73666550 11.82993224 18.62379387
   9.73358550 10.35202862 21.96723282
   0.00268685 11.82993228 21.61431340
   9.73633020  1.47874154  8.77152475
   0.00000000  2.95748307  8.77152475
   0.00000000  1.47874154 12.01696815
   9.73633020  2.95748307 12.01696815
   9.73633020  1.47874154 15.26241155
   0.00000000  2.95748307 15.26241155
  12.98167122  1.47843047 18.44254119
   9.73614554  2.95754710 18.62352416
   9.73358548  1.47790364 21.96723269
  12.97997573  2.95576632 21.61433741
   9.73633020  4.43622461  8.77152475
   0.00000000  5.91496615  8.77152475
   0.00000000  4.43622461 12.01696815
   9.73633020  5.91496615 12.01696815
   9.73633020  4.43622461 15.26241155
   0.00000000  5.91496615 15.26241155
  12.98128904  4.43593147 18.44127478
   9.73641118  5.91496616 18.62532048
   9.72812400  4.43551899 21.96587719
  12.96929977  5.91496616 21.61326390
   3.24544340  7.39370768  8.77152475
   6.49088680  8.87244922  8.77152475
   6.49088680  7.39370768 12.01696815
   3.24544340  8.87244922 12.01696815
   3.24544340  7.39370768 15.26241155
   6.49088680  8.87244922 15.26241155
   6.49109857  7.38224195 18.46297923
   3.24438804  8.87341105 18.61884467
   3.23224427  7.39892095 21.94990228
   6.49341412  8.87547547 21.59612670
   3.24544340 10.35119076  8.77152475
   6.49088680  0.00000000  8.77152475
   6.49088680 10.35119076 12.01696815
   3.24544340  0.00000000 12.01696815
   3.24544340 10.35119076 15.26241155
   6.49088680  0.00000000 15.26241155
   6.49270695 10.34619467 18.42648909
   3.24692720 11.82993227 18.62397214
   3.24929061 10.35222937 21.96786789
   6.49081051 11.82993227 21.59785137
   3.24544340  1.47874154  8.77152475
   6.49088680  2.95748307  8.77152475
   6.49088680  1.47874154 12.01696815
   3.24544340  2.95748307 12.01696815
   3.24544340  1.47874154 15.26241155
   6.49088680  2.95748307 15.26241155
   6.49270699  1.48373779 18.42648898
   3.24438801  2.95652125 18.61884446
   3.24929060  1.47770301 21.96786778
   6.49341411  2.95445688 21.59612662
   3.24544340  4.43622461  8.77152475
   6.49088680  5.91496615  8.77152475
   6.49088680  4.43622461 12.01696815
   3.24544340  5.91496615 12.01696815
   3.24544340  4.43622461 15.26241155
   6.49088680  5.91496615 15.26241155
   6.49109860  4.44769050 18.46297970
   3.24214896  5.91496620 18.61882014
   3.23224426  4.43101140 21.94990181
   6.47277244  5.91496619 21.67581436
   9.73633020  8.87244922  7.50000000
   9.73633020  8.87244922 10.04304950
   1.27152475  7.39370768  8.77152475
  11.71024885  7.39370768  8.77152475
   0.00000000  8.87244922 10.74544340
   0.00000000  8.87244922 13.28849290
  11.00785495  7.39370768 12.01696815
   1.97391865  7.39370768 12.01696815
   9.73633020  8.87244922 13.99088680
   9.73633020  8.87244922 16.53393630
   1.27152475  7.39370768 15.26241155
  11.71024885  7.39370768 15.26241155
  12.98083082  8.87332296 17.25151968
   0.00308205  8.87165595 19.80183594
  11.03593682  7.39446740 18.52359477
   1.94475000  7.39534120 18.51597317
   9.73725496  8.87437714 20.49004630
   9.73206311  8.87237534 23.04329687
   1.21385016  7.38931271 21.94212130
  11.75953944  7.39501871 21.92876326
   9.73633020  0.00000000  7.50000000
   9.73633020  0.00000000 10.04304950
   1.27152475 10.35119076  8.77152475
  11.71024885 10.35119076  8.77152475
   0.00000000  0.00000000 10.74544340
   0.00000000  0.00000000 13.28849290
  11.00785495 10.35119076 12.01696815
   1.97391865 10.35119076 12.01696815
   9.73633020  0.00000000 13.99088680
   9.73633020  0.00000000 16.53393630
   1.27152475 10.35119076 15.26241155
  11.71024885 10.35119076 15.26241155
  12.98081749  0.00000004 17.25172475
   0.00250197 11.82993228 19.80168957
  11.03657130 10.35111306 18.52443403
   1.94616811 10.35330803 18.52084000
   9.73842271 11.82993226 20.49036404
   9.73898396  0.00000000 23.04430044
   1.21807606 10.35034714 21.93395562
  11.76412307 10.35049014 21.92803583
   9.73633020  2.95748307  7.50000000
   9.73633020  2.95748307 10.04304950
   1.27152475  1.47874154  8.77152475
  11.71024885  1.47874154  8.77152475
   0.00000000  2.95748307 10.74544340
   0.00000000  2.95748307 13.28849290
  11.00785495  1.47874154 12.01696815
   1.97391865  1.47874154 12.01696815
   9.73633020  2.95748307 13.99088680
   9.73633020  2.95748307 16.53393630
   1.27152475  1.47874154 15.26241155
  11.71024885  1.47874154 15.26241155
  12.98083082  2.95660935 17.25151973
   0.00308208  2.95827644 19.80183595
  11.03657132  1.47881925 18.52443411
   1.94616809  1.47662429 18.52084000
   9.73725495  2.95555516 20.49004621
   9.73206310  2.95755694 23.04329671
   1.21807601  1.47958515 21.93395568
  11.76412308  1.47944212 21.92803585
   9.73633020  5.91496615  7.50000000
   9.73633020  5.91496615 10.04304950
   1.27152475  4.43622461  8.77152475
  11.71024885  4.43622461  8.77152475
   0.00000000  5.91496615 10.74544340
   0.00000000  5.91496615 13.28849290
  11.00785495  4.43622461 12.01696815
   1.97391865  4.43622461 12.01696815
   9.73633020  5.91496615 13.99088680
   9.73633020  5.91496615 16.53393630
   1.27152475  4.43622461 15.26241155
  11.71024885  4.43622461 15.26241155
  12.98032261  5.91496622 17.25121142
   0.00105818  5.91496613 19.80084160
  11.03593680  4.43546489 18.52359473
   1.94475000  4.43459116 18.51597311
   9.74157697  5.91496620 20.49132084
   9.72263107  5.91496613 23.04210741
   1.21385011  4.44061961 21.94212135
  11.75953943  4.43491363 21.92876329
   3.24544340  8.87244922  7.50000000
   3.24544340  8.87244922 10.04304950
   7.76241155  7.39370768  8.77152475
   5.21936205  7.39370768  8.77152475
   6.49088680  8.87244922 10.74544340
   6.49088680  8.87244922 13.28849290
   4.51696815  7.39370768 12.01696815
   8.46480545  7.39370768 12.01696815
   3.24544340  8.87244922 13.99088680
   3.24544340  8.87244922 16.53393630
   7.76241155  7.39370768 15.26241155
   5.21936205  7.39370768 15.26241155
   6.48951533  8.86236276 17.25057418
   6.49816087  8.88298976 19.78707041
   4.54109236  7.39364239 18.53226979
   8.43969322  7.39303778 18.52693848
   3.22707531  8.87675535 20.48854990
   3.25303053  8.86664179 23.04146699
   7.70525082  7.40451383 21.91236522
   5.25487252  7.42095307 21.86714283
   3.24544340  0.00000000  7.50000000
   3.24544340  0.00000000 10.04304950
   7.76241155 10.35119076  8.77152475
   5.21936205 10.35119076  8.77152475
[...]
      9.73359      1.47790     21.96723         0.015417      0.003277     -0.828538
     12.97998      2.95577     21.61434         0.006350      0.024073      0.920266
      9.73633      4.43622      8.77152        -0.000714     -0.000017     -3.485142
      0.00000      5.91497      8.77152        -0.000581     -0.000003      2.255115
      0.00000      4.43622     12.01697        -0.002960     -0.000052      0.489805
      9.73633      5.91497     12.01697        -0.002123      0.000010     -0.721695
      9.73633      4.43622     15.26241        -0.014966      0.005417      0.596637
      0.00000      5.91497     15.26241        -0.009712      0.000003     -0.619210
     12.98129      4.43593     18.44127        -0.004006      0.000900      0.460436
      9.73641      5.91497     18.62532         0.004037     -0.000003     -0.590844
      9.72812      4.43552     21.96588         0.017731      0.003692     -0.830122
     12.96930      5.91497     21.61326         0.024165     -0.000007      0.913604
      3.24544      7.39371      8.77152         0.000686      0.000229     -3.486644
      6.49089      8.87245      8.77152         0.000503      0.000284      2.257273
      6.49089      7.39371     12.01697         0.002810      0.005715      0.495954
      3.24544      8.87245     12.01697         0.002539      0.000797     -0.731293
      3.24544      7.39371     15.26241         0.016076      0.002374      0.563102
      6.49089      8.87245     15.26241         0.006256     -0.027031     -0.562015
      6.49110      7.38224     18.46298        -0.002725      0.064911      0.410934
      3.24439      8.87341     18.61884        -0.000936     -0.005922     -0.569022
      3.23224      7.39892     21.94990         0.016067     -0.043225     -0.816120
      6.49341      8.87548     21.59613         0.001734      0.042796      0.919276
      3.24544     10.35119      8.77152         0.000806      0.000255     -3.486415
      6.49089      0.00000      8.77152         0.000479      0.000017      2.257602
      6.49089     10.35119     12.01697         0.002473      0.001878      0.498560
      3.24544      0.00000     12.01697         0.002882     -0.000001     -0.730162
      3.24544     10.35119     15.26241         0.008636      0.018193      0.577339
      6.49089      0.00000     15.26241         0.004055      0.000010     -0.682447
      6.49271     10.34619     18.42649        -0.007494      0.043539      0.476801
      3.24693     11.82993     18.62397        -0.004872     -0.000004     -0.579537
      3.24929     10.35223     21.96787        -0.027471     -0.006403     -0.819275
      6.49081     11.82993     21.59785        -0.013901     -0.000006      0.926806
      3.24544      1.47874      8.77152         0.000812     -0.000265     -3.486438
      6.49089      2.95748      8.77152         0.000505     -0.000307      2.257294
      6.49089      1.47874     12.01697         0.002470     -0.001864      0.498568
      3.24544      2.95748     12.01697         0.002538     -0.000790     -0.731287
      3.24544      1.47874     15.26241         0.008647     -0.018190      0.577333
      6.49089      2.95748     15.26241         0.006254      0.027010     -0.562019
      6.49271      1.48374     18.42649        -0.007500     -0.043533      0.476791
      3.24439      2.95652     18.61884        -0.000944      0.005921     -0.569022
      3.24929      1.47770     21.96787        -0.027478      0.006404     -0.819284
      6.49341      2.95446     21.59613         0.001735     -0.042785      0.919278
      3.24544      4.43622      8.77152         0.000683     -0.000207     -3.486624
      6.49089      5.91497      8.77152         0.000545      0.000014      2.256933
      6.49089      4.43622     12.01697         0.002821     -0.005727      0.495962
      3.24544      5.91497     12.01697         0.002181     -0.000013     -0.732156
      3.24544      4.43622     15.26241         0.016076     -0.002378      0.563099
      6.49089      5.91497     15.26241         0.008624      0.000010     -0.539224
      6.49110      4.44769     18.46298        -0.002720     -0.064915      0.410933
      3.24215      5.91497     18.61882         0.008710      0.000007     -0.581952
      3.23224      4.43101     21.94990         0.016082      0.043225     -0.816121
      6.47277      5.91497     21.67581         0.013948     -0.000009      0.768903
      9.73633      8.87245      7.50000         0.000131     -0.000065      1.220717
      9.73633      8.87245     10.04305         0.000337     -0.000054      1.871825
      1.27152      7.39371      8.77152        -1.782679     -0.000021     -0.800434
     11.71025      7.39371      8.77152         1.783442     -0.000021     -0.800546
      0.00000      8.87245     10.74544         0.000355     -0.000032     -1.402950
      0.00000      8.87245     13.28849         0.000833     -0.000066      0.047443
     11.00785      7.39371     12.01697         0.592510      0.000079      0.061729
      1.97392      7.39371     12.01697        -0.589513     -0.000237      0.063006
      9.73633      8.87245     13.99089         0.001733      0.001219     -0.233987
      9.73633      8.87245     16.53394         0.005368     -0.002228      0.473084
      1.27152      7.39371     15.26241        -0.258639     -0.000187      0.086973
     11.71025      7.39371     15.26241         0.272448      0.000940      0.083092
     12.98083      8.87332     17.25152        -0.001189      0.000004     -0.475328
      0.00308      8.87166     19.80184         0.002961     -0.000662     -0.668304
     11.03594      7.39447     18.52359         0.066986     -0.001571      0.001886
      1.94475      7.39534     18.51597        -0.065505     -0.000153     -0.002096
      9.73725      8.87438     20.49005         0.001338      0.001350      0.533772
      9.73206      8.87238     23.04330        -0.002540      0.000640      1.208556
      1.21385      7.38931     21.94212         0.168501     -0.005013      0.140172
     11.75954      7.39502     21.92876        -0.215729      0.013976      0.129130
      9.73633      0.00000      7.50000         0.000143      0.000005      1.220788
      9.73633      0.00000     10.04305         0.000374     -0.000003      1.871874
      1.27152     10.35119      8.77152        -1.782730     -0.000030     -0.800441
     11.71025     10.35119      8.77152         1.783453     -0.000020     -0.800528
      0.00000      0.00000     10.74544         0.000341     -0.000006     -1.402961
      0.00000      0.00000     13.28849         0.000737      0.000000      0.047513
     11.00785     10.35119     12.01697         0.592423      0.000015      0.061835
      1.97392     10.35119     12.01697        -0.589722     -0.000283      0.062908
      9.73633      0.00000     13.99089         0.000997      0.000002     -0.233035
      9.73633      0.00000     16.53394         0.011742      0.000001      0.464102
      1.27152     10.35119     15.26241        -0.261089     -0.001075      0.085115
     11.71025     10.35119     15.26241         0.270080      0.000130      0.082219
     12.98082      0.00000     17.25172        -0.001767     -0.000005     -0.476095
      0.00250     11.82993     19.80169         0.000044     -0.000003     -0.666838
     11.03657     10.35111     18.52443         0.063845     -0.000386      0.002177
      1.94617     10.35331     18.52084        -0.068309     -0.000837     -0.000821
      9.73842     11.82993     20.49036         0.000209     -0.000001      0.531465
      9.73898      0.00000     23.04430         0.003586     -0.000002      1.209858
      1.21808     10.35035     21.93396         0.211095     -0.001036      0.132529
     11.76412     10.35049     21.92804        -0.211014      0.011718      0.127038
      9.73633      2.95748      7.50000         0.000124      0.000059      1.220714
      9.73633      2.95748     10.04305         0.000334      0.000049      1.871827
      1.27152      1.47874      8.77152        -1.782726      0.000031     -0.800439
     11.71025      1.47874      8.77152         1.783447      0.000016     -0.800532
      0.00000      2.95748     10.74544         0.000357      0.000030     -1.402957
      0.00000      2.95748     13.28849         0.000831      0.000070      0.047447
     11.00785      1.47874     12.01697         0.592419     -0.000016      0.061835
      1.97392      1.47874     12.01697        -0.589723      0.000288      0.062909
      9.73633      2.95748     13.99089         0.001730     -0.001216     -0.233986
      9.73633      2.95748     16.53394         0.005367      0.002235      0.473069
      1.27152      1.47874     15.26241        -0.261089      0.001075      0.085114
     11.71025      1.47874     15.26241         0.270080     -0.000135      0.082219
     12.98083      2.95661     17.25152        -0.001184      0.000003     -0.475325
      0.00308      2.95828     19.80184         0.002960      0.000668     -0.668312
     11.03657      1.47882     18.52443         0.063845      0.000379      0.002173
      1.94617      1.47662     18.52084        -0.068309      0.000836     -0.000820
      9.73725      2.95556     20.49005         0.001342     -0.001343      0.533783
      9.73206      2.95756     23.04330        -0.002542     -0.000628      1.208555
      1.21808      1.47959     21.93396         0.211101      0.001032      0.132535
     11.76412      1.47944     21.92804        -0.211006     -0.011714      0.127042
      9.73633      5.91497      7.50000         0.000108      0.000000      1.220638
      9.73633      5.91497     10.04305         0.000306     -0.000001      1.871658
      1.27152      4.43622      8.77152        -1.782669      0.000028     -0.800438
     11.71025      4.43622      8.77152         1.783431      0.000019     -0.800551
      0.00000      5.91497     10.74544         0.000367     -0.000000     -1.402949
      0.00000      5.91497     13.28849         0.000904      0.000001      0.047329
     11.00785      4.43622     12.01697         0.592518     -0.000076      0.061731
      1.97392      4.43622     12.01697        -0.589511      0.000231      0.063005
      9.73633      5.91497     13.99089         0.002836     -0.000002     -0.235441
      9.73633      5.91497     16.53394         0.003465     -0.000003      0.480059
      1.27152      4.43622     15.26241        -0.258632      0.000192      0.086968
     11.71025      4.43622     15.26241         0.272441     -0.000936      0.083089
     12.98032      5.91497     17.25121        -0.001539     -0.000006     -0.474493
      0.00106      5.91497     19.80084         0.007522     -0.000005     -0.668134
     11.03594      4.43546     18.52359         0.066987      0.001577      0.001884
      1.94475      4.43459     18.51597        -0.065505      0.000148     -0.002093
      9.74158      5.91497     20.49132         0.003077     -0.000004      0.535852
      9.72263      5.91497     23.04211         0.007531     -0.000004      1.200942
      1.21385      4.44062     21.94212         0.168494      0.005019      0.140174
     11.75954      4.43491     21.92876        -0.215731     -0.013973      0.129133
      3.24544      8.87245      7.50000        -0.000171     -0.000137      1.221312
      3.24544      8.87245     10.04305        -0.000382     -0.000168      1.874178
      7.76241      7.39371      8.77152        -1.782777     -0.000178     -0.800896
      5.21936      7.39371      8.77152         1.781932     -0.000183     -0.800773
      6.49089      8.87245     10.74544        -0.000388     -0.001112     -1.406960
      6.49089      8.87245     13.28849        -0.000952     -0.001741      0.030860
      4.51697      7.39371     12.01697         0.586165     -0.000569      0.062448
      8.46481      7.39371     12.01697        -0.589319     -0.000248      0.061243
      3.24544      8.87245     13.99089        -0.001877     -0.003538     -0.221250
      3.24544      8.87245     16.53394        -0.000054     -0.004380      0.472641
      7.76241      7.39371     15.26241        -0.260413     -0.015662      0.075025
      5.21936      7.39371     15.26241         0.244043     -0.016142      0.074766
      6.48952      8.86236     17.25057        -0.001873     -0.056762     -0.453759
      6.49816      8.88299     19.78707         0.003154      0.002408     -0.661723
      4.54109      7.39364     18.53227         0.072090     -0.000850      0.002335
      8.43969      7.39304     18.52694        -0.073102      0.001887     -0.002768
      3.22708      8.87676     20.48855        -0.014716      0.015220      0.511994
      3.25303      8.86664     23.04147         0.010887     -0.006183      1.206659
      7.70525      7.40451     21.91237         0.202925     -0.014640      0.091656
      5.25487      7.42095     21.86714        -0.221704     -0.004977      0.051314
      3.24544      0.00000      7.50000        -0.000184      0.000000      1.221294
      3.24544      0.00000     10.04305        -0.000435     -0.000001      1.873748
      7.76241     10.35119      8.77152        -1.782676     -0.000137     -0.800879
      5.21936     10.35119      8.77152         1.781873     -0.000151     -0.800792
      6.49089      0.00000     10.74544        -0.000383      0.000008     -1.407819
      6.49089      0.00000     13.28849        -0.000740      0.000009      0.025956
      4.51697     10.35119     12.01697         0.585205     -0.000347      0.062301
      8.46481     10.35119     12.01697        -0.588057     -0.000061      0.061279
      3.24544      0.00000     13.99089        -0.001549      0.000002     -0.223943
      3.24544      0.00000     16.53394         0.001801     -0.000001      0.468766
      7.76241     10.35119     15.26241        -0.257623     -0.004880      0.083782
      5.21936     10.35119     15.26241         0.247174     -0.005437      0.082496
      6.49016     11.82993     17.24321        -0.002780      0.000009     -0.461812
      6.49071      0.00000     19.78770        -0.001129      0.000000     -0.697032
      4.54234     10.35041     18.52149         0.086592      0.000901      0.003734
      8.43967     10.35224     18.51783        -0.074067     -0.001565      0.000177
      3.24382     11.82993     20.49332        -0.002964      0.000005      0.518035
      3.24508      0.00000     23.04571        -0.000226      0.000002      1.209595
      7.71003     10.35733     21.92205         0.191339     -0.016153      0.130483
      5.27110     10.35310     21.92152        -0.183315     -0.006786      0.127273
      3.24544      2.95748      7.50000        -0.000167      0.000133      1.221312
      3.24544      2.95748     10.04305        -0.000380      0.000171      1.874178
      7.76241      1.47874      8.77152        -1.782692      0.000155     -0.800880
      5.21936      1.47874      8.77152         1.781877      0.000159     -0.800791
      6.49089      2.95748     10.74544        -0.000388      0.001117     -1.406948
      6.49089      2.95748     13.28849        -0.000950      0.001748      0.030861
      4.51697      1.47874     12.01697         0.585212      0.000353      0.062299
      8.46481      1.47874     12.01697        -0.588063      0.000059      0.061277
      3.24544      2.95748     13.99089        -0.001877      0.003541     -0.221249
      3.24544      2.95748     16.53394        -0.000052      0.004388      0.472636
      7.76241      1.47874     15.26241        -0.257642      0.004891      0.083776
      5.21936      1.47874     15.26241         0.247186      0.005446      0.082496
      6.48952      2.96757     17.25057        -0.001872      0.056753     -0.453765
      6.49816      2.94694     19.78707         0.003151     -0.002412     -0.661724
      4.54234      1.47953     18.52149         0.086594     -0.000896      0.003732
      8.43967      1.47769     18.51783        -0.074072      0.001555      0.000174
      3.22708      2.95318     20.48855        -0.014718     -0.015224      0.511994
      3.25303      2.96329     23.04147         0.010882      0.006178      1.206662
      7.71004      1.47260     21.92205         0.191331      0.016148      0.130492
      5.27110      1.47683     21.92152        -0.183326      0.006795      0.127275
      3.24544      5.91497      7.50000        -0.000157     -0.000003      1.221306
      3.24544      5.91497     10.04305        -0.000358     -0.000010      1.874433
      7.76241      4.43622      8.77152        -1.782779      0.000163     -0.800897
      5.21936      4.43622      8.77152         1.781937      0.000164     -0.800772
      6.49089      5.91497     10.74544        -0.000399     -0.000004     -1.405568
      6.49089      5.91497     13.28849        -0.001094     -0.000014      0.051694
      4.51697      4.43622     12.01697         0.586171      0.000564      0.062450
      8.46481      4.43622     12.01697        -0.589331      0.000244      0.061239
      3.24544      5.91497     13.99089        -0.003055     -0.000008     -0.219756
      3.24544      5.91497     16.53394         0.004218     -0.000009      0.472963
      7.76241      4.43622     15.26241        -0.260408      0.015653      0.075024
      5.21936      4.43622     15.26241         0.244033      0.016133      0.074764
      6.48945      5.91497     17.25835        -0.002807      0.000001     -0.482802
      6.49288      5.91497     19.82492         0.011048      0.000004     -0.500428
      4.54109      4.43629     18.53227         0.072080      0.000840      0.002335
      8.43969      4.43689     18.52694        -0.073105     -0.001880     -0.002770
      3.21526      5.91497     20.48521        -0.017197      0.000000      0.537825
      3.30269      5.91497     23.03678         0.009877     -0.000000      1.134453
      7.70525      4.42542     21.91237         0.202930      0.014645      0.091663
      5.25487      4.40898     21.86714        -0.221708      0.004977      0.051317
 -----------------------------------------------------------------------------------
    total drift:                                0.004950     -0.000010     -0.082970


--------------------------------------------------------------------------------------------------------



  FREE ENERGIE OF THE ION-ELECTRON SYSTEM (eV)
  ---------------------------------------------------
  free  energy   TOTEN  =     -1932.14863947 eV

  energy  without entropy=    -1932.14863947  energy(sigma->0) =    -1932.14863947
 


--------------------------------------------------------------------------------------------------------


    POTLOK:  cpu time      0.1724: real time      0.1728


--------------------------------------------------------------------------------------------------------


     LOOP+:  cpu time   1864.8100: real time   1875.4433
    4ORBIT:  cpu time      0.0000: real time      0.0000

 total amount of memory used by VASP MPI-rank0   739514. kBytes
=======================================================================

   base      :      30000. kBytes
   nonl-proj :     484709. kBytes
   fftplans  :      41481. kBytes
   grid      :      58856. kBytes
   one-center:       1897. kBytes
   wavefun   :     122571. kBytes
 
  
  
 General timing and accounting informations for this job:
 ========================================================
  
                  Total CPU time used (sec):     1913.529
                            User time (sec):     1907.693
                          System time (sec):        5.836
                         Elapsed time (sec):     1925.116
  
                   Maximum memory used (kb):     1290572.
                   Average memory used (kb):          N/A
  
                          Minor page faults:       150780
                          Major page faults:          131
                 Voluntary context switches:         3251
