 vasp.6.3.0 20Jan22 (build Aug 21 2024 11:13:42) complex                         
 executed on        HPECrayEX_GCC date 2024.08.27  13:57:41
 running  512 mpi-ranks, with    1 threads/rank
 distrk:  each k-point on  512 cores,    1 groups
 distr:  one band on NCORE=   8 cores,   64 groups


--------------------------------------------------------------------------------------------------------


 INCAR:
   SYSTEM = MgO-rocksalt
   ISMEAR = 0
   SIGMA = 0.05
   EDIFF = 1E-6
   ALGO = ALL
   ISTART = 0
   IBRION = -1
   NSW = 0
   ISYM = 0
   DIPOL = 0.5 0.5 0.5
   IDIPOL = 3
   LDIPOL = .TRUE.
   GGA = MK
   LUSE_VDW = .TRUE.
   PARAM1 = 0.1234
   PARAM2 = 0.711357
   ZAB_VDW = -1.8867
   AGGAC = 0.0
   ENCUT = 600
   PREC = Accurate
   LASPH = .TRUE.
   LREAL = .FALSE.
   ISPIN = 1
   NELM = 200
   NELMIN = 8
   NCORE = 8
   KPAR = 1
   LWAVE = .FALSE.
   LCHARG = .FALSE.

 POTCAR:    PAW_PBE C 08Apr2002                   
 POTCAR:    PAW_PBE H 15Jun2001                   
 POTCAR:    PAW_PBE Mg_pv 13Apr2007               
 POTCAR:    PAW_PBE O 08Apr2002                   
 -----------------------------------------------------------------------------
|                                                                             |
|               ----> ADVICE to this user running VASP <----                  |
|                                                                             |
|     You have switched on vdW-DFT.                                           |
|     This routine was written and supplied by Jiri Klimes. We recommend      |
|     that you carefully read and cite the following publications:            |
|       J. Klimes, D.R. Bowler, A. Michelides                                 |
|          J. Phys.: Cond Matt. 22 022201 (2010)                              |
|       J. Klimes, D.R. Bowler, A. Michelides                                 |
|          Phys. Rev. B. 83, 195131 (2011)                                    |
|     and references therein.                                                 |
|                                                                             |
 -----------------------------------------------------------------------------

 POTCAR:    PAW_PBE C 08Apr2002                   
   SHA256 =  253f7b50bb8d59471dbedb8285d89021f4a42ed1a2c5d38a03a736e69125dd95 C/POTCAR              
   COPYR  = (c) Copyright 08Apr2002 Georg Kresse                                                    
   COPYR  = This file is part of the software VASP. Any use, copying, and all other rights are regul
   COPYR  = If you do not have a valid VASP license, you may not use, copy or distribute this file. 
   VRHFIN =C: s2p2                                                                                  
   LEXCH  = PE                                                                                      
   EATOM  =   147.1560 eV,   10.8157 Ry                                                             
                                                                                                    
   TITEL  = PAW_PBE C 08Apr2002                                                                     
   LULTRA =        F    use ultrasoft PP ?                                                          
   IUNSCR =        1    unscreen: 0-lin 1-nonlin 2-no                                               
   RPACOR =    1.200    partial core radius                                                         
   POMASS =   12.011; ZVAL   =    4.000    mass and valenz                                          
   RCORE  =    1.500    outmost cutoff radius                                                       
   RWIGS  =    1.630; RWIGS  =    0.863    wigner-seitz radius (au A)                               
   ENMAX  =  400.000; ENMIN  =  300.000 eV                                                          
   ICORE  =        2    local potential                                                             
   LCOR   =        T    correct aug charges                                                         
   LPAW   =        T    paw PP                                                                      
   EAUG   =  644.873                                                                                
   DEXC   =    0.000                                                                                
   RMAX   =    1.529    core radius for proj-oper                                                   
   RAUG   =    1.300    factor for augmentation sphere                                              
   RDEP   =    1.501    radius for radial grids                                                     
   RDEPT  =    1.300    core radius for aug-charge                                                  
                                                                                                    
   Atomic configuration                                                                             
    4 entries                                                                                       
     n  l   j            E        occ.                                                              
     1  0  0.50      -273.3789   2.0000                                                             
     2  0  0.50       -13.7508   2.0000                                                             
     2  1  0.50        -5.2854   2.0000                                                             
     3  2  1.50        -5.4423   0.0000                                                             
   Description                                                                                      
     l       E           TYP  RCUT    TYP  RCUT                                                     
     0    -13.7508458     23  1.200                                                                 
     0     -8.2022199     23  1.200                                                                 
     1     -5.2854383     23  1.500                                                                 
     1     34.0145650     23  1.500                                                                 
     2     -5.4423304      7  1.500                                                                 
  local pseudopotential read in
  partial core-charges read in
  partial kinetic energy density read in
  atomic valenz-charges read in
  non local Contribution for L=           0  read in
    real space projection operators read in
  non local Contribution for L=           0  read in
    real space projection operators read in
  non local Contribution for L=           1  read in
    real space projection operators read in
  non local Contribution for L=           1  read in
    real space projection operators read in
    PAW grid and wavefunctions read in

   number of l-projection  operators is LMAX  =           4
   number of lm-projection operators is LMMAX =           8

 POTCAR:    PAW_PBE H 15Jun2001                   
   SHA256 =  030f79b5d3ab3cf0e668861823c8fb652ff669f3e15e46930bd03bfd63a607b6 H/POTCAR              
   COPYR  = (c) Copyright 15Jun2001 Georg Kresse                                                    
   COPYR  = This file is part of the software VASP. Any use, copying, and all other rights are regul
   COPYR  = If you do not have a valid VASP license, you may not use, copy or distribute this file. 
   VRHFIN =H: ultrasoft test                                                                        
   LEXCH  = PE                                                                                      
   EATOM  =    12.4884 eV,    0.9179 Ry                                                             
                                                                                                    
   TITEL  = PAW_PBE H 15Jun2001                                                                     
   LULTRA =        F    use ultrasoft PP ?                                                          
   IUNSCR =        0    unscreen: 0-lin 1-nonlin 2-no                                               
   RPACOR =    0.000    partial core radius                                                         
   POMASS =    1.000; ZVAL   =    1.000    mass and valenz                                          
   RCORE  =    1.100    outmost cutoff radius                                                       
   RWIGS  =    0.700; RWIGS  =    0.370    wigner-seitz radius (au A)                               
   ENMAX  =  250.000; ENMIN  =  200.000 eV                                                          
   RCLOC  =    0.701    cutoff for local pot                                                        
   LCOR   =        T    correct aug charges                                                         
   LPAW   =        T    paw PP                                                                      
   EAUG   =  400.000                                                                                
   RMAX   =    1.123    core radius for proj-oper                                                   
   RAUG   =    1.200    factor for augmentation sphere                                              
   RDEP   =    1.112    radius for radial grids                                                     
   RDEPT  =    0.926    core radius for aug-charge                                                  
                                                                                                    
   Atomic configuration                                                                             
    2 entries                                                                                       
     n  l   j            E        occ.                                                              
     1  0  0.50        -6.4927   1.0000                                                             
     2  1  0.50        -3.4015   0.0000                                                             
   Description                                                                                      
     l       E           TYP  RCUT    TYP  RCUT                                                     
     0     -6.4927494     23  1.100                                                                 
     0      6.8029130     23  1.100                                                                 
     1     -4.0817478     23  1.100                                                                 
  local pseudopotential read in
  atomic valenz-charges read in
  non local Contribution for L=           0  read in
    real space projection operators read in
  non local Contribution for L=           0  read in
    real space projection operators read in
  non local Contribution for L=           1  read in
    real space projection operators read in
    PAW grid and wavefunctions read in

   number of l-projection  operators is LMAX  =           3
   number of lm-projection operators is LMMAX =           5

 POTCAR:    PAW_PBE Mg_pv 13Apr2007               
   SHA256 =  f474ac0dd33840b9ae76c01d57fea79fdf77cdfbb07d5ade72c65f83c709b62b Mg_pv/POTCAR          
   COPYR  = (c) Copyright 13Apr2007 Georg Kresse                                                    
   COPYR  = This file is part of the software VASP. Any use, copying, and all other rights are regul
   COPYR  = If you do not have a valid VASP license, you may not use, copy or distribute this file. 
   VRHFIN =Mg: p6s2                                                                                 
   LEXCH  = PE                                                                                      
   EATOM  =  1056.7344 eV,   77.6678 Ry                                                             
                                                                                                    
   TITEL  = PAW_PBE Mg_pv 13Apr2007                                                                 
   LULTRA =        F    use ultrasoft PP ?                                                          
   IUNSCR =        1    unscreen: 0-lin 1-nonlin 2-no                                               
   RPACOR =    1.500    partial core radius                                                         
   POMASS =   24.305; ZVAL   =    8.000    mass and valenz                                          
   RCORE  =    2.000    outmost cutoff radius                                                       
   RWIGS  =    2.000; RWIGS  =    1.058    wigner-seitz radius (au A)                               
   ENMAX  =  403.929; ENMIN  =  302.947 eV                                                          
   RCLOC  =    1.506    cutoff for local pot                                                        
   LCOR   =        T    correct aug charges                                                         
   LPAW   =        T    paw PP                                                                      
   EAUG   =  758.780                                                                                
   DEXC   =    0.000                                                                                
   RMAX   =    2.045    core radius for proj-oper                                                   
   RAUG   =    1.300    factor for augmentation sphere                                              
   RDEP   =    2.025    radius for radial grids                                                     
   RDEPT  =    1.557    core radius for aug-charge                                                  
                                                                                                    
   Atomic configuration                                                                             
    5 entries                                                                                       
     n  l   j            E        occ.                                                              
     1  0  0.50     -1259.6230   2.0000                                                             
     2  0  0.50       -79.8442   2.0000                                                             
     2  1  1.50       -46.6121   6.0000                                                             
     3  0  0.50        -4.7055   2.0000                                                             
     3  2  1.50        -1.3606   0.0000                                                             
   Description                                                                                      
     l       E           TYP  RCUT    TYP  RCUT                                                     
     1    -46.6121073     23  1.600                                                                 
     1      2.7211652     23  1.600                                                                 
     0     -4.7054661     23  2.000                                                                 
     0     61.2262170     23  2.000                                                                 
     2     -1.3605826     23  2.000                                                                 
  local pseudopotential read in
  partial core-charges read in
  partial kinetic energy density read in
  atomic valenz-charges read in
  non local Contribution for L=           1  read in
    real space projection operators read in
  non local Contribution for L=           1  read in
    real space projection operators read in
  non local Contribution for L=           0  read in
    real space projection operators read in
  non local Contribution for L=           0  read in
    real space projection operators read in
  non local Contribution for L=           2  read in
    real space projection operators read in
    PAW grid and wavefunctions read in

   number of l-projection  operators is LMAX  =           5
   number of lm-projection operators is LMMAX =          13

 POTCAR:    PAW_PBE O 08Apr2002                   
   SHA256 =  818f92134a0a090dccd8ba1447fa70422a3b330e708bb4f08108d8ae51209ddf O/POTCAR              
   COPYR  = (c) Copyright 08Apr2002 Georg Kresse                                                    
   COPYR  = This file is part of the software VASP. Any use, copying, and all other rights are regul
   COPYR  = If you do not have a valid VASP license, you may not use, copy or distribute this file. 
   VRHFIN =O: s2p4                                                                                  
   LEXCH  = PE                                                                                      
   EATOM  =   432.3788 eV,   31.7789 Ry                                                             
                                                                                                    
   TITEL  = PAW_PBE O 08Apr2002                                                                     
   LULTRA =        F    use ultrasoft PP ?                                                          
   IUNSCR =        1    unscreen: 0-lin 1-nonlin 2-no                                               
   RPACOR =    1.200    partial core radius                                                         
   POMASS =   16.000; ZVAL   =    6.000    mass and valenz                                          
   RCORE  =    1.520    outmost cutoff radius                                                       
   RWIGS  =    1.550; RWIGS  =    0.820    wigner-seitz radius (au A)                               
   ENMAX  =  400.000; ENMIN  =  300.000 eV                                                          
   ICORE  =        2    local potential                                                             
   LCOR   =        T    correct aug charges                                                         
   LPAW   =        T    paw PP                                                                      
   EAUG   =  605.392                                                                                
   DEXC   =    0.000                                                                                
   RMAX   =    1.553    core radius for proj-oper                                                   
   RAUG   =    1.300    factor for augmentation sphere                                              
   RDEP   =    1.550    radius for radial grids                                                     
   RDEPT  =    1.329    core radius for aug-charge                                                  
                                                                                                    
   Atomic configuration                                                                             
    4 entries                                                                                       
     n  l   j            E        occ.                                                              
     1  0  0.50      -514.6923   2.0000                                                             
     2  0  0.50       -23.9615   2.0000                                                             
     2  1  0.50        -9.0305   4.0000                                                             
     3  2  1.50        -9.5241   0.0000                                                             
   Description                                                                                      
     l       E           TYP  RCUT    TYP  RCUT                                                     
     0    -23.9615318     23  1.200                                                                 
     0     -9.5240782     23  1.200                                                                 
     1     -9.0304911     23  1.520                                                                 
     1      8.1634956     23  1.520                                                                 
     2     -9.5240782      7  1.500                                                                 
  local pseudopotential read in
  partial core-charges read in
  partial kinetic energy density read in
  kinetic energy density of atom read in
  atomic valenz-charges read in
  non local Contribution for L=           0  read in
    real space projection operators read in
  non local Contribution for L=           0  read in
    real space projection operators read in
  non local Contribution for L=           1  read in
    real space projection operators read in
  non local Contribution for L=           1  read in
    real space projection operators read in
    PAW grid and wavefunctions read in

   number of l-projection  operators is LMAX  =           4
   number of lm-projection operators is LMMAX =           8

 -----------------------------------------------------------------------------
|                                                                             |
|               ----> ADVICE to this user running VASP <----                  |
|                                                                             |
|     You have a (more or less) 'large supercell' and for larger cells it     |
|     might be more efficient to use real-space projection operators.         |
|     Therefore, try LREAL= Auto in the INCAR file.                           |
|     Mind: For very accurate calculation, you might also keep the            |
|     reciprocal projection scheme (i.e. LREAL=.FALSE.).                      |
|                                                                             |
 -----------------------------------------------------------------------------

 -----------------------------------------------------------------------------
|                                                                             |
|               ----> ADVICE to this user running VASP <----                  |
|                                                                             |
|     You enforced a specific xc type in the INCAR file but a different       |
|     type was found in the POTCAR file.                                      |
|     I HOPE YOU KNOW WHAT YOU ARE DOING!                                     |
|                                                                             |
 -----------------------------------------------------------------------------

  PAW_PBE C 08Apr2002                   :
 energy of atom  1       EATOM= -147.1560
 kinetic energy error for atom=    0.0057 (will be added to EATOM!!)
  PAW_PBE H 15Jun2001                   :
 energy of atom  2       EATOM=  -12.4884
 kinetic energy error for atom=    0.0004 (will be added to EATOM!!)
  PAW_PBE Mg_pv 13Apr2007               :
 energy of atom  3       EATOM=-1056.7344
 kinetic energy error for atom=    0.0221 (will be added to EATOM!!)
  PAW_PBE O 08Apr2002                   :
 energy of atom  4       EATOM= -432.3788
 kinetic energy error for atom=    0.0168 (will be added to EATOM!!)


 POSCAR:  C  H Mg  O
  positions in direct lattice
  No initial velocities read in
 exchange correlation table for  LEXCH =       43
   RHO(1)=    0.500       N(1)  =     2000
   RHO(2)=  100.500       N(2)  =     4000



--------------------------------------------------------------------------------------------------------


 ion  position               nearest neighbor table
   1  0.453  0.501  0.795-  11 1.09   9 1.09  10 1.09   2 1.53
   2  0.293  0.439  0.818-  12 1.09  14 1.09  13 1.09   1 1.53
   3  0.453  0.001  0.795-  17 1.09  15 1.09  16 1.09   4 1.53
   4  0.293  0.939  0.818-  18 1.09  20 1.09  19 1.09   3 1.53
   5  0.790  0.751  0.794-  23 1.09  22 1.09  21 1.09   6 1.53
   6  0.950  0.690  0.818-  24 1.09  25 1.09  26 1.09   5 1.53
   7  0.790  0.251  0.794-  29 1.09  28 1.09  27 1.09   8 1.53
   8  0.950  0.190  0.818-  30 1.09  31 1.09  32 1.09   7 1.53
   9  0.441  0.615  0.770-   1 1.09
  10  0.509  0.415  0.763-   1 1.09
  11  0.536  0.519  0.834-   1 1.09
  12  0.210  0.426  0.779-   2 1.09
  13  0.238  0.521  0.851-   2 1.09
  14  0.305  0.324  0.841-   2 1.09
  15  0.441  0.115  0.770-   3 1.09
  16  0.509  0.915  0.763-   3 1.09
  17  0.536  0.019  0.834-   3 1.09
  18  0.210  0.926  0.779-   4 1.09
  19  0.238  0.021  0.851-   4 1.09
  20  0.305  0.824  0.841-   4 1.09
  21  0.736  0.664  0.763-   5 1.09
  22  0.802  0.864  0.770-   5 1.09
  23  0.705  0.769  0.832-   5 1.09
  24  0.034  0.676  0.780-   6 1.09
  25  0.937  0.575  0.841-   6 1.09
  26  0.003  0.773  0.852-   6 1.09
  27  0.736  0.164  0.763-   7 1.09
  28  0.802  0.364  0.770-   7 1.09
  29  0.705  0.269  0.832-   7 1.09
  30  0.034  0.176  0.780-   8 1.09
  31  0.937  0.075  0.841-   8 1.09
  32  0.003  0.273  0.852-   8 1.09
  33  0.250  0.000  0.352-  67 2.10  68 2.10  75 2.10  84 2.10  65 2.10
  34  0.500  0.250  0.352-  67 2.10  68 2.10  76 2.10  83 2.10  66 2.10
  35  0.250  0.250  0.451-  71 2.10  66 2.10  65 2.10  73 2.10  82 2.10  67 2.10
  36  0.500  0.000  0.451-  65 2.10  66 2.10  74 2.10  81 2.10  68 2.10  72 2.11
  37  0.250  0.000  0.550-  72 2.10  71 2.10  79 2.10  88 2.10  65 2.11  69 2.13
  38  0.500  0.250  0.550-  87 2.10  72 2.10  80 2.10  71 2.10  66 2.11  70 2.13
  39  0.250  0.251  0.647-  71 2.08  86 2.10  77 2.10  70 2.10  69 2.10
  40  0.499  0.001  0.648-  72 2.10  70 2.10  69 2.10  78 2.10  85 2.11
  41  0.250  0.500  0.352-  67 2.10  75 2.10  76 2.10  92 2.10  73 2.10
  42  0.500  0.750  0.352-  68 2.10  75 2.10  76 2.10  91 2.10  74 2.10
  43  0.250  0.750  0.451-  79 2.10  73 2.10  74 2.10  65 2.10  90 2.10  75 2.10
  44  0.500  0.500  0.451-  66 2.10  73 2.10  74 2.10  89 2.10  76 2.10  80 2.11
  45  0.250  0.500  0.550-  80 2.10  79 2.10  71 2.10  96 2.10  73 2.11  77 2.13
  46  0.500  0.750  0.550-  95 2.10  72 2.10  80 2.10  79 2.10  74 2.11  78 2.13
  47  0.250  0.751  0.647-  79 2.08  94 2.10  78 2.10  77 2.10  69 2.10
  48  0.500  0.501  0.648-  80 2.10  78 2.10  70 2.10  77 2.10  93 2.11
  49  0.750  0.000  0.352-  68 2.10  83 2.10  84 2.10  91 2.10  81 2.10
  50  0.000  0.250  0.352-  67 2.10  83 2.10  84 2.10  92 2.10  82 2.10
  51  0.750  0.250  0.451-  66 2.10  81 2.10  82 2.10  89 2.10  83 2.10  87 2.11
  52  0.000  0.000  0.451-  88 2.10  81 2.10  82 2.10  65 2.10  90 2.10  84 2.10
  53  0.750  0.000  0.550-  72 2.10  87 2.10  95 2.10  88 2.10  81 2.11  85 2.13
  54  1.000  0.250  0.550-  87 2.10  96 2.10  88 2.10  71 2.10  82 2.11  86 2.13
  55  0.750  0.251  0.648-  87 2.10  93 2.10  85 2.10  86 2.10  70 2.11
  56  0.000  0.001  0.647-  88 2.08  69 2.10  86 2.10  85 2.10  94 2.10
  57  0.750  0.500  0.352-  76 2.10  83 2.10  91 2.10  92 2.10  89 2.10
  58  0.000  0.750  0.352-  75 2.10  84 2.10  91 2.10  92 2.10  90 2.10
  59  0.750  0.750  0.451-  74 2.10  81 2.10  89 2.10  90 2.10  91 2.10  95 2.11
  60  0.000  0.500  0.451-  96 2.10  82 2.10  89 2.10  90 2.10  73 2.10  92 2.10
  61  0.750  0.500  0.550-  80 2.10  95 2.10  87 2.10  96 2.10  89 2.11  93 2.13
  62  1.000  0.750  0.550-  95 2.10  88 2.10  96 2.10  79 2.10  90 2.11  94 2.13
  63  0.750  0.751  0.648-  85 2.10  95 2.10  94 2.10  93 2.10  78 2.11
  64  0.000  0.501  0.647-  96 2.08  77 2.10  93 2.10  94 2.10  86 2.10
  65  0.250  0.000  0.451-  35 2.10  36 2.10  43 2.10  52 2.10  33 2.10  37 2.11
  66  0.500  0.250  0.451-  35 2.10  36 2.10  44 2.10  51 2.10  34 2.10  38 2.11
  67  0.250  0.250  0.352-  33 2.10  34 2.10  41 2.10  50 2.10  35 2.10
  68  0.500  0.000  0.352-  33 2.10  34 2.10  42 2.10  49 2.10  36 2.10
  69  0.249  0.001  0.649-  56 2.10  40 2.10  47 2.10  39 2.10  37 2.13
  70  0.500  0.251  0.650-  40 2.10  39 2.10  48 2.10  55 2.11  38 2.13
  71  0.250  0.250  0.549-  39 2.08  35 2.10  45 2.10  37 2.10  38 2.10  54 2.10
  72  0.500  0.000  0.550-  40 2.10  53 2.10  37 2.10  46 2.10  38 2.10  36 2.11
  73  0.250  0.500  0.451-  35 2.10  43 2.10  44 2.10  60 2.10  41 2.10  45 2.11
  74  0.500  0.750  0.451-  36 2.10  43 2.10  44 2.10  59 2.10  42 2.10  46 2.11
  75  0.250  0.750  0.352-  33 2.10  41 2.10  42 2.10  58 2.10  43 2.10
  76  0.500  0.500  0.352-  34 2.10  41 2.10  42 2.10  57 2.10  44 2.10
  77  0.249  0.501  0.649-  64 2.10  39 2.10  47 2.10  48 2.10  45 2.13
  78  0.500  0.751  0.650-  48 2.10  47 2.10  40 2.10  63 2.11  46 2.13
  79  0.250  0.750  0.549-  47 2.08  45 2.10  43 2.10  37 2.10  46 2.10  62 2.10
  80  0.500  0.500  0.550-  48 2.10  61 2.10  45 2.10  38 2.10  46 2.10  44 2.11
  81  0.750  0.000  0.451-  36 2.10  51 2.10  52 2.10  59 2.10  49 2.10  53 2.11
  82  0.000  0.250  0.451-  35 2.10  51 2.10  52 2.10  60 2.10  50 2.10  54 2.11
  83  0.750  0.250  0.352-  34 2.10  49 2.10  50 2.10  57 2.10  51 2.10
  84  0.000  0.000  0.352-  33 2.10  49 2.10  50 2.10  58 2.10  52 2.10
  85  0.750  0.001  0.650-  63 2.10  56 2.10  55 2.10  40 2.11  53 2.13
  86  0.000  0.251  0.649-  39 2.10  56 2.10  64 2.10  55 2.10  54 2.13
  87  0.750  0.250  0.550-  38 2.10  54 2.10  55 2.10  53 2.10  61 2.10  51 2.11
  88  1.000  0.000  0.549-  56 2.08  52 2.10  62 2.10  54 2.10  53 2.10  37 2.10
  89  0.750  0.500  0.451-  44 2.10  51 2.10  59 2.10  60 2.10  57 2.10  61 2.11
  90  0.000  0.750  0.451-  43 2.10  52 2.10  59 2.10  60 2.10  58 2.10  62 2.11
  91  0.750  0.750  0.352-  42 2.10  49 2.10  57 2.10  58 2.10  59 2.10
  92  0.000  0.500  0.352-  41 2.10  50 2.10  57 2.10  58 2.10  60 2.10
  93  0.750  0.501  0.650-  64 2.10  55 2.10  63 2.10  48 2.11  61 2.13
  94  0.000  0.751  0.649-  47 2.10  64 2.10  56 2.10  63 2.10  62 2.13
  95  0.750  0.750  0.550-  46 2.10  62 2.10  63 2.10  53 2.10  61 2.10  59 2.11
  96  1.000  0.500  0.549-  64 2.08  60 2.10  54 2.10  62 2.10  61 2.10  45 2.10


IMPORTANT INFORMATION: All symmetrisations will be switched off!
NOSYMM: (Re-)initialisation of all symmetry stuff for point group C_1.


----------------------------------------------------------------------------------------

                                     Primitive cell                                     

  volume of cell :    1504.9259

  direct lattice vectors                    reciprocal lattice vectors
     8.404861995  0.000000000  0.000000000     0.118978753  0.000000000  0.000000000
     0.000000000  8.404861995  0.000000000     0.000000000  0.118978753  0.000000000
     0.000000000  0.000000000 21.303646496     0.000000000  0.000000000  0.046940321

  length of vectors
     8.404861995  8.404861995 21.303646496     0.118978753  0.118978753  0.046940321

  position of ions in fractional coordinates (direct lattice)
     0.453194147  0.501174457  0.794945483
     0.292541327  0.439292675  0.817828426
     0.453199785  0.001176358  0.794948348
     0.292541394  0.939291288  0.817828311
     0.789926182  0.750709882  0.794321723
     0.950017814  0.690128011  0.818319480
     0.789926533  0.250711165  0.794324381
     0.950017419  0.190127019  0.818321115
     0.441131090  0.614671531  0.770465214
     0.508562997  0.415126488  0.763257185
     0.536027150  0.519329348  0.833706686
     0.209995794  0.425748983  0.778703469
     0.238041275  0.521056257  0.851324303
     0.304890581  0.323657524  0.840625228
     0.441114920  0.114682790  0.770475909
     0.508565671  0.915107314  0.763266029
     0.536087287  0.019356444  0.833689166
     0.210009058  0.925750209  0.778697834
     0.238019203  0.021042833  0.851324242
     0.304869741  0.823654124  0.840624779
     0.736152340  0.663634047  0.762633859
     0.802435786  0.863775870  0.769543755
     0.705483387  0.769391151  0.832480541
     0.033997810  0.676010906  0.779721090
     0.937341740  0.575007379  0.841497605
     0.002952482  0.772998921  0.851797778
     0.736160246  0.163636004  0.762631261
     0.802445806  0.363773894  0.769547374
     0.705473392  0.269406862  0.832478134
     0.033982122  0.176019658  0.779717359
     0.937351643  0.075003554  0.841497546
     0.002953050  0.273002481  0.851800245
     0.250000000  0.000000000  0.352052406
     0.500000000  0.250000000  0.352052406
     0.250000000  0.250000000  0.450684135
     0.500000000  0.000000000  0.450684135
     0.250254111  0.000347606  0.549611813
     0.500347921  0.250346800  0.549930243
     0.249689291  0.250801151  0.647036680
     0.499382131  0.000907927  0.648064099
     0.250000000  0.500000000  0.352052406
     0.500000000  0.750000000  0.352052406
     0.250000000  0.750000000  0.450684135
     0.500000000  0.500000000  0.450684135
     0.250218568  0.500350319  0.549602762
     0.500354917  0.750383312  0.549930339
     0.249706420  0.750647765  0.647037379
     0.499544487  0.500895917  0.648056715
     0.750000000  0.000000000  0.352052406
     0.000000000  0.250000000  0.352052406
     0.750000000  0.250000000  0.450684135
     0.000000000  0.000000000  0.450684135
     0.749616566  0.000366817  0.549958491
     0.999693471  0.250349361  0.549618119
     0.750261570  0.250824966  0.648222718
     0.000119592  0.000729231  0.646933621
     0.750000000  0.500000000  0.352052406
     0.000000000  0.750000000  0.352052406
     0.750000000  0.750000000  0.450684135
     0.000000000  0.500000000  0.450684135
     0.749694673  0.500363962  0.549943709
     0.999693815  0.750355493  0.549618412
     0.750253074  0.750985177  0.648224450
     0.000014670  0.500740786  0.646972578
     0.250000000  0.000000000  0.450684135
     0.500000000  0.250000000  0.450684135
     0.250000000  0.250000000  0.352052406
     0.500000000  0.000000000  0.352052406
     0.249351406  0.000692227  0.649447167
     0.499571239  0.250785144  0.649875088
     0.250074036  0.250355604  0.549313568
     0.499998250  0.000358199  0.549602221
     0.250000000  0.500000000  0.450684135
     0.500000000  0.750000000  0.450684135
     0.250000000  0.750000000  0.352052406
     0.500000000  0.500000000  0.352052406
     0.249328052  0.500699303  0.649455935
     0.499580693  0.750778083  0.649874908
     0.250079532  0.750326291  0.549313749
     0.500052919  0.500355838  0.549608071
     0.750000000  0.000000000  0.450684135
     0.000000000  0.250000000  0.450684135
     0.750000000  0.250000000  0.352052406
     0.000000000  0.000000000  0.352052406
     0.750158529  0.000782645  0.649934131
     0.000426368  0.250679738  0.649469549
     0.749959532  0.250341235  0.549650651
     0.999866640  0.000340680  0.549289887
     0.750000000  0.500000000  0.450684135
     0.000000000  0.750000000  0.450684135
     0.750000000  0.750000000  0.352052406
     0.000000000  0.500000000  0.352052406
     0.750221366  0.500776101  0.649918417
     0.000424684  0.750720309  0.649469794
     0.749959514  0.750373809  0.549651148
     0.999845973  0.500344270  0.549295878

  ion indices of the primitive-cell ions
   primitive index   ion index
                 1           1
                 2           2
                 3           3
                 4           4
                 5           5
                 6           6
                 7           7
                 8           8
                 9           9
                10          10
                11          11
                12          12
                13          13
                14          14
                15          15
                16          16
                17          17
                18          18
                19          19
                20          20
                21          21
                22          22
                23          23
                24          24
                25          25
                26          26
                27          27
                28          28
                29          29
                30          30
                31          31
                32          32
                33          33
                34          34
                35          35
                36          36
                37          37
                38          38
                39          39
                40          40
                41          41
                42          42
                43          43
                44          44
                45          45
                46          46
                47          47
                48          48
                49          49
                50          50
                51          51
                52          52
                53          53
                54          54
                55          55
                56          56
                57          57
                58          58
                59          59
                60          60
                61          61
                62          62
                63          63
                64          64
                65          65
                66          66
                67          67
                68          68
                69          69
                70          70
                71          71
                72          72
                73          73
                74          74
                75          75
                76          76
                77          77
                78          78
                79          79
                80          80
                81          81
                82          82
                83          83
                84          84
                85          85
                86          86
                87          87
                88          88
                89          89
                90          90
                91          91
                92          92
                93          93
                94          94
                95          95
                96          96

----------------------------------------------------------------------------------------



 KPOINTS: pymatgen v2020.8.13 with grid density = 

Automatic generation of k-mesh.
 Grid dimensions read from file:
 generate k-points for:    2    2    1

 Generating k-lattice:

  Cartesian coordinates                     Fractional coordinates (reciprocal lattice)
     0.059489377  0.000000000  0.000000000     0.500000000  0.000000000  0.000000000
     0.000000000  0.059489377  0.000000000     0.000000000  0.500000000  0.000000000
     0.000000000  0.000000000  0.046940321     0.000000000  0.000000000  1.000000000

  Length of vectors
     0.059489377  0.059489377  0.046940321

  Shift w.r.t. Gamma in fractional coordinates (k-lattice)
     0.000000000  0.000000000  0.000000000

 
 Subroutine IBZKPT returns following result:
 ===========================================
 
 Found      4 irreducible k-points:
 
 Following reciprocal coordinates:
            Coordinates               Weight
  0.000000  0.000000  0.000000      1.000000
  0.500000  0.000000  0.000000      1.000000
  0.000000  0.500000  0.000000      1.000000
  0.500000  0.500000  0.000000      1.000000
 
 Following cartesian coordinates:
            Coordinates               Weight
  0.000000  0.000000  0.000000      1.000000
  0.059489  0.000000  0.000000      1.000000
  0.000000  0.059489  0.000000      1.000000
  0.059489  0.059489  0.000000      1.000000
 


--------------------------------------------------------------------------------------------------------




 Dimension of arrays:
   k-points           NKPTS =      4   k-points in BZ     NKDIM =      4   number of bands    NBANDS=    320
   number of dos      NEDOS =    301   number of ions     NIONS =     96
   non local maximal  LDIM  =      5   non local SUM 2l+1 LMDIM =     13
   total plane-waves  NPLWV = 882000
   max r-space proj   IRMAX =      1   max aug-charges    IRDMAX=  11749
   dimension x,y,z NGX =    70 NGY =   70 NGZ =  180
   dimension x,y,z NGXF=   140 NGYF=  140 NGZF=  360
   support grid    NGXF=   140 NGYF=  140 NGZF=  360
   ions per type =               8  24  32  32
   NGX,Y,Z   is equivalent  to a cutoff of  13.85, 13.85, 14.05 a.u.
   NGXF,Y,Z  is equivalent  to a cutoff of  27.69, 27.69, 28.09 a.u.

 SYSTEM =  MgO-rocksalt                            
 POSCAR =   C  H Mg  O                             

--------------------------------------------------------------------------------------------------------


  energy-cutoff  :      600.00
  volume of cell :     1504.93
      direct lattice vectors                 reciprocal lattice vectors
     8.404861995  0.000000000  0.000000000     0.118978753  0.000000000  0.000000000
     0.000000000  8.404861995  0.000000000     0.000000000  0.118978753  0.000000000
     0.000000000  0.000000000 21.303646496     0.000000000  0.000000000  0.046940321

  length of vectors
     8.404861995  8.404861995 21.303646496     0.118978753  0.118978753  0.046940321



 k-points in units of 2pi/SCALE and weight: pymatgen v2020.8.13 with grid density = 
   0.00000000  0.00000000  0.00000000       0.250
   0.05948938  0.00000000  0.00000000       0.250
   0.00000000  0.05948938  0.00000000       0.250
   0.05948938  0.05948938  0.00000000       0.250

 k-points in reciprocal lattice and weights: pymatgen v2020.8.13 with grid density = 
   0.00000000  0.00000000  0.00000000       0.250
   0.50000000  0.00000000  0.00000000       0.250
   0.00000000  0.50000000  0.00000000       0.250
   0.50000000  0.50000000  0.00000000       0.250

 position of ions in fractional coordinates (direct lattice) 
   0.45319415  0.50117446  0.79494548
   0.29254133  0.43929268  0.81782843
   0.45319978  0.00117636  0.79494835
   0.29254139  0.93929129  0.81782831
   0.78992618  0.75070988  0.79432172
   0.95001781  0.69012801  0.81831948
   0.78992653  0.25071117  0.79432438
   0.95001742  0.19012702  0.81832111
   0.44113109  0.61467153  0.77046521
   0.50856300  0.41512649  0.76325719
   0.53602715  0.51932935  0.83370669
   0.20999579  0.42574898  0.77870347
   0.23804127  0.52105626  0.85132430
   0.30489058  0.32365752  0.84062523
   0.44111492  0.11468279  0.77047591
   0.50856567  0.91510731  0.76326603
   0.53608729  0.01935644  0.83368917
   0.21000906  0.92575021  0.77869783
   0.23801920  0.02104283  0.85132424
   0.30486974  0.82365412  0.84062478
   0.73615234  0.66363405  0.76263386
   0.80243579  0.86377587  0.76954375
   0.70548339  0.76939115  0.83248054
   0.03399781  0.67601091  0.77972109
   0.93734174  0.57500738  0.84149760
   0.00295248  0.77299892  0.85179778
   0.73616025  0.16363600  0.76263126
   0.80244581  0.36377389  0.76954737
   0.70547339  0.26940686  0.83247813
   0.03398212  0.17601966  0.77971736
   0.93735164  0.07500355  0.84149755
   0.00295305  0.27300248  0.85180025
   0.25000000  0.00000000  0.35205241
   0.50000000  0.25000000  0.35205241
   0.25000000  0.25000000  0.45068414
   0.50000000  0.00000000  0.45068414
   0.25025411  0.00034761  0.54961181
   0.50034792  0.25034680  0.54993024
   0.24968929  0.25080115  0.64703668
   0.49938213  0.00090793  0.64806410
   0.25000000  0.50000000  0.35205241
   0.50000000  0.75000000  0.35205241
   0.25000000  0.75000000  0.45068414
   0.50000000  0.50000000  0.45068414
   0.25021857  0.50035032  0.54960276
   0.50035492  0.75038331  0.54993034
   0.24970642  0.75064777  0.64703738
   0.49954449  0.50089592  0.64805671
   0.75000000  0.00000000  0.35205241
   0.00000000  0.25000000  0.35205241
   0.75000000  0.25000000  0.45068414
   0.00000000  0.00000000  0.45068414
   0.74961657  0.00036682  0.54995849
   0.99969347  0.25034936  0.54961812
   0.75026157  0.25082497  0.64822272
   0.00011959  0.00072923  0.64693362
   0.75000000  0.50000000  0.35205241
   0.00000000  0.75000000  0.35205241
   0.75000000  0.75000000  0.45068414
   0.00000000  0.50000000  0.45068414
   0.74969467  0.50036396  0.54994371
   0.99969381  0.75035549  0.54961841
   0.75025307  0.75098518  0.64822445
   0.00001467  0.50074079  0.64697258
   0.25000000  0.00000000  0.45068414
   0.50000000  0.25000000  0.45068414
   0.25000000  0.25000000  0.35205241
   0.50000000  0.00000000  0.35205241
   0.24935141  0.00069223  0.64944717
   0.49957124  0.25078514  0.64987509
   0.25007404  0.25035560  0.54931357
   0.49999825  0.00035820  0.54960222
   0.25000000  0.50000000  0.45068414
   0.50000000  0.75000000  0.45068414
   0.25000000  0.75000000  0.35205241
   0.50000000  0.50000000  0.35205241
   0.24932805  0.50069930  0.64945593
   0.49958069  0.75077808  0.64987491
   0.25007953  0.75032629  0.54931375
   0.50005292  0.50035584  0.54960807
   0.75000000  0.00000000  0.45068414
   0.00000000  0.25000000  0.45068414
   0.75000000  0.25000000  0.35205241
   0.00000000  0.00000000  0.35205241
   0.75015853  0.00078265  0.64993413
   0.00042637  0.25067974  0.64946955
   0.74995953  0.25034124  0.54965065
   0.99986664  0.00034068  0.54928989
   0.75000000  0.50000000  0.45068414
   0.00000000  0.75000000  0.45068414
   0.75000000  0.75000000  0.35205241
   0.00000000  0.50000000  0.35205241
   0.75022137  0.50077610  0.64991842
   0.00042468  0.75072031  0.64946979
   0.74995951  0.75037381  0.54965115
   0.99984597  0.50034427  0.54929588

 position of ions in cartesian coordinates  (Angst):
   3.80903426  4.21230215 16.93523756
   2.45876948  3.69219431 17.42272767
   3.80908165  0.00988712 16.93529859
   2.45877004  7.89461365 17.42272522
   6.63922055  6.30961296 16.92194918
   7.98476862  5.80043069 17.43318893
   6.63922350  2.10719275 16.92200582
   7.98476530  1.59799136 17.43322374
   3.70764593  5.16622939 16.41371856
   4.27440180  3.48908084 16.26016126
   4.50523422  4.36489150 17.76099252
   1.76498567  3.57836144 16.58922342
   2.00070407  4.37940593 18.13631201
   2.56256326  2.72029682 17.90838269
   3.70751002  0.96389302 16.41394641
   4.27442428  7.69135068 16.26034966
   4.50573966  0.16268824 17.76061928
   1.76509715  7.78080275 16.58910338
   2.00051856  0.17686211 18.13631071
   2.56238810  6.92269924 17.90837313
   6.18725882  5.57775258 16.24688215
   6.74436204  7.25991698 16.39408811
   5.92949051  6.46662644 17.73487116
   0.28574690  5.68177837 16.61090247
   7.87822796  4.83285766 17.92696750
   0.02481520  6.49694925 18.14639875
   6.18732527  1.37533803 16.24682678
   6.74444626  3.05746938 16.39416522
   5.92940650  2.26432750 17.73481988
   0.28561505  1.47942093 16.61082299
   7.87831120  0.63039452 17.92696626
   0.02481998  2.29454817 18.14645130
   2.10121550  0.00000000  7.50000000
   4.20243100  2.10121550  7.50000000
   2.10121550  2.10121550  9.60121550
   4.20243100  0.00000000  9.60121550
   2.10335126  0.00292158 11.70873578
   4.20535523  2.10413030 11.71551950
   2.09860404  2.10794906 13.78424070
   4.19723790  0.00763100 13.80612848
   2.10121550  4.20243100  7.50000000
   4.20243100  6.30364650  7.50000000
   2.10121550  6.30364650  9.60121550
   4.20243100  4.20243100  9.60121550
   2.10305253  4.20537538 11.70854295
   4.20541402  6.30686818 11.71552155
   2.09874800  6.30909087 13.78425559
   4.19860247  4.20996106 13.80597116
   6.30364650  0.00000000  7.50000000
   0.00000000  2.10121550  7.50000000
   6.30364650  2.10121550  9.60121550
   0.00000000  0.00000000  9.60121550
   6.30042378  0.00308305 11.71612127
   8.40228566  2.10415183 11.70887010
   6.30584496  2.10814922 13.80950762
   0.00100516  0.00612908 13.78204516
   6.30364650  4.20243100  7.50000000
   0.00000000  6.30364650  7.50000000
   6.30364650  6.30364650  9.60121550
   0.00000000  4.20243100  9.60121550
   6.30108027  4.20549005 11.71580637
   8.40228855  6.30663437 11.70887636
   6.30577355  6.31192677 13.80954453
   0.00012330  4.20865720 13.78287509
   2.10121550  0.00000000  9.60121550
   4.20243100  2.10121550  9.60121550
   2.10121550  2.10121550  7.50000000
   4.20243100  0.00000000  7.50000000
   2.09576416  0.00581807 13.83559286
   4.19882732  2.10781453 13.84470913
   2.10183776  2.10420430 11.70238206
   4.20241629  0.00301062 11.70853143
   2.10121550  4.20243100  9.60121550
   4.20243100  6.30364650  9.60121550
   2.10121550  6.30364650  7.50000000
   4.20243100  4.20243100  7.50000000
   2.09556787  4.20830854 13.83577965
   4.19890678  6.31018618 13.84470530
   2.10188396  6.30638893 11.70238593
   4.20287577  4.20542177 11.70865605
   6.30364650  0.00000000  9.60121550
   0.00000000  2.10121550  9.60121550
   6.30364650  2.10121550  7.50000000
   0.00000000  0.00000000  7.50000000
   6.30497891  0.00657803 13.84596697
   0.00358356  2.10692860 13.83606968
   6.30330637  2.10408353 11.70956316
   8.40374113  0.00286337 11.70187757
   6.30364650  4.20243100  9.60121550
   0.00000000  6.30364650  9.60121550
   6.30364650  6.30364650  7.50000000
   0.00000000  4.20243100  7.50000000
   6.30550705  4.20895402 13.84563221
   0.00356941  6.30970059 13.83607489
   6.30330621  6.30678831 11.70957375
   8.40356742  4.20532454 11.70200521



--------------------------------------------------------------------------------------------------------

--------------------------------------- Iteration      FINAL  ---------------------------------------


--------------------OUTCAR has been truncated-------------------------


--------------------OUTCAR has been truncated-------------------------


--------------------OUTCAR has been truncated-------------------------


--------------------OUTCAR has been truncated-------------------------


--------------------OUTCAR has been truncated-------------------------


--------------------OUTCAR has been truncated-------------------------


--------------------OUTCAR has been truncated-------------------------


--------------------OUTCAR has been truncated-------------------------


--------------------OUTCAR has been truncated-------------------------


--------------------OUTCAR has been truncated-------------------------


  FORCE on cell =-STRESS in cart. coord.  units (eV):
  Direction    XX          YY          ZZ          XY          YZ          ZX
  --------------------------------------------------------------------------------------
  Alpha Z  1069.01459  1069.01459  1069.01459
  Ewald  146578.37517146351.54329************     1.22497   -36.46789     1.24524
  Hartree157454.38958157304.02059************     0.94300   -24.43395     0.90974
  E(xc)   -2653.86309 -2653.08888 -2653.19900    -0.00593     0.10123    -0.00763
  Local  ************************313647.84481    -2.28386    63.76277    -2.34293
  n-local -2934.36858 -2937.81680 -2956.89017     0.01949    -0.41819     0.01877
  augment  1051.53204  1051.32010  1042.20367     0.00124    -0.01766    -0.00076
  Kinetic  8065.59975  8050.29907  8088.36249     0.06846    -3.10441     0.25884
  Fock        0.00000     0.00000     0.00000     0.00000     0.00000     0.00000
  -------------------------------------------------------------------------------------
  Total     -18.45594   -18.02598     7.43982    -0.03263    -0.57809     0.08127
  in kB     -19.64860   -19.19086     7.92060    -0.03474    -0.61545     0.08652
  external pressure =      -10.31 kB  Pullay stress =        0.00 kB


 VOLUME and BASIS-vectors are now :
 -----------------------------------------------------------------------------
  energy-cutoff  :      600.00
  volume of cell :     1504.93
      direct lattice vectors                 reciprocal lattice vectors
     8.404861995  0.000000000  0.000000000     0.118978753  0.000000000  0.000000000
     0.000000000  8.404861995  0.000000000     0.000000000  0.118978753  0.000000000
     0.000000000  0.000000000 21.303646496     0.000000000  0.000000000  0.046940321

  length of vectors
     8.404861995  8.404861995 21.303646496     0.118978753  0.118978753  0.046940321


 FORCES acting on ions:
    Electron-Ion                     Ewald-Force                    Non-Local-Force
 -----------------------------------------------------------------------------------------------
   -.372E+02 -.170E+02 -.901E+03   0.368E+02 0.170E+02 0.901E+03   0.412E-02 -.193E+00 -.116E+00
   0.407E+02 0.165E+02 -.879E+03   -.407E+02 -.164E+02 0.879E+03   0.417E+00 0.584E-01 0.124E+00
   -.372E+02 -.170E+02 -.901E+03   0.368E+02 0.170E+02 0.901E+03   0.480E-02 -.192E+00 -.117E+00
   0.407E+02 0.165E+02 -.879E+03   -.407E+02 -.164E+02 0.879E+03   0.417E+00 0.582E-01 0.125E+00
   0.370E+02 -.167E+02 -.902E+03   -.366E+02 0.167E+02 0.902E+03   0.817E-02 -.183E+00 -.142E+00
   -.405E+02 0.163E+02 -.879E+03   0.406E+02 -.162E+02 0.879E+03   -.425E+00 0.604E-01 0.131E+00
   0.370E+02 -.167E+02 -.902E+03   -.366E+02 0.167E+02 0.902E+03   0.793E-02 -.182E+00 -.144E+00
   -.405E+02 0.163E+02 -.879E+03   0.406E+02 -.162E+02 0.879E+03   -.425E+00 0.616E-01 0.131E+00
   0.315E+01 -.406E+02 -.217E+03   -.368E+01 0.458E+02 0.214E+03   0.491E+00 -.497E+01 0.268E+01
   -.204E+02 0.285E+02 -.215E+03   0.230E+02 -.325E+02 0.211E+03   -.242E+01 0.378E+01 0.335E+01
   -.319E+02 -.758E+01 -.246E+03   0.357E+02 0.843E+01 0.251E+03   -.364E+01 -.806E+00 -.425E+01
   0.328E+02 0.613E+01 -.199E+03   -.366E+02 -.673E+01 0.194E+03   0.362E+01 0.563E+00 0.434E+01
   0.209E+02 -.272E+02 -.230E+03   -.235E+02 0.309E+02 0.234E+03   0.241E+01 -.354E+01 -.368E+01
   -.210E+01 0.413E+02 -.227E+03   0.262E+01 -.466E+02 0.230E+03   -.496E+00 0.503E+01 -.251E+01
   0.316E+01 -.406E+02 -.217E+03   -.369E+01 0.458E+02 0.214E+03   0.492E+00 -.497E+01 0.267E+01
   -.204E+02 0.285E+02 -.215E+03   0.230E+02 -.325E+02 0.211E+03   -.242E+01 0.379E+01 0.335E+01
   -.319E+02 -.758E+01 -.246E+03   0.357E+02 0.844E+01 0.251E+03   -.364E+01 -.807E+00 -.425E+01
   0.328E+02 0.612E+01 -.199E+03   -.366E+02 -.673E+01 0.194E+03   0.362E+01 0.563E+00 0.434E+01
   0.209E+02 -.272E+02 -.230E+03   -.235E+02 0.309E+02 0.234E+03   0.241E+01 -.354E+01 -.368E+01
   -.210E+01 0.413E+02 -.227E+03   0.262E+01 -.466E+02 0.230E+03   -.495E+00 0.503E+01 -.251E+01
   0.199E+02 0.290E+02 -.215E+03   -.224E+02 -.330E+02 0.212E+03   0.235E+01 0.383E+01 0.335E+01
   -.336E+01 -.405E+02 -.217E+03   0.391E+01 0.457E+02 0.214E+03   -.512E+00 -.495E+01 0.270E+01
   0.323E+02 -.772E+01 -.246E+03   -.363E+02 0.860E+01 0.251E+03   0.372E+01 -.829E+00 -.419E+01
   -.332E+02 0.633E+01 -.199E+03   0.371E+02 -.697E+01 0.194E+03   -.369E+01 0.589E+00 0.428E+01
   0.226E+01 0.412E+02 -.227E+03   -.280E+01 -.465E+02 0.230E+03   0.511E+00 0.500E+01 -.255E+01
   -.204E+02 -.276E+02 -.230E+03   0.228E+02 0.313E+02 0.234E+03   -.234E+01 -.358E+01 -.368E+01
   0.199E+02 0.290E+02 -.215E+03   -.224E+02 -.330E+02 0.212E+03   0.235E+01 0.383E+01 0.335E+01
   -.335E+01 -.405E+02 -.217E+03   0.391E+01 0.457E+02 0.214E+03   -.512E+00 -.495E+01 0.270E+01
   0.323E+02 -.772E+01 -.246E+03   -.363E+02 0.860E+01 0.251E+03   0.372E+01 -.830E+00 -.419E+01
   -.332E+02 0.633E+01 -.199E+03   0.371E+02 -.697E+01 0.194E+03   -.369E+01 0.588E+00 0.428E+01
   0.226E+01 0.412E+02 -.227E+03   -.280E+01 -.465E+02 0.230E+03   0.511E+00 0.500E+01 -.255E+01
   -.204E+02 -.276E+02 -.230E+03   0.228E+02 0.313E+02 0.234E+03   -.234E+01 -.358E+01 -.368E+01
   -.873E-01 0.121E-02 0.214E+04   0.904E-01 -.438E-03 -.214E+04   -.235E-02 -.692E-03 -.680E+01
   -.960E-01 -.258E-02 0.214E+04   0.997E-01 0.320E-02 -.214E+04   -.286E-02 -.569E-03 -.682E+01
   -.303E+00 0.282E-01 0.859E+03   0.331E+00 -.146E-01 -.859E+03   -.193E-01 -.925E-02 0.377E+00
   -.353E+00 0.331E-01 0.858E+03   0.379E+00 -.183E-01 -.859E+03   -.182E-01 -.997E-02 0.461E+00
   0.104E+01 -.160E-01 -.418E+03   -.975E+00 0.203E-01 0.418E+03   -.762E-01 -.287E-02 -.253E+00
   0.753E+00 -.107E+00 -.419E+03   -.679E+00 0.120E+00 0.419E+03   -.802E-01 -.678E-02 -.297E+00
   0.727E+01 0.118E+01 -.169E+04   -.737E+01 -.118E+01 0.169E+04   0.990E-01 -.104E-01 0.593E+01
   0.206E+01 -.617E+00 -.168E+04   -.213E+01 0.632E+00 0.167E+04   0.872E-01 -.151E-01 0.578E+01
   -.917E-01 0.980E-03 0.214E+04   0.947E-01 -.204E-03 -.214E+04   -.225E-02 -.705E-03 -.680E+01
   -.960E-01 0.497E-02 0.214E+04   0.997E-01 -.392E-02 -.214E+04   -.288E-02 -.909E-03 -.682E+01
   -.302E+00 0.353E-01 0.859E+03   0.330E+00 -.210E-01 -.859E+03   -.195E-01 -.963E-02 0.377E+00
   -.336E+00 0.316E-01 0.858E+03   0.363E+00 -.168E-01 -.859E+03   -.193E-01 -.996E-02 0.458E+00
   0.869E+00 -.109E-01 -.418E+03   -.802E+00 0.161E-01 0.418E+03   -.696E-01 -.382E-02 -.246E+00
   0.761E+00 0.113E+00 -.419E+03   -.687E+00 -.110E+00 0.419E+03   -.808E-01 -.311E-02 -.297E+00
   0.730E+01 0.935E+00 -.169E+04   -.739E+01 -.956E+00 0.169E+04   0.965E-01 0.211E-01 0.593E+01
   0.227E+01 -.634E+00 -.168E+04   -.232E+01 0.647E+00 0.167E+04   0.527E-01 -.121E-01 0.579E+01
   0.868E-01 0.131E-02 0.214E+04   -.903E-01 -.484E-03 -.214E+04   0.274E-02 -.731E-03 -.682E+01
   0.961E-01 0.178E-02 0.214E+04   -.997E-01 -.110E-02 -.214E+04   0.270E-02 -.627E-03 -.681E+01
   0.309E+00 0.287E-01 0.858E+03   -.334E+00 -.157E-01 -.858E+03   0.176E-01 -.852E-02 0.469E+00
   0.335E+00 0.311E-01 0.859E+03   -.369E+00 -.171E-01 -.859E+03   0.234E-01 -.943E-02 0.375E+00
   -.809E+00 0.584E-02 -.419E+03   0.736E+00 0.196E-02 0.419E+03   0.780E-01 -.495E-02 -.287E+00
   -.971E+00 -.247E-01 -.418E+03   0.891E+00 0.285E-01 0.418E+03   0.834E-01 -.247E-02 -.246E+00
   -.243E+01 -.845E+00 -.168E+04   0.249E+01 0.849E+00 0.167E+04   -.633E-01 0.671E-03 0.578E+01
   -.702E+01 0.945E+00 -.169E+04   0.715E+01 -.954E+00 0.169E+04   -.122E+00 0.504E-02 0.592E+01
   0.915E-01 0.105E-02 0.214E+04   -.948E-01 -.219E-03 -.214E+04   0.254E-02 -.739E-03 -.682E+01
   0.962E-01 0.503E-03 0.214E+04   -.997E-01 0.378E-03 -.214E+04   0.269E-02 -.765E-03 -.681E+01
   0.308E+00 0.363E-01 0.858E+03   -.333E+00 -.196E-01 -.858E+03   0.175E-01 -.113E-01 0.469E+00
   0.316E+00 0.310E-01 0.859E+03   -.349E+00 -.168E-01 -.859E+03   0.234E-01 -.960E-02 0.378E+00
   -.625E+00 -.254E-02 -.419E+03   0.550E+00 0.101E-01 0.419E+03   0.729E-01 -.452E-02 -.291E+00
   -.976E+00 0.101E-01 -.418E+03   0.895E+00 -.413E-02 0.418E+03   0.841E-01 -.473E-02 -.246E+00
   -.246E+01 -.456E+00 -.168E+04   0.251E+01 0.483E+00 0.167E+04   -.605E-01 -.318E-01 0.578E+01
   -.723E+01 0.969E+00 -.169E+04   0.732E+01 -.975E+00 0.169E+04   -.886E-01 0.205E-02 0.592E+01
   -.161E+00 0.307E-01 0.644E+03   0.152E+00 -.484E-01 -.644E+03   0.110E-01 0.234E-01 -.380E-01
   -.196E+00 0.745E-02 0.643E+03   0.181E+00 -.252E-01 -.643E+03   0.199E-01 0.237E-01 -.105E+00
   -.680E-01 -.197E-02 0.161E+04   0.714E-01 0.130E-02 -.161E+04   -.466E-02 0.961E-03 0.360E+01
   -.734E-01 -.661E-03 0.161E+04   0.775E-01 0.787E-04 -.161E+04   -.574E-02 0.848E-03 0.359E+01
   0.854E+01 -.101E+01 -.129E+04   -.846E+01 0.101E+01 0.129E+04   -.810E-01 -.365E-02 -.519E+01
   0.444E+01 0.227E+00 -.128E+04   -.434E+01 -.196E+00 0.129E+04   -.108E+00 -.321E-01 -.513E+01
   0.519E+00 0.209E-01 -.307E+03   -.518E+00 -.260E-01 0.307E+03   -.382E-02 0.591E-02 0.408E+00
   0.357E+00 0.157E-01 -.309E+03   -.365E+00 -.222E-01 0.308E+03   0.701E-02 0.887E-02 0.224E+00
   -.193E+00 0.306E-01 0.644E+03   0.186E+00 -.482E-01 -.644E+03   0.927E-02 0.234E-01 -.359E-01
   -.194E+00 0.550E-01 0.643E+03   0.179E+00 -.745E-01 -.643E+03   0.203E-01 0.258E-01 -.105E+00
   -.681E-01 0.648E-03 0.161E+04   0.714E-01 -.103E-02 -.161E+04   -.466E-02 0.569E-03 0.360E+01
   -.726E-01 -.829E-03 0.161E+04   0.767E-01 0.254E-03 -.161E+04   -.565E-02 0.832E-03 0.359E+01
   0.839E+01 -.995E+00 -.129E+04   -.830E+01 0.100E+01 0.129E+04   -.918E-01 -.328E-02 -.518E+01
   0.445E+01 0.312E+00 -.128E+04   -.434E+01 -.280E+00 0.129E+04   -.108E+00 -.319E-01 -.513E+01
   0.524E+00 0.132E-01 -.307E+03   -.523E+00 -.126E-01 0.307E+03   -.398E-02 0.134E-02 0.407E+00
   0.436E+00 0.100E-01 -.309E+03   -.446E+00 -.159E-01 0.309E+03   0.485E-02 0.831E-02 0.223E+00
   0.158E+00 0.318E-01 0.643E+03   -.140E+00 -.505E-01 -.643E+03   -.235E-01 0.248E-01 -.111E+00
   0.193E+00 0.350E-01 0.644E+03   -.181E+00 -.535E-01 -.644E+03   -.148E-01 0.246E-01 -.397E-01
   0.679E-01 -.133E-02 0.161E+04   -.714E-01 0.550E-03 -.161E+04   0.497E-02 0.112E-02 0.359E+01
   0.738E-01 -.614E-03 0.161E+04   -.775E-01 0.687E-04 -.161E+04   0.517E-02 0.792E-03 0.360E+01
   -.439E+01 0.294E+00 -.128E+04   0.428E+01 -.262E+00 0.129E+04   0.113E+00 -.334E-01 -.515E+01
   -.842E+01 -.945E+00 -.129E+04   0.832E+01 0.955E+00 0.129E+04   0.103E+00 -.753E-02 -.517E+01
   -.429E+00 -.455E-01 -.309E+03   0.443E+00 0.454E-01 0.309E+03   -.137E-01 0.213E-02 0.181E+00
   -.508E+00 0.835E-02 -.307E+03   0.518E+00 -.100E-01 0.306E+03   -.957E-02 0.316E-02 0.446E+00
   0.197E+00 0.304E-01 0.643E+03   -.183E+00 -.490E-01 -.643E+03   -.187E-01 0.247E-01 -.108E+00
   0.193E+00 0.280E-01 0.644E+03   -.182E+00 -.451E-01 -.644E+03   -.147E-01 0.227E-01 -.398E-01
   0.678E-01 -.139E-03 0.161E+04   -.714E-01 -.237E-03 -.161E+04   0.498E-02 0.548E-03 0.359E+01
   0.728E-01 -.784E-03 0.161E+04   -.765E-01 0.261E-03 -.161E+04   0.520E-02 0.762E-03 0.360E+01
   -.429E+01 0.286E+00 -.128E+04   0.417E+01 -.252E+00 0.129E+04   0.113E+00 -.339E-01 -.513E+01
   -.843E+01 -.897E+00 -.129E+04   0.833E+01 0.902E+00 0.129E+04   0.102E+00 -.497E-02 -.517E+01
   -.439E+00 0.733E-01 -.309E+03   0.454E+00 -.855E-01 0.309E+03   -.149E-01 0.147E-01 0.181E+00
   -.611E+00 0.146E-01 -.307E+03   0.629E+00 -.166E-01 0.306E+03   -.157E-01 0.327E-02 0.431E+00
 -----------------------------------------------------------------------------------------------
   -.206E-01 0.334E+00 0.173E+02   0.682E-12 0.142E-13 -.455E-11   0.188E-01 -.319E+00 -.173E+02


 POSITION                                       TOTAL-FORCE (eV/Angst)
 -----------------------------------------------------------------------------------
      3.80903      4.21230     16.93524        -0.374899     -0.133460      0.154289
      2.45877      3.69219     17.42273         0.367353      0.122503     -0.081114
      3.80908      0.00989     16.93530        -0.374727     -0.133899      0.153540
      2.45877      7.89461     17.42273         0.367709      0.122818     -0.079500
      6.63922      6.30961     16.92195         0.374512     -0.131999      0.151926
      7.98477      5.80043     17.43319        -0.366885      0.123358     -0.075485
      6.63922      2.10719     16.92201         0.374001     -0.133055      0.151053
      7.98477      1.59799     17.43322        -0.366696      0.124523     -0.074653
      3.70765      5.16623     16.41372        -0.038870      0.288153     -0.170466
      4.27440      3.48908     16.26016         0.143295     -0.202175     -0.218775
      4.50523      4.36489     17.76099         0.198880      0.048308      0.250530
      1.76499      3.57836     16.58922        -0.209924     -0.043978     -0.277564
      2.00070      4.37941     18.13631        -0.111767      0.164298      0.211850
      2.56256      2.72030     17.90838         0.028348     -0.266826      0.157386
      3.70751      0.96389     16.41395        -0.038377      0.287057     -0.172242
      4.27442      7.69135     16.26035         0.142510     -0.200275     -0.219953
      4.50574      0.16269     17.76062         0.196870      0.047408      0.252875
      1.76510      7.78080     16.58910        -0.209398     -0.043698     -0.277340
      2.00052      0.17686     18.13631        -0.111237      0.164512      0.211308
      2.56239      6.92270     17.90837         0.028978     -0.267111      0.157240
      6.18726      5.57775     16.24688        -0.139189     -0.202614     -0.218509
      6.74436      7.25992     16.39409         0.039795      0.286943     -0.172446
      5.92949      6.46663     17.73487        -0.199687      0.048270      0.254764
      0.28575      5.68178     16.61090         0.215991     -0.045916     -0.279137
      7.87823      4.83286     17.92697        -0.028889     -0.265701      0.158264
      0.02482      6.49695     18.14640         0.107481      0.162758      0.208366
      6.18733      1.37534     16.24683        -0.139035     -0.201810     -0.217448
      6.74445      3.05747     16.39417         0.039828      0.287651     -0.173094
      5.92941      2.26433     17.73482        -0.199642      0.047707      0.255077
      0.28562      1.47942     16.61082         0.216463     -0.046086     -0.278889
      7.87831      0.63039     17.92697        -0.029016     -0.265722      0.158237
      0.02482      2.29455     18.14645         0.107192      0.161822      0.207516
      2.10122      0.00000      7.50000         0.000748     -0.000079      0.256134
      4.20243      2.10122      7.50000         0.000876     -0.000107      0.258566
      2.10122      2.10122      9.60122         0.008253      0.004116      0.018150
      4.20243      0.00000      9.60122         0.007142      0.004639      0.029292
      2.10335      0.00292     11.70874        -0.006027      0.001235      0.002319
      4.20536      2.10413     11.71552        -0.006097      0.005959     -0.003566
      2.09860      2.10795     13.78424         0.001631     -0.008006      0.122052
      4.19724      0.00763     13.80613         0.009610     -0.000413      0.104529
      2.10122      4.20243      7.50000         0.000741     -0.000085      0.256024
      4.20243      6.30365      7.50000         0.000873     -0.000013      0.258560
      2.10122      6.30365      9.60122         0.008306      0.004429      0.018213
      4.20243      4.20243      9.60122         0.007515      0.004629      0.031389
      2.10305      4.20538     11.70854        -0.001904      0.001231      0.004519
      4.20541      6.30687     11.71552        -0.006436     -0.000301     -0.003583
      2.09875      6.30909     13.78426         0.000737     -0.000054      0.121901
      4.19860      4.20996     13.80597         0.003843      0.000063      0.102795
      6.30365      0.00000      7.50000        -0.000762     -0.000058      0.258817
      0.00000      2.10122      7.50000        -0.000802     -0.000102      0.256211
      6.30365      2.10122      9.60122        -0.006918      0.004194      0.032525
      0.00000      0.00000      9.60122        -0.009824      0.004315      0.016655
      6.30042      0.00308     11.71612         0.004470      0.002641     -0.007540
      8.40229      2.10415     11.70887         0.002722      0.001152      0.002414
      6.30584      2.10815     13.80951        -0.004624      0.004222      0.090490
      0.00101      0.00613     13.78205         0.000060     -0.003878      0.137908
      6.30365      4.20243      7.50000        -0.000746     -0.000063      0.258662
      0.00000      6.30365      7.50000        -0.000811     -0.000040      0.256210
      6.30365      6.30365      9.60122        -0.006871      0.005139      0.032558
      0.00000      4.20243      9.60122        -0.009510      0.004356      0.015803
      6.30108      4.20549     11.71581        -0.001582      0.002862     -0.003261
      8.40229      6.30663     11.70888         0.002724      0.001055      0.002454
      6.30577      6.31193     13.80954        -0.004139     -0.005312      0.090253
      0.00012      4.20866     13.78288         0.003310     -0.004259      0.131889
      2.10122      0.00000      9.60122         0.002622      0.005610      0.044389
      4.20243      2.10122      9.60122         0.004956      0.005783      0.059186
      2.10122      2.10122      7.50000        -0.001308      0.000136     -0.457215
      4.20243      0.00000      7.50000        -0.001626      0.000109     -0.459151
      2.09576      0.00582     13.83559        -0.000283      0.001807      0.011253
      4.19883      2.10781     13.84471        -0.001420     -0.000946      0.003790
      2.10184      2.10420     11.70238        -0.002717      0.000598     -0.010451
      4.20242      0.00301     11.70853        -0.001581      0.002198     -0.004807
      2.10122      4.20243      9.60122         0.002337      0.005600      0.044094
      4.20243      6.30365      9.60122         0.005041      0.006166      0.059176
      2.10122      6.30365      7.50000        -0.001313      0.000029     -0.457222
      4.20243      4.20243      7.50000        -0.001598      0.000099     -0.459030
      2.09557      4.20831     13.83578         0.001131      0.001388      0.011096
      4.19891      6.31019     13.84471        -0.001804     -0.000675      0.003958
      2.10188      6.30639     11.70239        -0.002917      0.001796     -0.010486
      4.20288      4.20542     11.70866        -0.005063      0.002245     -0.006479
      6.30365      0.00000      9.60122        -0.005838      0.005982      0.060199
      0.00000      2.10122      9.60122        -0.003600      0.005933      0.044599
      6.30365      2.10122      7.50000         0.001437      0.000183     -0.459137
      0.00000      0.00000      7.50000         0.001487      0.000090     -0.457425
      6.30498      0.00658     13.84597         0.002557     -0.001105     -0.003640
      0.00358      2.10693     13.83607         0.002274      0.002173      0.015784
      6.30331      2.10408     11.70956         0.000319      0.001901     -0.008823
      8.40374      0.00286     11.70188         0.000302      0.001323     -0.007180
      6.30365      4.20243      9.60122        -0.004821      0.005958      0.059622
      0.00000      6.30365      9.60122        -0.003562      0.005382      0.044589
      6.30365      6.30365      7.50000         0.001450      0.000015     -0.459139
      0.00000      4.20243      7.50000         0.001499      0.000083     -0.457355
      6.30551      4.20895     13.84563        -0.000444     -0.000832     -0.000275
      0.00357      6.30970     13.83607         0.002348      0.000337      0.015788
      6.30331      6.30679     11.70957         0.000331      0.002347     -0.008856
      8.40357      4.20532     11.70201         0.002329      0.001056     -0.007796
 -----------------------------------------------------------------------------------
    total drift:                               -0.001854      0.015037      0.002983


--------------------------------------------------------------------------------------------------------



  FREE ENERGIE OF THE ION-ELECTRON SYSTEM (eV)
  ---------------------------------------------------
  free  energy   TOTEN  =      -417.45866236 eV

  energy  without entropy=     -417.45866236  energy(sigma->0) =     -417.45866236



--------------------------------------------------------------------------------------------------------


    POTLOK:  cpu time      0.7082: real time      0.7085


--------------------------------------------------------------------------------------------------------


     LOOP+:  cpu time    114.2591: real time    114.3588
    4ORBIT:  cpu time      0.0000: real time      0.0000

 total amount of memory used by VASP MPI-rank0    69689. kBytes
=======================================================================

   base      :      30000. kBytes
   nonl-proj :      20275. kBytes
   fftplans  :       4923. kBytes
   grid      :       8190. kBytes
   one-center:         97. kBytes
   wavefun   :       6204. kBytes

  
  
 General timing and accounting informations for this job:
 ========================================================
  
                  Total CPU time used (sec):      151.093
                            User time (sec):      149.921
                          System time (sec):        1.172
                         Elapsed time (sec):      163.228
  
                   Maximum memory used (kb):      383888.
                   Average memory used (kb):          N/A
  
                          Minor page faults:        62894
                          Major page faults:          823
                 Voluntary context switches:        10747
