 vasp.6.3.0 20Jan22 (build Mar 11 2022 13:48:16) complex                        
  
 executed on             LinuxIFC date 2024.01.22  16:29:44
 running on  304 total cores
 distrk:  each k-point on  304 cores,    1 groups
 distr:  one band on NCORE=   2 cores,  152 groups


--------------------------------------------------------------------------------------------------------


 INCAR:
   SYSTEM = TiO2
   ISMEAR = 0
   SIGMA = 0.05
   EDIFF = 1E-5
   ALGO = ALL
   ISTART = 0
   IBRION = -1
   NSW = 0
   ISYM = 0
   ISIF = 2
   EDIFFG = -0.01
   DIPOL = 0.5 0.5 0.5
   IDIPOL = 3
   LDIPOL = .TRUE.
   GGA = MK
   LUSE_VDW = .TRUE.
   PARAM1 = 0.1234
   PARAM2 = 0.711357
   ZAB_VDW = -1.8867
   AGGAC = 0.0
   ENCUT = 600
   PREC = Accurate
   LASPH = .TRUE.
   LREAL = .FALSE.
   ISPIN = 1
   NELM = 200
   NELMIN = 8
   NCORE = 2
   KPAR = 1
   LWAVE = .FALSE.
   LCHARG = .FALSE.

 POTCAR:    PAW_PBE N 08Apr2002                   
 POTCAR:    PAW_PBE H 15Jun2001                   
 POTCAR:    PAW_PBE Ti_pv 07Sep2000               
 POTCAR:    PAW_PBE O 08Apr2002                   
 -----------------------------------------------------------------------------
|                                                                             |
|           W    W    AA    RRRRR   N    N  II  N    N   GGGG   !!!           |
|           W    W   A  A   R    R  NN   N  II  NN   N  G    G  !!!           |
|           W    W  A    A  R    R  N N  N  II  N N  N  G       !!!           |
|           W WW W  AAAAAA  RRRRR   N  N N  II  N  N N  G  GGG   !            |
|           WW  WW  A    A  R   R   N   NN  II  N   NN  G    G                |
|           W    W  A    A  R    R  N    N  II  N    N   GGGG   !!!           |
|                                                                             |
|     For optimal performance we recommend to set                             |
|       NCORE = 2 up to number-of-cores-per-socket                            |
|     NCORE specifies how many cores store one orbital (NPAR=cpu/NCORE).      |
|     This setting can greatly improve the performance of VASP for DFT.       |
|     The default, NCORE=1 might be grossly inefficient on modern             |
|     multi-core architectures or massively parallel machines. Do your        |
|     own testing! More info at https://www.vasp.at/wiki/index.php/NCORE      |
|     Unfortunately you need to use the default for GW and RPA                |
|     calculations (for HF NCORE is supported but not extensively tested      |
|     yet).                                                                   |
|                                                                             |
 -----------------------------------------------------------------------------

 -----------------------------------------------------------------------------
|                                                                             |
|               ----> ADVICE to this user running VASP <----                  |
|                                                                             |
|     You have switched on vdW-DFT.                                           |
|     This routine was written and supplied by Jiri Klimes. We recommend      |
|     that you carefully read and cite the following publications:            |
|       J. Klimes, D.R. Bowler, A. Michelides                                 |
|          J. Phys.: Cond Matt. 22 022201 (2010)                              |
|       J. Klimes, D.R. Bowler, A. Michelides                                 |
|          Phys. Rev. B. 83, 195131 (2011)                                    |
|     and references therein.                                                 |
|                                                                             |
 -----------------------------------------------------------------------------

 POTCAR:    PAW_PBE N 08Apr2002                   
   SHA256 =  e053789ff3a61a86a1b75d8a110fcc91f86041011e7b0817c7c99e4e8a6349d7 N/POTCAR              
   COPYR  = (c) Copyright 08Apr2002 Georg Kresse                                                    
   COPYR  = This file is part of the software VASP. Any use, copying, and all other rights are regul
   COPYR  = If you do not have a valid VASP license, you may not use, copy or distribute this file. 
   VRHFIN =N: s2p3                                                                                  
   LEXCH  = PE                                                                                      
   EATOM  =   264.5486 eV,   19.4438 Ry                                                             
                                                                                                    
   TITEL  = PAW_PBE N 08Apr2002                                                                     
   LULTRA =        F    use ultrasoft PP ?                                                          
   IUNSCR =        1    unscreen: 0-lin 1-nonlin 2-no                                               
   RPACOR =    1.200    partial core radius                                                         
   POMASS =   14.001; ZVAL   =    5.000    mass and valenz                                          
   RCORE  =    1.500    outmost cutoff radius                                                       
   RWIGS  =    1.400; RWIGS  =    0.741    wigner-seitz radius (au A)                               
   ENMAX  =  400.000; ENMIN  =  300.000 eV                                                          
   ICORE  =        2    local potential                                                             
   LCOR   =        T    correct aug charges                                                         
   LPAW   =        T    paw PP                                                                      
   EAUG   =  627.112                                                                                
   DEXC   =    0.000                                                                                
   RMAX   =    1.529    core radius for proj-oper                                                   
   RAUG   =    1.300    factor for augmentation sphere                                              
   RDEP   =    1.514    radius for radial grids                                                     
   RDEPT  =    1.338    core radius for aug-charge                                                  
                                                                                                    
   Atomic configuration                                                                             
    4 entries                                                                                       
     n  l   j            E        occ.                                                              
     1  0  0.50      -384.7179   2.0000                                                             
     2  0  0.50       -18.5828   2.0000                                                             
     2  1  0.50        -7.0898   3.0000                                                             
     3  2  1.50        -6.8029   0.0000                                                             
   Description                                                                                      
     l       E           TYP  RCUT    TYP  RCUT                                                     
     0    -18.5828119     23  1.200                                                                 
     0    -13.5018863     23  1.200                                                                 
     1     -7.0897853     23  1.500                                                                 
     1      9.5240782     23  1.500                                                                 
     2     -6.8029130      7  1.500                                                                 
  local pseudopotential read in
  partial core-charges read in
  partial kinetic energy density read in
  atomic valenz-charges read in
  non local Contribution for L=           0  read in
    real space projection operators read in
  non local Contribution for L=           0  read in
    real space projection operators read in
  non local Contribution for L=           1  read in
    real space projection operators read in
  non local Contribution for L=           1  read in
    real space projection operators read in
    PAW grid and wavefunctions read in
 
   number of l-projection  operators is LMAX  =           4
   number of lm-projection operators is LMMAX =           8
 
 POTCAR:    PAW_PBE H 15Jun2001                   
   SHA256 =  030f79b5d3ab3cf0e668861823c8fb652ff669f3e15e46930bd03bfd63a607b6 H/POTCAR              
   COPYR  = (c) Copyright 15Jun2001 Georg Kresse                                                    
   COPYR  = This file is part of the software VASP. Any use, copying, and all other rights are regul
   COPYR  = If you do not have a valid VASP license, you may not use, copy or distribute this file. 
   VRHFIN =H: ultrasoft test                                                                        
   LEXCH  = PE                                                                                      
   EATOM  =    12.4884 eV,    0.9179 Ry                                                             
                                                                                                    
   TITEL  = PAW_PBE H 15Jun2001                                                                     
   LULTRA =        F    use ultrasoft PP ?                                                          
   IUNSCR =        0    unscreen: 0-lin 1-nonlin 2-no                                               
   RPACOR =    0.000    partial core radius                                                         
   POMASS =    1.000; ZVAL   =    1.000    mass and valenz                                          
   RCORE  =    1.100    outmost cutoff radius                                                       
   RWIGS  =    0.700; RWIGS  =    0.370    wigner-seitz radius (au A)                               
   ENMAX  =  250.000; ENMIN  =  200.000 eV                                                          
   RCLOC  =    0.701    cutoff for local pot                                                        
   LCOR   =        T    correct aug charges                                                         
   LPAW   =        T    paw PP                                                                      
   EAUG   =  400.000                                                                                
   RMAX   =    1.123    core radius for proj-oper                                                   
   RAUG   =    1.200    factor for augmentation sphere                                              
   RDEP   =    1.112    radius for radial grids                                                     
   RDEPT  =    0.926    core radius for aug-charge                                                  
                                                                                                    
   Atomic configuration                                                                             
    2 entries                                                                                       
     n  l   j            E        occ.                                                              
     1  0  0.50        -6.4927   1.0000                                                             
     2  1  0.50        -3.4015   0.0000                                                             
   Description                                                                                      
     l       E           TYP  RCUT    TYP  RCUT                                                     
     0     -6.4927494     23  1.100                                                                 
     0      6.8029130     23  1.100                                                                 
     1     -4.0817478     23  1.100                                                                 
  local pseudopotential read in
  atomic valenz-charges read in
  non local Contribution for L=           0  read in
    real space projection operators read in
  non local Contribution for L=           0  read in
    real space projection operators read in
  non local Contribution for L=           1  read in
    real space projection operators read in
    PAW grid and wavefunctions read in
 
   number of l-projection  operators is LMAX  =           3
   number of lm-projection operators is LMMAX =           5
 
 POTCAR:    PAW_PBE Ti_pv 07Sep2000               
   SHA256 =  f757a1b2c6d082f4c628fa3d987464a8763bf92e53844ac0500b0e2ddc9ce5c0 Ti_pv/POTCAR          
   COPYR  = (c) Copyright 07Sep2000 Georg Kresse                                                    
   COPYR  = This file is part of the software VASP. Any use, copying, and all other rights are regul
   COPYR  = If you do not have a valid VASP license, you may not use, copy or distribute this file. 
   VRHFIN =Ti: d3 s1                                                                                
   LEXCH  = PE                                                                                      
   EATOM  =  1042.5995 eV,   76.6289 Ry                                                             
                                                                                                    
   TITEL  = PAW_PBE Ti_pv 07Sep2000                                                                 
   LULTRA =        F    use ultrasoft PP ?                                                          
   IUNSCR =        1    unscreen: 0-lin 1-nonlin 2-no                                               
   RPACOR =    2.200    partial core radius                                                         
   POMASS =   47.880; ZVAL   =   10.000    mass and valenz                                          
   RCORE  =    2.500    outmost cutoff radius                                                       
   RWIGS  =    2.500; RWIGS  =    1.323    wigner-seitz radius (au A)                               
   ENMAX  =  222.335; ENMIN  =  166.751 eV                                                          
   RCLOC  =    1.701    cutoff for local pot                                                        
   LCOR   =        T    correct aug charges                                                         
   LPAW   =        T    paw PP                                                                      
   EAUG   =  482.848                                                                                
   DEXC   =    0.000                                                                                
   RMAX   =    2.564    core radius for proj-oper                                                   
   RAUG   =    1.300    factor for augmentation sphere                                              
   RDEP   =    2.538    radius for radial grids                                                     
   RDEPT  =    1.952    core radius for aug-charge                                                  
                                                                                                    
   Atomic configuration                                                                             
    8 entries                                                                                       
     n  l   j            E        occ.                                                              
     1  0  0.50     -4865.3608   2.0000                                                             
     2  0  0.50      -533.1368   2.0000                                                             
     2  1  1.50      -440.5031   6.0000                                                             
     3  0  0.50       -59.3186   2.0000                                                             
     3  1  1.50       -35.7012   6.0000                                                             
     3  2  2.50        -1.9157   3.0000                                                             
     4  0  0.50        -3.7291   1.0000                                                             
     4  3  2.50        -1.3606   0.0000                                                             
   Description                                                                                      
     l       E           TYP  RCUT    TYP  RCUT                                                     
     1    -35.7012140     23  2.300                                                                 
     1     -1.3605826     23  2.300                                                                 
     2     -1.9156996     23  2.500                                                                 
     2     -0.4063033     23  2.500                                                                 
     0     -3.7290856     23  2.500                                                                 
     0     20.4087390     23  2.500                                                                 
  local pseudopotential read in
  partial core-charges read in
  partial kinetic energy density read in
  atomic valenz-charges read in
  non local Contribution for L=           1  read in
    real space projection operators read in
  non local Contribution for L=           1  read in
    real space projection operators read in
  non local Contribution for L=           2  read in
    real space projection operators read in
  non local Contribution for L=           2  read in
    real space projection operators read in
  non local Contribution for L=           0  read in
    real space projection operators read in
  non local Contribution for L=           0  read in
    real space projection operators read in
    PAW grid and wavefunctions read in
 
   number of l-projection  operators is LMAX  =           6
   number of lm-projection operators is LMMAX =          18
 
 POTCAR:    PAW_PBE O 08Apr2002                   
   SHA256 =  818f92134a0a090dccd8ba1447fa70422a3b330e708bb4f08108d8ae51209ddf O/POTCAR              
   COPYR  = (c) Copyright 08Apr2002 Georg Kresse                                                    
   COPYR  = This file is part of the software VASP. Any use, copying, and all other rights are regul
   COPYR  = If you do not have a valid VASP license, you may not use, copy or distribute this file. 
   VRHFIN =O: s2p4                                                                                  
   LEXCH  = PE                                                                                      
   EATOM  =   432.3788 eV,   31.7789 Ry                                                             
                                                                                                    
   TITEL  = PAW_PBE O 08Apr2002                                                                     
   LULTRA =        F    use ultrasoft PP ?                                                          
   IUNSCR =        1    unscreen: 0-lin 1-nonlin 2-no                                               
   RPACOR =    1.200    partial core radius                                                         
   POMASS =   16.000; ZVAL   =    6.000    mass and valenz                                          
   RCORE  =    1.520    outmost cutoff radius                                                       
   RWIGS  =    1.550; RWIGS  =    0.820    wigner-seitz radius (au A)                               
   ENMAX  =  400.000; ENMIN  =  300.000 eV                                                          
   ICORE  =        2    local potential                                                             
   LCOR   =        T    correct aug charges                                                         
   LPAW   =        T    paw PP                                                                      
   EAUG   =  605.392                                                                                
   DEXC   =    0.000                                                                                
   RMAX   =    1.553    core radius for proj-oper                                                   
   RAUG   =    1.300    factor for augmentation sphere                                              
   RDEP   =    1.550    radius for radial grids                                                     
   RDEPT  =    1.329    core radius for aug-charge                                                  
                                                                                                    
   Atomic configuration                                                                             
    4 entries                                                                                       
     n  l   j            E        occ.                                                              
     1  0  0.50      -514.6923   2.0000                                                             
     2  0  0.50       -23.9615   2.0000                                                             
     2  1  0.50        -9.0305   4.0000                                                             
     3  2  1.50        -9.5241   0.0000                                                             
   Description                                                                                      
     l       E           TYP  RCUT    TYP  RCUT                                                     
     0    -23.9615318     23  1.200                                                                 
     0     -9.5240782     23  1.200                                                                 
     1     -9.0304911     23  1.520                                                                 
     1      8.1634956     23  1.520                                                                 
     2     -9.5240782      7  1.500                                                                 
  local pseudopotential read in
  partial core-charges read in
  partial kinetic energy density read in
  kinetic energy density of atom read in
  atomic valenz-charges read in
  non local Contribution for L=           0  read in
    real space projection operators read in
  non local Contribution for L=           0  read in
    real space projection operators read in
  non local Contribution for L=           1  read in
    real space projection operators read in
  non local Contribution for L=           1  read in
    real space projection operators read in
    PAW grid and wavefunctions read in
 
   number of l-projection  operators is LMAX  =           4
   number of lm-projection operators is LMMAX =           8
 
 -----------------------------------------------------------------------------
|                                                                             |
|               ----> ADVICE to this user running VASP <----                  |
|                                                                             |
|     You have a (more or less) 'large supercell' and for larger cells it     |
|     might be more efficient to use real-space projection operators.         |
|     Therefore, try LREAL= Auto in the INCAR file.                           |
|     Mind: For very accurate calculation, you might also keep the            |
|     reciprocal projection scheme (i.e. LREAL=.FALSE.).                      |
|                                                                             |
 -----------------------------------------------------------------------------

 -----------------------------------------------------------------------------
|                                                                             |
|               ----> ADVICE to this user running VASP <----                  |
|                                                                             |
|     You enforced a specific xc type in the INCAR file but a different       |
|     type was found in the POTCAR file.                                      |
|     I HOPE YOU KNOW WHAT YOU ARE DOING!                                     |
|                                                                             |
 -----------------------------------------------------------------------------

  PAW_PBE N 08Apr2002                   :
 energy of atom  1       EATOM= -264.5486
 kinetic energy error for atom=    0.0103 (will be added to EATOM!!)
  PAW_PBE H 15Jun2001                   :
 energy of atom  2       EATOM=  -12.4884
 kinetic energy error for atom=    0.0004 (will be added to EATOM!!)
  PAW_PBE Ti_pv 07Sep2000               :
 energy of atom  3       EATOM=-1042.5995
 kinetic energy error for atom=    0.0007 (will be added to EATOM!!)
  PAW_PBE O 08Apr2002                   :
 energy of atom  4       EATOM= -432.3788
 kinetic energy error for atom=    0.0168 (will be added to EATOM!!)
 
 
 POSCAR:  N  H Ti  O
  positions in direct lattice
  No initial velocities read in
 exchange correlation table for  LEXCH =       43
   RHO(1)=    0.500       N(1)  =     2000
   RHO(2)=  100.500       N(2)  =     4000
 


--------------------------------------------------------------------------------------------------------


 ion  position               nearest neighbor table
   1  0.610  0.500  0.778-   2 1.02   4 1.03   3 1.03  52 2.28
   2  0.547  0.500  0.806-   1 1.02
   3  0.669  0.428  0.781-   1 1.03
   4  0.669  0.572  0.781-   1 1.03
   5  0.810  0.833  0.295-  55 1.94  89 1.94  57 1.94  56 2.00  54 2.00   8 3.06  22 3.06   6 3.06

   6  0.594  0.667  0.326-  58 1.94 120 1.94  53 1.94  56 1.94  59 2.00  57 2.00   7 3.06  37 3.06
                             5 3.06  11 3.09
   7  0.310  0.667  0.295-  59 1.94 125 1.94  61 1.94  60 2.00  53 2.00   6 3.06  40 3.06   8 3.06

   8  0.094  0.833  0.326-  62 1.94  92 1.94  54 1.94  60 1.94  55 2.00  61 2.00   5 3.06  23 3.06
                             7 3.06   9 3.09
   9  0.946  0.833  0.422-  63 1.93  97 1.94  65 1.94  55 1.98  64 1.99  62 2.00  12 3.01  26 3.06
                            10 3.06   8 3.09
  10  0.728  0.666  0.451-  58 1.90 128 1.94  64 1.95  66 1.96  67 1.99  65 2.00  11 3.02   9 3.06
                            41 3.06  15 3.11
  11  0.446  0.666  0.422-  67 1.93 133 1.94  69 1.94  59 1.98  68 1.99  58 2.01  10 3.02  12 3.06
                            44 3.06   6 3.09
  12  0.227  0.833  0.451-  62 1.90 100 1.94  68 1.94  70 1.97  63 1.98  69 2.01   9 3.01  27 3.06
                            11 3.06  13 3.11
  13  0.087  0.833  0.550-  71 1.93 105 1.93  73 1.94  72 1.98  63 2.01  70 2.01  16 2.96  14 3.05
                            30 3.06  12 3.11
  14  0.866  0.666  0.575-  66 1.87 136 1.94  72 1.95  75 1.96  74 2.01  73 2.01  15 2.98  13 3.05
                            45 3.06
  15  0.585  0.666  0.549- 141 1.93  77 1.94  75 1.94  76 1.98  67 1.98  66 2.01  14 2.98  16 3.06
                            48 3.07  10 3.11
  16  0.365  0.833  0.576-  70 1.87 108 1.94  76 1.95  71 1.96  78 2.00  77 2.02  13 2.96  15 3.06
                            31 3.06
  17  0.232  0.833  0.680-  79 1.87  81 1.93 113 1.94  80 2.00  71 2.09  78 2.09  20 2.86  34 3.08
                            18 3.09
  18  0.002  0.666  0.700-  74 1.78  82 1.84 144 1.97  80 1.99  81 2.06  19 2.87  17 3.09  49 3.11

  19  0.731  0.667  0.678-  82 1.89 148 1.94  84 1.94  83 1.99  75 2.04  74 2.09  18 2.87  20 3.08
                            52 3.09
  20  0.504  0.835  0.700-  78 1.78  79 1.84  83 1.96 115 1.97  84 2.06  17 2.86  35 3.08  19 3.08

  21  0.810  0.167  0.295-  87 1.94  89 1.94 121 1.94  88 2.00  86 2.00  24 3.06  22 3.06  38 3.06

  22  0.594  0.000  0.326-  90 1.94  88 1.94  56 1.94  85 1.94  91 2.00  89 2.00  23 3.06  21 3.06
                             5 3.06  27 3.09
  23  0.310  0.000  0.295-  91 1.94  61 1.94  93 1.94  92 2.00  85 2.00  22 3.06  24 3.06   8 3.06

  24  0.094  0.167  0.326-  94 1.94  92 1.94  86 1.94 124 1.94  87 2.00  93 2.00  21 3.06  23 3.06
                            39 3.06  25 3.09
  25  0.946  0.167  0.422-  95 1.93  97 1.94 129 1.94  87 1.98  96 1.99  94 2.00  28 3.01  26 3.06
                            42 3.06  24 3.09
  26  0.727  1.000  0.451-  90 1.90  64 1.94  96 1.94  98 1.97  99 1.99  97 2.00  27 3.02   9 3.06
                            25 3.06  31 3.12
  27  0.446  1.000  0.422-  99 1.93 101 1.94  69 1.94  91 1.98 100 1.99  90 2.00  26 3.02  12 3.06
                            28 3.06  22 3.09
  28  0.227  0.167  0.451-  94 1.90 100 1.94 132 1.94 102 1.97  95 1.98 101 2.01  25 3.01  27 3.06
                            43 3.06  29 3.11
  29  0.087  0.167  0.550- 103 1.93 105 1.93 137 1.94 104 1.98  95 2.01 102 2.01  32 2.96  46 3.05
                            30 3.06  28 3.11
  30  0.865  0.000  0.576-  98 1.87 104 1.94  72 1.94 107 1.95 106 2.01 105 2.02  31 2.97  13 3.06
                            29 3.06
  31  0.586  0.000  0.550- 107 1.93 109 1.94  77 1.94 108 1.98  99 2.00  98 2.01  30 2.97  32 3.06
                            16 3.06  26 3.12
  32  0.365  0.167  0.576- 102 1.87 108 1.94 140 1.95 103 1.96 110 2.00 109 2.02  29 2.96  47 3.06
                            31 3.06
  33  0.232  0.167  0.680- 111 1.87 145 1.93 113 1.94 112 2.00 103 2.09 110 2.09  36 2.86  34 3.08
                            50 3.09
  34  0.004  1.000  0.700- 106 1.79 114 1.84 112 1.98  80 1.98 113 2.04  35 2.85  33 3.08  17 3.08

  35  0.733  0.000  0.680- 114 1.86 116 1.93  84 1.93 115 2.01 106 2.08 107 2.10  34 2.85  36 3.08
                            20 3.08
  36  0.504  0.165  0.700- 110 1.78 111 1.84 147 1.96 115 1.97 116 2.06  33 2.86  35 3.08  51 3.08

  37  0.810  0.500  0.295- 119 1.94  57 1.94 121 1.94 120 2.00 118 2.00  40 3.06   6 3.06  38 3.06

  38  0.594  0.333  0.326- 122 1.94 120 1.94 117 1.94  88 1.94 123 2.00 121 2.00  39 3.06  37 3.06
                            21 3.06  43 3.09
  39  0.310  0.333  0.295- 123 1.94 125 1.94  93 1.94 124 2.00 117 2.00  38 3.06  40 3.06  24 3.06

  40  0.094  0.500  0.326- 126 1.94 124 1.94  60 1.94 118 1.94 119 2.00 125 2.00  37 3.06   7 3.06
                            39 3.06  41 3.08
  41  0.948  0.500  0.422- 127 1.93 129 1.94  65 1.94 119 1.98 126 1.99 128 2.00  44 3.01  10 3.06
                            42 3.06  40 3.08
  42  0.728  0.334  0.451- 122 1.90 128 1.94  96 1.95 130 1.96 131 1.99 129 2.00  43 3.02  25 3.06
                            41 3.06  47 3.11
  43  0.446  0.334  0.422- 131 1.93 133 1.94 101 1.94 123 1.98 132 1.99 122 2.01  42 3.02  28 3.06
                            44 3.06  38 3.09
  44  0.227  0.500  0.453- 126 1.93  68 1.94 132 1.94 127 1.97 134 1.97 133 2.01  41 3.01  11 3.06
                            43 3.06  45 3.08
  45  0.090  0.500  0.550- 135 1.92 137 1.94  73 1.94 134 1.98 136 2.01 127 2.01  48 2.97  14 3.06
                            46 3.06  44 3.08
  46  0.866  0.334  0.575- 130 1.87 136 1.94 104 1.95 139 1.96 138 2.01 137 2.01  47 2.98  29 3.05
                            45 3.06
  47  0.585  0.334  0.549- 141 1.93 109 1.94 139 1.94 140 1.98 131 1.98 130 2.01  46 2.98  32 3.06
                            48 3.07  42 3.11
  48  0.367  0.500  0.579- 134 1.93 140 1.95  76 1.95 135 1.95 142 1.97 141 2.03  45 2.97  47 3.07
                            15 3.07  49 3.14
  49  0.236  0.500  0.681- 143 1.86 145 1.94  81 1.94 144 2.03 142 2.04 135 2.10  52 2.89  18 3.11
                            50 3.11  48 3.14
  50  0.002  0.334  0.700- 138 1.78 146 1.84 144 1.97 112 1.99 145 2.06  51 2.87  33 3.09  49 3.11

  51  0.731  0.333  0.678- 146 1.89 148 1.94 116 1.94 147 1.99 139 2.04 138 2.09  50 2.87  36 3.08
                            52 3.09
  52  0.507  0.500  0.706- 143 1.84 142 1.88 147 1.99  83 1.99 148 2.06   1 2.28  49 2.89  51 3.09
                            19 3.09
  53  0.490  0.667  0.268-   6 1.94   7 2.00
  54  0.990  0.833  0.268-   8 1.94   5 2.00
  55  0.914  0.833  0.353-   5 1.94   9 1.98   8 2.00
  56  0.630  0.833  0.321-  22 1.94   6 1.94   5 2.00
  57  0.773  0.667  0.300-  37 1.94   5 1.94   6 2.00
  58  0.625  0.667  0.395-  10 1.90   6 1.94  11 2.01
  59  0.414  0.667  0.353-   7 1.94  11 1.98   6 2.00
  60  0.130  0.667  0.321-  40 1.94   8 1.94   7 2.00
  61  0.273  0.833  0.300-  23 1.94   7 1.94   8 2.00
  62  0.125  0.833  0.395-  12 1.90   8 1.94   9 2.00
  63  0.051  0.834  0.480-   9 1.93  12 1.98  13 2.01
  64  0.766  0.833  0.447-  26 1.94  10 1.95   9 1.99
  65  0.910  0.667  0.427-   9 1.94  41 1.94  10 2.00
  66  0.764  0.666  0.520-  14 1.87  10 1.96  15 2.01
  67  0.551  0.666  0.480-  11 1.93  15 1.98  10 1.99
  68  0.266  0.667  0.448-  44 1.94  12 1.94  11 1.99
  69  0.409  0.833  0.427-  27 1.94  11 1.94  12 2.01
  70  0.264  0.833  0.521-  16 1.87  12 1.97  13 2.01
  71  0.194  0.833  0.607-  13 1.93  16 1.96  17 2.09
  72  0.905  0.833  0.573-  30 1.94  14 1.95  13 1.98
  73  0.051  0.667  0.553-  13 1.94  45 1.94  14 2.01
  74  0.913  0.667  0.645-  18 1.78  14 2.01  19 2.09
  75  0.695  0.668  0.606-  15 1.94  14 1.96  19 2.04
  76  0.405  0.667  0.574-  48 1.95  16 1.95  15 1.98
  77  0.550  0.833  0.553-  31 1.94  15 1.94  16 2.02
  78  0.412  0.836  0.646-  20 1.78  16 2.00  17 2.09
  79  0.348  0.833  0.731-  20 1.84  17 1.87
  80  0.053  0.833  0.708-  34 1.98  18 1.99  17 2.00
  81  0.195  0.666  0.681-  17 1.93  49 1.94  18 2.06
  82  0.844  0.664  0.730-  18 1.84  19 1.89
  83  0.554  0.669  0.707-  20 1.96  52 1.99  19 1.99
  84  0.696  0.834  0.679-  35 1.93  19 1.94  20 2.06
  85  0.490  0.000  0.268-  22 1.94  23 2.00
  86  0.990  0.167  0.268-  24 1.94  21 2.00
  87  0.914  0.167  0.353-  21 1.94  25 1.98  24 2.00
  88  0.630  0.167  0.321-  22 1.94  38 1.94  21 2.00
  89  0.773  0.000  0.300-   5 1.94  21 1.94  22 2.00
  90  0.625  0.000  0.395-  26 1.90  22 1.94  27 2.00
  91  0.414  0.000  0.353-  23 1.94  27 1.98  22 2.00
  92  0.130  0.000  0.321-   8 1.94  24 1.94  23 2.00
  93  0.273  0.167  0.300-  23 1.94  39 1.94  24 2.00
  94  0.125  0.167  0.395-  28 1.90  24 1.94  25 2.00
  95  0.051  0.166  0.480-  25 1.93  28 1.98  29 2.01
  96  0.766  0.167  0.447-  26 1.94  42 1.95  25 1.99
  97  0.910  0.000  0.426-   9 1.94  25 1.94  26 2.00
  98  0.764  0.000  0.520-  30 1.87  26 1.97  31 2.01
  99  0.551  0.000  0.479-  27 1.93  26 1.99  31 2.00
 100  0.266  0.000  0.448-  12 1.94  28 1.94  27 1.99
 101  0.409  0.167  0.427-  27 1.94  43 1.94  28 2.01
 102  0.264  0.167  0.521-  32 1.87  28 1.97  29 2.01
 103  0.194  0.167  0.607-  29 1.93  32 1.96  33 2.09
 104  0.905  0.167  0.573-  30 1.94  46 1.95  29 1.98
 105  0.051  1.000  0.553-  13 1.93  29 1.93  30 2.02
 106  0.913  0.000  0.645-  34 1.79  30 2.01  35 2.08
 107  0.694  1.000  0.606-  31 1.93  30 1.95  35 2.10
 108  0.405  0.000  0.573-  32 1.94  16 1.94  31 1.98
 109  0.550  0.167  0.553-  31 1.94  47 1.94  32 2.02
 110  0.412  0.164  0.646-  36 1.78  32 2.00  33 2.09
 111  0.348  0.167  0.731-  36 1.84  33 1.87
 112  0.053  0.167  0.708-  34 1.98  50 1.99  33 2.00
 113  0.195  1.000  0.681-  17 1.94  33 1.94  34 2.04
 114  0.848  1.000  0.731-  34 1.84  35 1.86
 115  0.555  1.000  0.708-  20 1.97  36 1.97  35 2.01
 116  0.696  0.166  0.679-  35 1.93  51 1.94  36 2.06
 117  0.490  0.333  0.268-  38 1.94  39 2.00
 118  0.990  0.500  0.268-  40 1.94  37 2.00
 119  0.914  0.500  0.353-  37 1.94  41 1.98  40 2.00
 120  0.630  0.500  0.321-   6 1.94  38 1.94  37 2.00
 121  0.773  0.333  0.300-  37 1.94  21 1.94  38 2.00
 122  0.625  0.333  0.395-  42 1.90  38 1.94  43 2.01
 123  0.414  0.333  0.353-  39 1.94  43 1.98  38 2.00
 124  0.130  0.333  0.321-  40 1.94  24 1.94  39 2.00
 125  0.273  0.500  0.300-   7 1.94  39 1.94  40 2.00
 126  0.125  0.500  0.395-  44 1.93  40 1.94  41 1.99
 127  0.051  0.500  0.480-  41 1.93  44 1.97  45 2.01
 128  0.766  0.500  0.447-  42 1.94  10 1.94  41 2.00
 129  0.910  0.333  0.427-  25 1.94  41 1.94  42 2.00
 130  0.764  0.334  0.520-  46 1.87  42 1.96  47 2.01
 131  0.551  0.334  0.480-  43 1.93  47 1.98  42 1.99
 132  0.266  0.333  0.448-  44 1.94  28 1.94  43 1.99
 133  0.409  0.500  0.427-  11 1.94  43 1.94  44 2.01
 134  0.265  0.500  0.522-  48 1.93  44 1.97  45 1.98
 135  0.193  0.500  0.607-  45 1.92  48 1.95  49 2.10
 136  0.905  0.500  0.573-  14 1.94  46 1.94  45 2.01
 137  0.051  0.333  0.553-  29 1.94  45 1.94  46 2.01
 138  0.913  0.333  0.645-  50 1.78  46 2.01  51 2.09
 139  0.695  0.332  0.606-  47 1.94  46 1.96  51 2.04
 140  0.405  0.333  0.574-  48 1.95  32 1.95  47 1.98
 141  0.550  0.500  0.554-  15 1.93  47 1.93  48 2.03
 142  0.412  0.500  0.648-  52 1.88  48 1.97  49 2.04
 143  0.346  0.500  0.734-  52 1.84  49 1.86
 144  0.052  0.500  0.708-  18 1.97  50 1.97  49 2.03
 145  0.195  0.334  0.681-  33 1.93  49 1.94  50 2.06
 146  0.844  0.336  0.730-  50 1.84  51 1.89
 147  0.554  0.331  0.707-  36 1.96  52 1.99  51 1.99
 148  0.693  0.500  0.678-  19 1.94  51 1.94  52 2.06
 

IMPORTANT INFORMATION: All symmetrisations will be switched off!
NOSYMM: (Re-)initialisation of all symmetry stuff for point group C_1.


----------------------------------------------------------------------------------------

                                     Primitive cell                                     

  volume of cell :    3284.6826

  direct lattice vectors                    reciprocal lattice vectors
    10.317568932  0.000000000  0.000000000     0.096922057 -0.000000000  0.000000000
     0.000000000 11.392502081  0.000000000     0.000000000  0.087777030  0.000000000
     0.000000000  0.000000000 27.944536660     0.000000000  0.000000000  0.035785170

  length of vectors
    10.317568932 11.392502081 27.944536660     0.096922057  0.087777030  0.035785170

  position of ions in fractional coordinates (direct lattice)
     0.610403981  0.500004269  0.777859938
     0.546775076  0.499999901  0.805949517
     0.669396618  0.427776328  0.780692718
     0.669393784  0.572220074  0.780692490
     0.809724695  0.833333333  0.294673730
     0.593592026  0.666666667  0.326262387
     0.309724695  0.666666667  0.294673730
     0.093592026  0.833333333  0.326262387
     0.946073033  0.833349367  0.422401734
     0.727775274  0.666264773  0.451114060
     0.445592035  0.666426381  0.422285514
     0.227025713  0.833290707  0.451410487
     0.086560524  0.833438676  0.550061468
     0.865964034  0.666099241  0.575377734
     0.585413195  0.666384520  0.549351735
     0.364880070  0.833349907  0.576228574
     0.231878430  0.832712003  0.680206434
     0.001919240  0.665658380  0.699773478
     0.730502378  0.666646568  0.677671797
     0.503832016  0.834673790  0.699611572
     0.809724695  0.166666667  0.294673730
     0.593592026  0.000000000  0.326262387
     0.309724695  0.000000000  0.294673730
     0.093592026  0.166666667  0.326262387
     0.946073035  0.166650638  0.422401732
     0.727443619  1.000000000  0.451171268
     0.445791495  1.000000000  0.422392058
     0.227025702  0.166709295  0.451410487
     0.086560522  0.166561330  0.550061470
     0.864865179  0.000000000  0.575807139
     0.586040236  0.000000008  0.549687639
     0.364880066  0.166650099  0.576228573
     0.231878426  0.167287998  0.680206454
     0.003977901  0.999999999  0.699798569
     0.733409783  0.000000025  0.679617428
     0.503832080  0.165326288  0.699611562
     0.809724695  0.500000000  0.294673730
     0.593592026  0.333333333  0.326262387
     0.309724695  0.333333333  0.294673730
     0.093592026  0.500000000  0.326262387
     0.947562262  0.499999998  0.422228951
     0.727775276  0.333735220  0.451114069
     0.445592043  0.333573610  0.422285516
     0.227333165  0.500000001  0.452503085
     0.089511117  0.499999999  0.550287150
     0.865964037  0.333900753  0.575377754
     0.585413201  0.333615478  0.549351747
     0.366562593  0.499999999  0.579454841
     0.235614191  0.500000005  0.680928112
     0.001919185  0.334341622  0.699773506
     0.730502345  0.333353421  0.677671825
     0.507252598  0.499999975  0.705616635
     0.489568909  0.666666667  0.268388776
     0.989568909  0.833333333  0.268388776
     0.913747813  0.833333333  0.352547340
     0.629880481  0.833333333  0.320958684
     0.773436240  0.666666667  0.299977433
     0.625038233  0.666666667  0.394743404
     0.413747813  0.666666667  0.352547340
     0.129880481  0.666666667  0.320958684
     0.273436240  0.833333333  0.299977433
     0.125038233  0.833333333  0.394743404
     0.050843918  0.833628812  0.479533502
     0.765724387  0.833271558  0.447206350
     0.909950348  0.666595266  0.426599757
     0.763777387  0.666335505  0.520153242
     0.550538771  0.666138450  0.479528066
     0.265531739  0.666559218  0.447532504
     0.409344080  0.833252909  0.426545424
     0.263915147  0.832721775  0.520650246
     0.193793807  0.832921750  0.606646413
     0.904986996  0.833384055  0.572792234
     0.051067078  0.666545577  0.553069354
     0.913044844  0.667101953  0.645009038
     0.694865024  0.667657476  0.605774150
     0.405464641  0.666585727  0.574200578
     0.549757091  0.833238095  0.552957633
     0.411750013  0.835784780  0.645584256
     0.348081984  0.832853603  0.731328758
     0.052930890  0.832828935  0.707799512
     0.194992313  0.666376836  0.681139521
     0.844199333  0.663882996  0.730495895
     0.553934917  0.669179416  0.706669040
     0.695568644  0.833970136  0.679337629
     0.489568909  0.000000000  0.268388776
     0.989568909  0.166666667  0.268388776
     0.913747813  0.166666667  0.352547340
     0.629880481  0.166666667  0.320958684
     0.773436240  0.000000000  0.299977433
     0.625038233  0.000000000  0.394743404
     0.413747813  0.000000000  0.352547340
     0.129880481  0.000000000  0.320958684
     0.273436240  0.166666667  0.299977433
     0.125038233  0.166666667  0.394743404
     0.050843915  0.166371190  0.479533503
     0.765724388  0.166728446  0.447206348
     0.909648419  0.000000001  0.426463809
     0.763839281  0.000000009  0.520288328
     0.550781763  0.000000004  0.479427220
     0.265641701  0.000000002  0.447566621
     0.409344079  0.166747090  0.426545424
     0.263915149  0.167278227  0.520650245
     0.193793796  0.167078251  0.606646414
     0.904987000  0.166615939  0.572792241
     0.051085765  0.999999999  0.553301747
     0.912943728  0.000000006  0.645422848
     0.694338593  0.999999990  0.606038781
     0.404537959  0.000000005  0.572946595
     0.549757102  0.166761909  0.552957639
     0.411749986  0.164215202  0.645584243
     0.348081999  0.167146384  0.731328763
     0.052930903  0.167171054  0.707799526
     0.194896739  0.999999990  0.680876563
     0.847694869  0.999999989  0.731174005
     0.555299217  0.999999983  0.708422463
     0.695568638  0.166029855  0.679337634
     0.489568909  0.333333333  0.268388776
     0.989568909  0.500000000  0.268388776
     0.913747813  0.500000000  0.352547340
     0.629880481  0.500000000  0.320958684
     0.773436240  0.333333333  0.299977433
     0.625038233  0.333333333  0.394743404
     0.413747813  0.333333333  0.352547340
     0.129880481  0.333333333  0.320958684
     0.273436240  0.500000000  0.299977433
     0.125038233  0.500000000  0.394743404
     0.051406685  0.499999998  0.479687308
     0.765799732  0.499999996  0.447055088
     0.909950347  0.333404736  0.426599758
     0.763777389  0.333664490  0.520153250
     0.550538773  0.333861548  0.479528071
     0.265531737  0.333440779  0.447532504
     0.409368739  0.500000001  0.426576013
     0.265031703  0.499999997  0.521629013
     0.193331541  0.500000006  0.607332783
     0.905145346  0.500000000  0.572973462
     0.051067078  0.333454423  0.553069358
     0.913044851  0.332898045  0.645009050
     0.694865025  0.332342541  0.605774149
     0.405464646  0.333414281  0.574200579
     0.550482359  0.500000003  0.553869486
     0.411789722  0.500000016  0.648104501
     0.345783849  0.500000010  0.733538762
     0.052499480  0.500000017  0.707925927
     0.194992324  0.333623179  0.681139531
     0.844199314  0.336117034  0.730495897
     0.553934902  0.330820583  0.706669040
     0.693043227  0.500000018  0.678202914

  ion indices of the primitive-cell ions
   primitive index   ion index
                 1           1
                 2           2
                 3           3
                 4           4
                 5           5
                 6           6
                 7           7
                 8           8
                 9           9
                10          10
                11          11
                12          12
                13          13
                14          14
                15          15
                16          16
                17          17
                18          18
                19          19
                20          20
                21          21
                22          22
                23          23
                24          24
                25          25
                26          26
                27          27
                28          28
                29          29
                30          30
                31          31
                32          32
                33          33
                34          34
                35          35
                36          36
                37          37
                38          38
                39          39
                40          40
                41          41
                42          42
                43          43
                44          44
                45          45
                46          46
                47          47
                48          48
                49          49
                50          50
                51          51
                52          52
                53          53
                54          54
                55          55
                56          56
                57          57
                58          58
                59          59
                60          60
                61          61
                62          62
                63          63
                64          64
                65          65
                66          66
                67          67
                68          68
                69          69
                70          70
                71          71
                72          72
                73          73
                74          74
                75          75
                76          76
                77          77
                78          78
                79          79
                80          80
                81          81
                82          82
                83          83
                84          84
                85          85
                86          86
                87          87
                88          88
                89          89
                90          90
                91          91
                92          92
                93          93
                94          94
                95          95
                96          96
                97          97
                98          98
                99          99
               100         100
               101         101
               102         102
               103         103
               104         104
               105         105
               106         106
               107         107
               108         108
               109         109
               110         110
               111         111
               112         112
               113         113
               114         114
               115         115
               116         116
               117         117
               118         118
               119         119
               120         120
               121         121
               122         122
               123         123
               124         124
               125         125
               126         126
               127         127
               128         128
               129         129
               130         130
               131         131
               132         132
               133         133
               134         134
               135         135
               136         136
               137         137
               138         138
               139         139
               140         140
               141         141
               142         142
               143         143
               144         144
               145         145
               146         146
               147         147
               148         148

----------------------------------------------------------------------------------------

 
 
 KPOINTS: pymatgen v2020.8.13 with grid density = 

Automatic generation of k-mesh.
 Grid dimensions read from file:
 generate k-points for:    3    3    1

 Generating k-lattice:

  Cartesian coordinates                     Fractional coordinates (reciprocal lattice)
     0.032307352 -0.000000000  0.000000000     0.333333333  0.000000000  0.000000000
     0.000000000  0.029259010  0.000000000     0.000000000  0.333333333  0.000000000
     0.000000000  0.000000000  0.035785170     0.000000000  0.000000000  1.000000000

  Length of vectors
     0.032307352  0.029259010  0.035785170

  Shift w.r.t. Gamma in fractional coordinates (k-lattice)
     0.000000000  0.000000000  0.000000000

 
 Subroutine IBZKPT returns following result:
 ===========================================
 
 Found      5 irreducible k-points:
 
 Following reciprocal coordinates:
            Coordinates               Weight
  0.000000  0.000000  0.000000      1.000000
  0.333333  0.000000  0.000000      2.000000
  0.000000  0.333333  0.000000      2.000000
  0.333333  0.333333  0.000000      2.000000
  0.333333 -0.333333  0.000000      2.000000
 
 Following cartesian coordinates:
            Coordinates               Weight
  0.000000  0.000000  0.000000      1.000000
  0.032307 -0.000000  0.000000      2.000000
  0.000000  0.029259  0.000000      2.000000
  0.032307  0.029259  0.000000      2.000000
  0.032307 -0.029259  0.000000      2.000000
 


--------------------------------------------------------------------------------------------------------




 Dimension of arrays:
   k-points           NKPTS =      5   k-points in BZ     NKDIM =      5   number of bands    NBANDS=    760
   number of dos      NEDOS =    301   number of ions     NIONS =    148
   non local maximal  LDIM  =      6   non local SUM 2l+1 LMDIM =     18
   total plane-waves  NPLWV = ******
   max r-space proj   IRMAX =      1   max aug-charges    IRDMAX=  21548
   dimension x,y,z NGX =    84 NGY =   96 NGZ =  224
   dimension x,y,z NGXF=   168 NGYF=  192 NGZF=  448
   support grid    NGXF=   168 NGYF=  192 NGZF=  448
   ions per type =               1   3  48  96
   NGX,Y,Z   is equivalent  to a cutoff of  13.53, 14.01, 13.33 a.u.
   NGXF,Y,Z  is equivalent  to a cutoff of  27.07, 28.02, 26.65 a.u.

 SYSTEM =  TiO2                                    
 POSCAR =   N  H Ti  O                             

--------------------------------------------------------------------------------------------------------


  energy-cutoff  :      600.00
  volume of cell :     3284.68
      direct lattice vectors                 reciprocal lattice vectors
    10.317568932  0.000000000  0.000000000     0.096922057 -0.000000000  0.000000000
     0.000000000 11.392502081  0.000000000     0.000000000  0.087777030  0.000000000
     0.000000000  0.000000000 27.944536660     0.000000000  0.000000000  0.035785170

  length of vectors
    10.317568932 11.392502081 27.944536660     0.096922057  0.087777030  0.035785170


 
 k-points in units of 2pi/SCALE and weight: pymatgen v2020.8.13 with grid density = 
   0.00000000  0.00000000  0.00000000       0.111
   0.03230735 -0.00000000  0.00000000       0.222
   0.00000000  0.02925901  0.00000000       0.222
   0.03230735  0.02925901  0.00000000       0.222
   0.03230735 -0.02925901  0.00000000       0.222
 
 k-points in reciprocal lattice and weights: pymatgen v2020.8.13 with grid density = 
   0.00000000  0.00000000  0.00000000       0.111
   0.33333333  0.00000000  0.00000000       0.222
   0.00000000  0.33333333  0.00000000       0.222
   0.33333333  0.33333333  0.00000000       0.222
   0.33333333 -0.33333333  0.00000000       0.222
 
 position of ions in fractional coordinates (direct lattice) 
   0.61040398  0.50000427  0.77785994
   0.54677508  0.49999990  0.80594952
   0.66939662  0.42777633  0.78069272
   0.66939378  0.57222007  0.78069249
   0.80972470  0.83333333  0.29467373
   0.59359203  0.66666667  0.32626239
   0.30972470  0.66666667  0.29467373
   0.09359203  0.83333333  0.32626239
   0.94607303  0.83334937  0.42240173
   0.72777527  0.66626477  0.45111406
   0.44559203  0.66642638  0.42228551
   0.22702571  0.83329071  0.45141049
   0.08656052  0.83343868  0.55006147
   0.86596403  0.66609924  0.57537773
   0.58541319  0.66638452  0.54935174
   0.36488007  0.83334991  0.57622857
   0.23187843  0.83271200  0.68020643
   0.00191924  0.66565838  0.69977348
   0.73050238  0.66664657  0.67767180
   0.50383202  0.83467379  0.69961157
   0.80972470  0.16666667  0.29467373
   0.59359203  0.00000000  0.32626239
   0.30972470  0.00000000  0.29467373
   0.09359203  0.16666667  0.32626239
   0.94607303  0.16665064  0.42240173
   0.72744362  1.00000000  0.45117127
   0.44579149  1.00000000  0.42239206
   0.22702570  0.16670929  0.45141049
   0.08656052  0.16656133  0.55006147
   0.86486518  0.00000000  0.57580714
   0.58604024  0.00000001  0.54968764
   0.36488007  0.16665010  0.57622857
   0.23187843  0.16728800  0.68020645
   0.00397790  1.00000000  0.69979857
   0.73340978  0.00000003  0.67961743
   0.50383208  0.16532629  0.69961156
   0.80972470  0.50000000  0.29467373
   0.59359203  0.33333333  0.32626239
   0.30972470  0.33333333  0.29467373
   0.09359203  0.50000000  0.32626239
   0.94756226  0.50000000  0.42222895
   0.72777528  0.33373522  0.45111407
   0.44559204  0.33357361  0.42228552
   0.22733316  0.50000000  0.45250309
   0.08951112  0.50000000  0.55028715
   0.86596404  0.33390075  0.57537775
   0.58541320  0.33361548  0.54935175
   0.36656259  0.50000000  0.57945484
   0.23561419  0.50000001  0.68092811
   0.00191919  0.33434162  0.69977351
   0.73050234  0.33335342  0.67767182
   0.50725260  0.49999998  0.70561663
   0.48956891  0.66666667  0.26838878
   0.98956891  0.83333333  0.26838878
   0.91374781  0.83333333  0.35254734
   0.62988048  0.83333333  0.32095868
   0.77343624  0.66666667  0.29997743
   0.62503823  0.66666667  0.39474340
   0.41374781  0.66666667  0.35254734
   0.12988048  0.66666667  0.32095868
   0.27343624  0.83333333  0.29997743
   0.12503823  0.83333333  0.39474340
   0.05084392  0.83362881  0.47953350
   0.76572439  0.83327156  0.44720635
   0.90995035  0.66659527  0.42659976
   0.76377739  0.66633550  0.52015324
   0.55053877  0.66613845  0.47952807
   0.26553174  0.66655922  0.44753250
   0.40934408  0.83325291  0.42654542
   0.26391515  0.83272177  0.52065025
   0.19379381  0.83292175  0.60664641
   0.90498700  0.83338405  0.57279223
   0.05106708  0.66654558  0.55306935
   0.91304484  0.66710195  0.64500904
   0.69486502  0.66765748  0.60577415
   0.40546464  0.66658573  0.57420058
   0.54975709  0.83323809  0.55295763
   0.41175001  0.83578478  0.64558426
   0.34808198  0.83285360  0.73132876
   0.05293089  0.83282893  0.70779951
   0.19499231  0.66637684  0.68113952
   0.84419933  0.66388300  0.73049590
   0.55393492  0.66917942  0.70666904
   0.69556864  0.83397014  0.67933763
   0.48956891  0.00000000  0.26838878
   0.98956891  0.16666667  0.26838878
   0.91374781  0.16666667  0.35254734
   0.62988048  0.16666667  0.32095868
   0.77343624  0.00000000  0.29997743
   0.62503823  0.00000000  0.39474340
   0.41374781  0.00000000  0.35254734
   0.12988048  0.00000000  0.32095868
   0.27343624  0.16666667  0.29997743
   0.12503823  0.16666667  0.39474340
   0.05084392  0.16637119  0.47953350
   0.76572439  0.16672845  0.44720635
   0.90964842  0.00000000  0.42646381
   0.76383928  0.00000001  0.52028833
   0.55078176  0.00000000  0.47942722
   0.26564170  0.00000000  0.44756662
   0.40934408  0.16674709  0.42654542
   0.26391515  0.16727823  0.52065024
   0.19379380  0.16707825  0.60664641
   0.90498700  0.16661594  0.57279224
   0.05108577  1.00000000  0.55330175
   0.91294373  0.00000001  0.64542285
   0.69433859  0.99999999  0.60603878
   0.40453796  0.00000000  0.57294660
   0.54975710  0.16676191  0.55295764
   0.41174999  0.16421520  0.64558424
   0.34808200  0.16714638  0.73132876
   0.05293090  0.16717105  0.70779953
   0.19489674  0.99999999  0.68087656
   0.84769487  0.99999999  0.73117400
   0.55529922  0.99999998  0.70842246
   0.69556864  0.16602985  0.67933763
   0.48956891  0.33333333  0.26838878
   0.98956891  0.50000000  0.26838878
   0.91374781  0.50000000  0.35254734
   0.62988048  0.50000000  0.32095868
   0.77343624  0.33333333  0.29997743
   0.62503823  0.33333333  0.39474340
   0.41374781  0.33333333  0.35254734
   0.12988048  0.33333333  0.32095868
   0.27343624  0.50000000  0.29997743
   0.12503823  0.50000000  0.39474340
   0.05140669  0.50000000  0.47968731
   0.76579973  0.50000000  0.44705509
   0.90995035  0.33340474  0.42659976
   0.76377739  0.33366449  0.52015325
   0.55053877  0.33386155  0.47952807
   0.26553174  0.33344078  0.44753250
   0.40936874  0.50000000  0.42657601
   0.26503170  0.50000000  0.52162901
   0.19333154  0.50000001  0.60733278
   0.90514535  0.50000000  0.57297346
   0.05106708  0.33345442  0.55306936
   0.91304485  0.33289804  0.64500905
   0.69486502  0.33234254  0.60577415
   0.40546465  0.33341428  0.57420058
   0.55048236  0.50000000  0.55386949
   0.41178972  0.50000002  0.64810450
   0.34578385  0.50000001  0.73353876
   0.05249948  0.50000002  0.70792593
   0.19499232  0.33362318  0.68113953
   0.84419931  0.33611703  0.73049590
   0.55393490  0.33082058  0.70666904
   0.69304323  0.50000002  0.67820291
 
 position of ions in cartesian coordinates  (Angst):
   6.29788515  5.69629968 21.73693554
   5.64138953  5.69624991 22.52188582
   6.90654574  4.87344271 21.81609628
   6.90651651  6.51901838 21.81608990
   8.35439036  9.49375173  8.23452085
   6.12442665  7.59500139  9.11725123
   3.19560589  7.59500139  8.23452085
   0.96564218  9.49375173  9.11725123
   9.76117374  9.49393440 11.80382075
   7.50887156  7.59042282 12.60617339
   4.59742654  7.59226393 11.80057302
   2.34235344  9.49326611 12.61445689
   0.89309418  9.49495185 15.37121285
   8.93464361  7.58853699 16.07866418
   6.04004099  7.59178703 15.35137971
   3.76467527  9.49394055 16.10244052
   2.39242169  9.48667323 19.00805362
   0.01980189  7.58351448 19.55484560
   7.53700864  7.59477241 18.93722438
   5.19832155  9.50902289 19.55032122
   8.35439036  1.89875035  8.23452085
   6.12442665  0.00000000  9.11725123
   3.19560589  0.00000000  8.23452085
   0.96564218  1.89875035  9.11725123
   9.76117375  1.89856774 11.80382070
   7.50544968 11.39250208 12.60777205
   4.59948447 11.39250208 11.80355035
   2.34235333  1.89923599 12.61445689
   0.89309415  1.89755029 15.37121291
   8.92330610  0.00000000 16.09066372
   6.04651053  0.00000009 15.36076637
   3.76467523  1.89856160 16.10244048
   2.39242165  1.90582887 19.00805418
   0.04104227 11.39250207 19.55554677
   7.56700599  0.00000029 18.99159413
   5.19832221  1.88348008 19.55032094
   8.35439036  5.69625104  8.23452085
   6.12442665  3.79750069  9.11725123
   3.19560589  3.79750069  8.23452085
   0.96564218  5.69625104  9.11725123
   9.77653896  5.69625102 11.79899240
   7.50887158  3.80207919 12.60617365
   4.59742662  3.80023805 11.80057310
   2.34552560  5.69625105 12.64498906
   0.92353712  5.69625103 15.37751944
   8.93464364  3.80396502 16.07866474
   6.04004105  3.80071503 15.35138004
   3.78203482  5.69625103 16.19259705
   2.43096565  5.69625110 19.02822058
   0.01980133  3.80898762 19.55484639
   7.53700830  3.79772954 18.93722515
   5.23361364  5.69625076 19.71812992
   5.05116096  7.59500139  7.50000000
  10.20994543  9.49375173  7.50000000
   9.42765604  9.49375173  9.85177208
   6.49883529  9.49375173  8.96904170
   7.97998172  7.59500139  8.38273038
   6.44887506  7.59500139 11.03092153
   4.26887158  7.59500139  9.85177208
   1.34005082  7.59500139  8.96904170
   2.82119725  9.49375173  8.38273038
   1.29009059  9.49375173 11.03092153
   0.52458563  9.49711798 13.40034153
   7.90041415  9.49304796 12.49697423
   9.38847544  7.59418796 11.92113256
   7.88032584  7.59122863 14.53544135
   5.68022172  7.58898368 13.40018961
   2.73964202  7.59377728 12.50608847
   4.22343576  9.49283550 11.91961423
   2.72296272  9.48678455 14.54932989
   1.99948096  9.48906276 16.95245294
   9.33726571  9.49432958 16.00641359
   0.52688810  7.59362187 15.45526683
   9.42040312  7.59996039 18.02447871
   7.16931779  7.60628919 16.92807793
   4.18340938  7.59407929 16.04576911
   5.67215669  9.49266673 15.45214485
   4.24825914  9.52167985 18.04055290
   3.59135986  9.48828640 20.43664330
   0.54611811  9.48800537 19.77912940
   2.01184663  7.59169949 19.03412830
   8.71008481  7.56328842 20.41336932
   5.71526169  7.62362789 19.74753890
   7.17657743  9.50100651 18.98377529
   5.05116096  0.00000000  7.50000000
  10.20994543  1.89875035  7.50000000
   9.42765604  1.89875035  9.85177208
   6.49883529  1.89875035  8.96904170
   7.97998172  0.00000000  8.38273038
   6.44887506  0.00000000 11.03092153
   4.26887158  0.00000000  9.85177208
   1.34005082  0.00000000  8.96904170
   2.82119725  1.89875035  8.38273038
   1.29009059  1.89875035 11.03092153
   0.52458560  1.89538412 13.40034155
   7.90041416  1.89945417 12.49697418
   9.38536027  0.00000001 11.91733355
   7.88096444  0.00000010 14.53921624
   5.68272881  0.00000005 13.39737154
   2.74077656  0.00000002 12.50704186
   4.22343575  1.89966657 11.91961422
   2.72296274  1.90571755 14.54932985
   1.99948084  1.90343932 16.95245295
   9.33726575  1.89817244 16.00641376
   0.52708090 11.39250207 15.46176096
   9.41935984  0.00000006 18.03604243
   7.16388629 11.39250197 16.93547293
   4.17384827  0.00000005 16.01072713
   5.67215680  1.89983540 15.45214502
   4.24825887  1.87082203 18.04055255
   3.59136002  1.90421553 20.43664343
   0.54611824  1.90449659 19.77912981
   2.01086053 11.39250197 19.02678009
   8.74615024 11.39250196 20.43231878
   5.72933795 11.39250189 19.79653748
   7.17657737  1.89149547 18.98377543
   5.05116096  3.79750069  7.50000000
  10.20994543  5.69625104  7.50000000
   9.42765604  5.69625104  9.85177208
   6.49883529  5.69625104  8.96904170
   7.97998172  3.79750069  8.38273038
   6.44887506  3.79750069 11.03092153
   4.26887158  3.79750069  9.85177208
   1.34005082  3.79750069  8.96904170
   2.82119725  5.69625104  8.38273038
   1.29009059  5.69625104 11.03092153
   0.53039202  5.69625102 13.40463958
   7.90119152  5.69625099 12.49274730
   9.38847543  3.79831415 11.92113258
   7.88032586  3.80127339 14.53544156
   5.68022174  3.80351838 13.40018977
   2.73964200  3.79872476 12.50608846
   4.22369018  5.69625105 11.92046904
   2.73448287  5.69625101 14.57668107
   1.99471150  5.69625110 16.97163323
   9.33889950  5.69625105 16.01147790
   0.52688810  3.79888021 15.45526695
   9.42040319  3.79254167 18.02447904
   7.16931779  3.78621309 16.92807792
   4.18340944  3.79842289 16.04576914
   5.67963969  5.69625108 15.47762616
   4.24866884  5.69625123 18.11097999
   3.56764870  5.69625116 20.49840083
   0.54166700  5.69625123 19.78266201
   2.01184675  3.80080276 19.03412859
   8.71008462  3.82921401 20.41336937
   5.71526154  3.76887418 19.74753890
   7.15052127  5.69625124 18.95206621
 


--------------------------------------------------------------------------------------------------------

--------------------------------------- Iteration      FINAL  ---------------------------------------


--------------------OUTCAR has been truncated-------------------------


--------------------OUTCAR has been truncated-------------------------


--------------------OUTCAR has been truncated-------------------------


--------------------OUTCAR has been truncated-------------------------


--------------------OUTCAR has been truncated-------------------------


--------------------OUTCAR has been truncated-------------------------


--------------------OUTCAR has been truncated-------------------------


--------------------OUTCAR has been truncated-------------------------


--------------------OUTCAR has been truncated-------------------------


--------------------OUTCAR has been truncated-------------------------


  FORCE on cell =-STRESS in cart. coord.  units (eV):
  Direction    XX          YY          ZZ          XY          YZ          ZX
  --------------------------------------------------------------------------------------
  Alpha Z  2425.12766  2425.12766  2425.12766
  Ewald  483758.24330476989.35908************     0.01054    -0.00100 -1889.96852
  Hartree504934.22002500826.21464************     0.00224    -0.00035 -1255.45228
  E(xc)   -5188.69177 -5189.42520 -5188.16132     0.00002    -0.00001    -0.41895
  Local  ************************997638.24171    -0.00959     0.00105  3144.66648
  n-local -3321.53093 -3291.70016 -3332.84744    -0.00036    -0.00001     1.88498
  augment  3150.21312  3146.82090  3140.10151    -0.00003     0.00003    -0.49857
  Kinetic 17124.04566 17180.81640 17241.23635    -0.00048     0.00064    -9.24552
  Fock        0.00000     0.00000     0.00000     0.00000     0.00000     0.00000
  -------------------------------------------------------------------------------------
  Total     -46.73641   -18.33499   -14.27938     0.00234     0.00034    -9.03238
  in kB     -22.79673    -8.94330    -6.96509     0.00114     0.00017    -4.40574
  external pressure =      -12.90 kB  Pullay stress =        0.00 kB


 VOLUME and BASIS-vectors are now :
 -----------------------------------------------------------------------------
  energy-cutoff  :      600.00
  volume of cell :     3284.68
      direct lattice vectors                 reciprocal lattice vectors
    10.317568932  0.000000000  0.000000000     0.096922057 -0.000000000  0.000000000
     0.000000000 11.392502081  0.000000000     0.000000000  0.087777030  0.000000000
     0.000000000  0.000000000 27.944536660     0.000000000  0.000000000  0.035785170

  length of vectors
    10.317568932 11.392502081 27.944536660     0.096922057  0.087777030  0.035785170


 FORCES acting on ions:
    Electron-Ion                     Ewald-Force                    Non-Local-Force
 -----------------------------------------------------------------------------------------------
   -.167E+02 0.432E-02 -.175E+04   0.737E+01 -.769E-02 0.173E+04   0.934E+01 -.108E-02 0.179E+02
   0.430E+02 0.321E-02 -.370E+03   -.478E+02 -.339E-02 0.375E+03   0.480E+01 0.421E-03 -.549E+01
   -.419E+02 0.546E+02 -.353E+03   0.462E+02 -.604E+02 0.354E+03   -.432E+01 0.585E+01 -.393E+00
   -.419E+02 -.546E+02 -.353E+03   0.462E+02 0.604E+02 0.354E+03   -.433E+01 -.585E+01 -.393E+00
   0.564E+01 0.658E-02 0.335E+04   -.850E+00 -.677E-02 -.334E+04   -.101E+01 -.449E-04 -.314E+01
   0.478E+01 -.974E-01 0.275E+04   -.629E+01 0.983E-01 -.275E+04   -.121E+00 -.853E-03 -.999E-01
   0.562E+01 0.156E+00 0.335E+04   -.855E+00 -.162E+00 -.334E+04   -.101E+01 0.154E-02 -.314E+01
   0.358E+01 0.109E+00 0.275E+04   -.511E+01 -.117E+00 -.275E+04   -.114E+00 0.149E-02 -.104E+00
   -.448E+00 0.218E+00 0.126E+04   0.285E+00 -.216E+00 -.126E+04   0.162E+00 -.828E-03 0.188E-01
   0.918E+00 -.148E+01 0.797E+03   -.858E+00 0.146E+01 -.796E+03   -.424E-01 0.176E-01 -.147E+00
   0.104E+01 -.200E+00 0.126E+04   -.120E+01 0.194E+00 -.126E+04   0.157E+00 0.736E-02 0.174E-02
   -.431E+01 0.171E+00 0.790E+03   0.436E+01 -.175E+00 -.790E+03   -.264E-01 0.219E-02 -.153E+00
   -.588E+01 -.234E+01 -.775E+03   0.560E+01 0.233E+01 0.775E+03   0.287E+00 0.105E-01 0.133E+00
   -.879E+01 -.449E+01 -.116E+04   0.894E+01 0.449E+01 0.116E+04   -.101E+00 -.327E-02 -.247E+00
   0.564E+00 -.198E+01 -.751E+03   -.808E+00 0.198E+01 0.751E+03   0.254E+00 0.514E-02 0.101E+00
   0.416E+00 -.106E+01 -.118E+04   -.260E+00 0.107E+01 0.118E+04   -.109E+00 -.134E-01 -.301E+00
   0.278E+02 -.108E+02 -.277E+04   -.288E+02 0.108E+02 0.277E+04   0.963E+00 0.580E-02 -.395E-01
   -.847E+02 -.207E+02 -.315E+04   0.851E+02 0.206E+02 0.315E+04   -.124E+00 0.132E+00 0.654E+00
   -.100E+02 -.391E+02 -.269E+04   0.915E+01 0.391E+02 0.269E+04   0.880E+00 -.237E-01 0.768E-01
   -.597E+02 -.335E+02 -.314E+04   0.600E+02 0.334E+02 0.314E+04   -.797E-01 0.385E-01 0.669E+00
   0.564E+01 -.657E-02 0.335E+04   -.850E+00 0.678E-02 -.334E+04   -.101E+01 0.423E-04 -.314E+01
   0.480E+01 0.771E-05 0.275E+04   -.632E+01 0.477E-05 -.275E+04   -.116E+00 -.111E-05 -.105E+00
   0.551E+01 -.271E-04 0.335E+04   -.729E+00 0.293E-05 -.334E+04   -.101E+01 0.303E-05 -.314E+01
   0.358E+01 -.109E+00 0.275E+04   -.511E+01 0.117E+00 -.275E+04   -.114E+00 -.149E-02 -.104E+00
   -.448E+00 -.218E+00 0.126E+04   0.285E+00 0.217E+00 -.126E+04   0.162E+00 0.827E-03 0.188E-01
   -.983E+00 -.475E-05 0.794E+03   0.101E+01 0.176E-04 -.794E+03   -.125E-01 -.225E-05 -.154E+00
   0.109E+01 -.113E-05 0.126E+04   -.124E+01 0.926E-05 -.126E+04   0.153E+00 -.235E-05 0.527E-02
   -.431E+01 -.171E+00 0.790E+03   0.436E+01 0.175E+00 -.790E+03   -.264E-01 -.220E-02 -.153E+00
   -.588E+01 0.234E+01 -.775E+03   0.560E+01 -.233E+01 0.775E+03   0.287E+00 -.105E-01 0.133E+00
   -.797E+01 -.457E-04 -.118E+04   0.811E+01 0.459E-04 0.118E+04   -.844E-01 -.671E-06 -.262E+00
   -.346E+01 -.272E-04 -.766E+03   0.316E+01 0.304E-04 0.766E+03   0.294E+00 0.804E-06 0.166E+00
   0.416E+00 0.106E+01 -.118E+04   -.260E+00 -.107E+01 0.118E+04   -.109E+00 0.134E-01 -.301E+00
   0.278E+02 0.108E+02 -.277E+04   -.288E+02 -.108E+02 0.277E+04   0.963E+00 -.580E-02 -.395E-01
   -.740E+02 -.214E-03 -.317E+04   0.743E+02 0.181E-03 0.316E+04   -.152E+00 0.345E-05 0.664E+00
   0.116E+02 -.225E-03 -.276E+04   -.126E+02 0.192E-03 0.276E+04   0.911E+00 0.639E-05 0.505E-02
   -.597E+02 0.335E+02 -.314E+04   0.600E+02 -.334E+02 0.314E+04   -.797E-01 -.384E-01 0.669E+00
   0.565E+01 -.607E-05 0.335E+04   -.841E+00 -.407E-05 -.334E+04   -.102E+01 0.852E-05 -.314E+01
   0.478E+01 0.974E-01 0.275E+04   -.629E+01 -.983E-01 -.275E+04   -.121E+00 0.856E-03 -.999E-01
   0.562E+01 -.156E+00 0.335E+04   -.855E+00 0.162E+00 -.334E+04   -.101E+01 -.154E-02 -.314E+01
   0.270E+01 0.750E-05 0.275E+04   -.419E+01 -.274E-05 -.275E+04   -.131E+00 -.155E-05 -.103E+00
   0.188E+01 -.461E-05 0.126E+04   -.204E+01 -.907E-06 -.126E+04   0.148E+00 0.172E-05 0.424E-01
   0.918E+00 0.148E+01 0.797E+03   -.858E+00 -.146E+01 -.796E+03   -.424E-01 -.176E-01 -.147E+00
   0.104E+01 0.200E+00 0.126E+04   -.120E+01 -.194E+00 -.126E+04   0.157E+00 -.736E-02 0.174E-02
   -.766E+01 0.275E-04 0.773E+03   0.773E+01 -.292E-04 -.772E+03   -.373E-01 0.358E-06 -.645E-01
   -.188E+01 0.666E-04 -.777E+03   0.164E+01 -.790E-04 0.776E+03   0.222E+00 -.581E-06 0.141E+00
   -.879E+01 0.449E+01 -.116E+04   0.894E+01 -.449E+01 0.116E+04   -.101E+00 0.327E-02 -.247E+00
   0.564E+00 0.198E+01 -.751E+03   -.808E+00 -.198E+01 0.751E+03   0.254E+00 -.514E-02 0.101E+00
   -.605E-01 0.919E-04 -.122E+04   0.196E+00 -.100E-03 0.122E+04   -.984E-01 -.782E-06 -.201E+00
   0.471E+02 0.343E-03 -.277E+04   -.479E+02 -.334E-03 0.277E+04   0.699E+00 -.173E-05 0.655E-01
   -.847E+02 0.207E+02 -.315E+04   0.851E+02 -.206E+02 0.315E+04   -.124E+00 -.132E+00 0.654E+00
   -.100E+02 0.391E+02 -.269E+04   0.915E+01 -.391E+02 0.269E+04   0.880E+00 0.236E-01 0.768E-01
   0.143E+02 0.279E-02 -.310E+04   -.136E+02 -.267E-02 0.310E+04   -.585E+00 -.565E-04 -.418E+00
   -.327E+02 -.152E-01 0.226E+04   0.374E+02 0.149E-01 -.228E+04   -.649E+01 0.448E-03 0.170E+02
   -.330E+02 -.118E-01 0.226E+04   0.377E+02 0.986E-02 -.228E+04   -.649E+01 0.258E-02 0.170E+02
   0.816E+02 0.138E+00 0.137E+04   -.862E+02 -.136E+00 -.137E+04   0.365E+01 -.520E-02 -.432E+01
   0.749E+02 0.126E-01 0.167E+04   -.816E+02 -.116E-01 -.167E+04   0.713E+01 -.174E-02 -.256E+01
   -.863E+02 -.287E-01 0.193E+04   0.933E+02 0.267E-01 -.193E+04   -.675E+01 0.378E-02 -.119E+00
   -.696E+02 -.746E+00 0.105E+04   0.751E+02 0.796E+00 -.105E+04   -.555E+01 -.468E-01 0.413E+01
   0.822E+02 0.101E+00 0.137E+04   -.868E+02 -.818E-01 -.137E+04   0.363E+01 -.204E-01 -.420E+01
   0.740E+02 0.128E+00 0.167E+04   -.808E+02 -.136E+00 -.167E+04   0.715E+01 0.218E-01 -.258E+01
   -.864E+02 0.440E-01 0.193E+04   0.934E+02 -.440E-01 -.193E+04   -.673E+01 -.176E-02 -.121E+00
   -.727E+02 0.148E+00 0.105E+04   0.784E+02 -.146E+00 -.106E+04   -.564E+01 -.469E-02 0.421E+01
   0.781E+02 -.107E+01 0.160E+03   -.843E+02 0.114E+01 -.155E+03   0.622E+01 -.698E-01 -.477E+01
   0.804E+02 0.387E+00 0.482E+03   -.869E+02 -.460E+00 -.479E+03   0.646E+01 0.729E-01 -.294E+01
   -.801E+02 0.313E+00 0.744E+03   0.864E+02 -.327E+00 -.746E+03   -.633E+01 0.121E-01 0.259E+01
   -.649E+02 -.111E+01 -.124E+03   0.696E+02 0.113E+01 0.119E+03   -.469E+01 -.176E-01 0.506E+01
   0.796E+02 0.988E+00 0.165E+03   -.856E+02 -.105E+01 -.161E+03   0.603E+01 0.683E-01 -.407E+01
   0.777E+02 0.998E+00 0.479E+03   -.841E+02 -.987E+00 -.477E+03   0.633E+01 -.111E-01 -.279E+01
   -.792E+02 0.425E+00 0.744E+03   0.854E+02 -.453E+00 -.747E+03   -.629E+01 0.286E-01 0.263E+01
   -.671E+02 0.173E+01 -.129E+03   0.721E+02 -.191E+01 0.123E+03   -.500E+01 0.172E+00 0.540E+01
   0.826E+02 -.156E+01 -.107E+04   -.886E+02 0.150E+01 0.108E+04   0.596E+01 0.595E-01 -.689E+01
   0.783E+02 -.188E+01 -.711E+03   -.849E+02 0.175E+01 0.714E+03   0.660E+01 0.135E+00 -.303E+01
   -.822E+02 -.442E+00 -.457E+03   0.885E+02 0.433E+00 0.454E+03   -.622E+01 0.804E-02 0.266E+01
   -.664E+02 -.975E+01 -.127E+04   0.685E+02 0.101E+02 0.126E+04   -.213E+01 -.324E+00 0.944E+01
   0.807E+02 -.867E+01 -.104E+04   -.869E+02 0.893E+01 0.104E+04   0.617E+01 -.260E+00 -.564E+01
   0.806E+02 -.667E+00 -.721E+03   -.869E+02 0.676E+00 0.724E+03   0.630E+01 -.663E-02 -.306E+01
   -.789E+02 -.131E+01 -.454E+03   0.851E+02 0.128E+01 0.451E+03   -.621E+01 0.240E-01 0.257E+01
   -.467E+02 -.117E+02 -.128E+04   0.482E+02 0.122E+02 0.127E+04   -.154E+01 -.483E+00 0.929E+01
   0.570E+02 -.146E+02 -.227E+04   -.621E+02 0.144E+02 0.229E+04   0.509E+01 0.165E+00 -.207E+02
   0.614E+02 -.542E+01 -.200E+04   -.662E+02 0.528E+01 0.201E+04   0.482E+01 0.146E+00 -.747E+01
   -.514E+02 -.637E+01 -.165E+04   0.563E+02 0.621E+01 0.165E+04   -.493E+01 0.165E+00 0.276E+01
   0.116E+02 -.299E+02 -.225E+04   -.167E+02 0.297E+02 0.227E+04   0.515E+01 0.142E+00 -.194E+02
   0.787E+02 -.458E+02 -.193E+04   -.838E+02 0.454E+02 0.194E+04   0.502E+01 0.398E+00 -.621E+01
   -.662E+02 -.134E+02 -.163E+04   0.714E+02 0.131E+02 0.163E+04   -.528E+01 0.239E+00 0.301E+01
   -.328E+02 -.352E-05 0.226E+04   0.375E+02 0.179E-05 -.228E+04   -.649E+01 0.461E-06 0.170E+02
   -.330E+02 0.118E-01 0.226E+04   0.377E+02 -.986E-02 -.228E+04   -.649E+01 -.258E-02 0.170E+02
   0.816E+02 -.138E+00 0.137E+04   -.862E+02 0.136E+00 -.137E+04   0.365E+01 0.520E-02 -.432E+01
   0.749E+02 -.126E-01 0.167E+04   -.816E+02 0.116E-01 -.167E+04   0.713E+01 0.174E-02 -.256E+01
   -.862E+02 0.107E-04 0.193E+04   0.933E+02 0.166E-05 -.193E+04   -.675E+01 0.101E-05 -.121E+00
   -.699E+02 0.471E-05 0.105E+04   0.753E+02 0.486E-05 -.106E+04   -.555E+01 -.266E-05 0.417E+01
   0.819E+02 -.124E-04 0.137E+04   -.865E+02 0.362E-05 -.137E+04   0.362E+01 0.193E-05 -.429E+01
   0.742E+02 -.122E-04 0.167E+04   -.810E+02 0.831E-06 -.167E+04   0.715E+01 0.590E-05 -.255E+01
   -.864E+02 -.440E-01 0.193E+04   0.934E+02 0.440E-01 -.193E+04   -.673E+01 0.175E-02 -.121E+00
   -.727E+02 -.148E+00 0.105E+04   0.784E+02 0.146E+00 -.106E+04   -.564E+01 0.469E-02 0.421E+01
   0.781E+02 0.107E+01 0.160E+03   -.843E+02 -.114E+01 -.155E+03   0.622E+01 0.698E-01 -.477E+01
   0.804E+02 -.387E+00 0.482E+03   -.869E+02 0.460E+00 -.479E+03   0.646E+01 -.729E-01 -.294E+01
   -.796E+02 -.337E-05 0.746E+03   0.860E+02 0.141E-04 -.748E+03   -.633E+01 0.170E-05 0.270E+01
   -.661E+02 -.371E-04 -.127E+03   0.710E+02 0.377E-04 0.121E+03   -.487E+01 0.160E-05 0.528E+01
   0.782E+02 -.882E-05 0.163E+03   -.843E+02 0.177E-04 -.158E+03   0.607E+01 -.425E-06 -.453E+01
   0.779E+02 -.638E-05 0.477E+03   -.842E+02 0.923E-05 -.474E+03   0.630E+01 -.439E-05 -.302E+01
   -.792E+02 -.425E+00 0.744E+03   0.854E+02 0.453E+00 -.747E+03   -.629E+01 -.286E-01 0.263E+01
   -.671E+02 -.173E+01 -.129E+03   0.721E+02 0.191E+01 0.123E+03   -.500E+01 -.172E+00 0.540E+01
   0.826E+02 0.156E+01 -.107E+04   -.886E+02 -.150E+01 0.108E+04   0.596E+01 -.595E-01 -.689E+01
   0.783E+02 0.188E+01 -.711E+03   -.849E+02 -.175E+01 0.714E+03   0.660E+01 -.135E+00 -.303E+01
   -.806E+02 -.541E-04 -.463E+03   0.868E+02 0.516E-04 0.461E+03   -.613E+01 0.300E-05 0.243E+01
   -.592E+02 -.890E-04 -.128E+04   0.612E+02 0.876E-04 0.127E+04   -.197E+01 0.522E-05 0.956E+01
   0.812E+02 -.327E-04 -.106E+04   -.873E+02 0.217E-04 0.107E+04   0.612E+01 0.115E-04 -.699E+01
   0.807E+02 -.249E-04 -.711E+03   -.871E+02 0.268E-04 0.714E+03   0.641E+01 0.547E-05 -.287E+01
   -.789E+02 0.131E+01 -.454E+03   0.851E+02 -.128E+01 0.451E+03   -.621E+01 -.240E-01 0.257E+01
   -.467E+02 0.117E+02 -.128E+04   0.482E+02 -.122E+02 0.127E+04   -.154E+01 0.483E+00 0.929E+01
   0.570E+02 0.146E+02 -.227E+04   -.621E+02 -.144E+02 0.229E+04   0.509E+01 -.165E+00 -.207E+02
   0.614E+02 0.542E+01 -.200E+04   -.662E+02 -.527E+01 0.201E+04   0.482E+01 -.146E+00 -.747E+01
   -.607E+02 -.200E-03 -.165E+04   0.665E+02 0.189E-03 0.165E+04   -.576E+01 0.127E-04 0.294E+01
   0.401E+02 -.150E-03 -.228E+04   -.452E+02 0.134E-03 0.230E+04   0.515E+01 0.180E-04 -.208E+02
   0.584E+02 -.468E-03 -.201E+04   -.625E+02 0.477E-03 0.202E+04   0.417E+01 0.124E-04 -.808E+01
   -.662E+02 0.134E+02 -.163E+04   0.714E+02 -.131E+02 0.163E+04   -.528E+01 -.239E+00 0.301E+01
   -.327E+02 0.152E-01 0.226E+04   0.374E+02 -.149E-01 -.228E+04   -.649E+01 -.448E-03 0.170E+02
   -.330E+02 0.938E-05 0.226E+04   0.377E+02 -.124E-05 -.228E+04   -.650E+01 -.290E-05 0.170E+02
   0.824E+02 0.326E-05 0.137E+04   -.871E+02 -.238E-05 -.137E+04   0.376E+01 -.310E-06 -.435E+01
   0.749E+02 -.539E-05 0.167E+04   -.816E+02 -.560E-05 -.167E+04   0.712E+01 0.477E-05 -.256E+01
   -.863E+02 0.287E-01 0.193E+04   0.933E+02 -.267E-01 -.193E+04   -.675E+01 -.378E-02 -.119E+00
   -.696E+02 0.746E+00 0.105E+04   0.751E+02 -.796E+00 -.105E+04   -.555E+01 0.468E-01 0.413E+01
   0.822E+02 -.101E+00 0.137E+04   -.868E+02 0.818E-01 -.137E+04   0.363E+01 0.204E-01 -.420E+01
   0.740E+02 -.128E+00 0.167E+04   -.808E+02 0.136E+00 -.167E+04   0.715E+01 -.218E-01 -.258E+01
   -.864E+02 0.222E-04 0.193E+04   0.934E+02 -.285E-05 -.193E+04   -.672E+01 -.410E-06 -.142E+00
   -.803E+02 0.442E-05 0.105E+04   0.868E+02 -.361E-05 -.105E+04   -.648E+01 -.474E-06 0.393E+01
   0.815E+02 0.177E-04 0.158E+03   -.883E+02 -.233E-04 -.153E+03   0.685E+01 -.734E-06 -.501E+01
   0.770E+02 0.103E-04 0.486E+03   -.830E+02 -.155E-04 -.483E+03   0.604E+01 -.583E-05 -.270E+01
   -.801E+02 -.313E+00 0.744E+03   0.864E+02 0.327E+00 -.746E+03   -.633E+01 -.121E-01 0.259E+01
   -.649E+02 0.111E+01 -.124E+03   0.696E+02 -.113E+01 0.119E+03   -.469E+01 0.176E-01 0.506E+01
   0.796E+02 -.988E+00 0.165E+03   -.856E+02 0.105E+01 -.161E+03   0.603E+01 -.683E-01 -.407E+01
   0.777E+02 -.998E+00 0.479E+03   -.841E+02 0.987E+00 -.477E+03   0.633E+01 0.111E-01 -.279E+01
   -.757E+02 0.388E-04 0.744E+03   0.817E+02 -.500E-04 -.747E+03   -.598E+01 0.954E-05 0.266E+01
   -.819E+02 0.251E-04 -.143E+03   0.888E+02 -.348E-04 0.138E+03   -.685E+01 0.923E-06 0.434E+01
   0.872E+02 0.870E-04 -.107E+04   -.939E+02 -.860E-04 0.108E+04   0.669E+01 -.639E-05 -.736E+01
   0.711E+02 0.909E-04 -.707E+03   -.769E+02 -.897E-04 0.710E+03   0.583E+01 -.893E-05 -.286E+01
   -.822E+02 0.442E+00 -.457E+03   0.885E+02 -.433E+00 0.454E+03   -.622E+01 -.804E-02 0.266E+01
   -.664E+02 0.975E+01 -.127E+04   0.685E+02 -.101E+02 0.126E+04   -.213E+01 0.324E+00 0.944E+01
   0.807E+02 0.867E+01 -.104E+04   -.869E+02 -.893E+01 0.104E+04   0.617E+01 0.260E+00 -.564E+01
   0.806E+02 0.667E+00 -.721E+03   -.869E+02 -.676E+00 0.724E+03   0.630E+01 0.662E-02 -.306E+01
   -.734E+02 0.568E-04 -.461E+03   0.793E+02 -.589E-04 0.459E+03   -.587E+01 -.994E-05 0.229E+01
   -.617E+02 0.164E-03 -.130E+04   0.673E+02 -.166E-03 0.130E+04   -.558E+01 0.400E-05 0.575E+01
   0.107E+03 0.691E-03 -.225E+04   -.112E+03 -.652E-03 0.227E+04   0.553E+01 -.478E-04 -.201E+02
   0.477E+02 0.253E-03 -.199E+04   -.513E+02 -.245E-03 0.200E+04   0.366E+01 -.986E-05 -.712E+01
   -.514E+02 0.637E+01 -.165E+04   0.563E+02 -.621E+01 0.165E+04   -.493E+01 -.165E+00 0.276E+01
   0.116E+02 0.299E+02 -.225E+04   -.167E+02 -.297E+02 0.227E+04   0.515E+01 -.142E+00 -.194E+02
   0.787E+02 0.458E+02 -.193E+04   -.838E+02 -.454E+02 0.194E+04   0.502E+01 -.398E+00 -.621E+01
   -.709E+02 0.778E-03 -.156E+04   0.753E+02 -.763E-03 0.155E+04   -.444E+01 -.289E-04 0.414E+01
 -----------------------------------------------------------------------------------------------
   -.137E+02 0.268E-02 0.539E+02   0.171E-12 0.952E-12 -.614E-11   0.137E+02 -.276E-02 -.539E+02
 
 
 POSITION                                       TOTAL-FORCE (eV/Angst)
 -----------------------------------------------------------------------------------
      6.29789      5.69630     21.73694         0.002993     -0.004443      0.000921
      5.64139      5.69625     22.52189        -0.007471      0.000242      0.004126
      6.90655      4.87344     21.81610        -0.004387      0.001270      0.000688
      6.90652      6.51902     21.81609        -0.001587      0.002856      0.001280
      8.35439      9.49375      8.23452         3.801598     -0.000236      1.705972
      6.12443      7.59500      9.11725        -1.626544      0.000064     -1.937503
      3.19561      7.59500      8.23452         3.774891     -0.004272      1.692367
      0.96564      9.49375      9.11725        -1.654690     -0.006365     -1.943126
      9.76117      9.49393     11.80382         0.000069      0.001281     -0.001612
      7.50887      7.59042     12.60617         0.001629     -0.002040      0.000865
      4.59743      7.59226     11.80057        -0.000021     -0.000623     -0.000612
      2.34235      9.49327     12.61446        -0.001072     -0.001106      0.000394
      0.89309      9.49495     15.37121         0.000860     -0.003938     -0.000539
      8.93464      7.58854     16.07866        -0.001755     -0.002493      0.001635
      6.04004      7.59179     15.35138         0.002301      0.000783      0.001693
      3.76468      9.49394     16.10244        -0.001001     -0.000426      0.001148
      2.39242      9.48667     19.00805         0.000784      0.001020      0.001576
      0.01980      7.58351     19.55485        -0.001647      0.001004      0.003760
      7.53701      7.59477     18.93722        -0.000315     -0.002142      0.002104
      5.19832      9.50902     19.55032        -0.001429     -0.004803      0.002361
      8.35439      1.89875      8.23452         3.801574      0.000248      1.705985
      6.12443      0.00000      9.11725        -1.642227      0.000012     -1.940128
      3.19561      0.00000      8.23452         3.794038     -0.000021      1.700566
      0.96564      1.89875      9.11725        -1.654710      0.006368     -1.943121
      9.76117      1.89857     11.80382         0.000058     -0.001274     -0.001609
      7.50545     11.39250     12.60777        -0.004235      0.000011     -0.000759
      4.59948     11.39250     11.80355         0.002919      0.000006      0.000373
      2.34235      1.89924     12.61446        -0.001079      0.001102      0.000419
      0.89309      1.89755     15.37121         0.000872      0.003947     -0.000551
      8.92331      0.00000     16.09066        -0.002407      0.000000      0.004789
      6.04651      0.00000     15.36077        -0.002620      0.000005      0.001325
      3.76468      1.89856     16.10244        -0.001020      0.000426      0.001143
      2.39242      1.90583     19.00805         0.000795     -0.001019      0.001563
      0.04104     11.39250     19.55555         0.001530     -0.000028      0.006556
      7.56701      0.00000     18.99159         0.003087     -0.000026     -0.004407
      5.19832      1.88348     19.55032        -0.001501      0.004752      0.002291
      8.35439      5.69625      8.23452         3.814873     -0.000001      1.702654
      6.12443      3.79750      9.11725        -1.626514     -0.000079     -1.937494
      3.19561      3.79750      8.23452         3.774898      0.004277      1.692375
      0.96564      5.69625      9.11725        -1.625967      0.000004     -1.868365
      9.77654      5.69625     11.79899        -0.000997     -0.000003     -0.000007
      7.50887      3.80208     12.60617         0.001629      0.002029      0.000877
      4.59743      3.80024     11.80057        -0.000013      0.000603     -0.000601
      2.34553      5.69625     12.64499        -0.001290     -0.000001      0.002396
      0.92354      5.69625     15.37752         0.002762     -0.000013      0.003704
      8.93464      3.80397     16.07866        -0.001743      0.002502      0.001612
      6.04004      3.80072     15.35138         0.002308     -0.000785      0.001684
      3.78203      5.69625     16.19260        -0.001920     -0.000009     -0.001947
      2.43097      5.69625     19.02822         0.001257      0.000007      0.001553
      0.01980      3.80899     19.55485        -0.001607     -0.000987      0.003728
      7.53701      3.79773     18.93723        -0.000310      0.002155      0.002037
      5.23361      5.69625     19.71813         0.002442      0.000062      0.000371
      5.05116      7.59500      7.50000        -1.768006      0.000218      1.096052
     10.20995      9.49375      7.50000        -1.764568      0.000612      1.092488
      9.42766      9.49375      9.85177        -0.970919     -0.002594     -0.181589
      6.49884      9.49375      8.96904         0.357933     -0.000786     -0.056627
      7.97998      7.59500      8.38273         0.259524      0.001760     -1.038995
      6.44888      7.59500     11.03092        -0.079392      0.003251      0.376008
      4.26887      7.59500      9.85177        -0.976430     -0.001710     -0.169676
      1.34005      7.59500      8.96904         0.367785      0.012804     -0.064657
      2.82120      9.49375      8.38273         0.268530     -0.001739     -1.040579
      1.29009      9.49375     11.03092        -0.022706     -0.002562      0.406028
      0.52459      9.49712     13.40034         0.000286     -0.001774      0.000462
      7.90041      9.49305     12.49697        -0.000869     -0.000835     -0.000064
      9.38848      7.59419     11.92113        -0.000529     -0.002446     -0.001028
      7.88033      7.59123     14.53544         0.001406      0.001364     -0.000505
      5.68022      7.58898     13.40019         0.001175      0.001424     -0.000978
      2.73964      7.59378     12.50609        -0.000374     -0.000592      0.001437
      4.22344      9.49284     11.91961        -0.001740      0.000536      0.000228
      2.72296      9.48678     14.54933        -0.000547      0.001453      0.000463
      1.99948      9.48906     16.95245         0.000303     -0.000128      0.001314
      9.33727      9.49433     16.00641         0.000517      0.000319     -0.000897
      0.52689      7.59362     15.45527         0.000425     -0.001022     -0.001507
      9.42040      7.59996     18.02448         0.000523     -0.001735     -0.000447
      7.16932      7.60629     16.92808         0.002560      0.000089     -0.000335
      4.18341      7.59408     16.04577        -0.000574      0.002184     -0.001528
      5.67216      9.49267     15.45214         0.002423      0.002136      0.000201
      4.24826      9.52168     18.04055        -0.000660     -0.001237     -0.000205
      3.59136      9.48829     20.43664         0.003790      0.001777     -0.000070
      0.54612      9.48801     19.77913         0.001947      0.001206      0.002092
      2.01185      7.59170     19.03413         0.000503      0.000418      0.000925
      8.71008      7.56329     20.41337         0.000604      0.000891      0.001225
      5.71526      7.62363     19.74754         0.001620     -0.001025     -0.000661
      7.17658      9.50101     18.98378         0.001982     -0.003907      0.001550
      5.05116      0.00000      7.50000        -1.766696     -0.000001      1.093804
     10.20995      1.89875      7.50000        -1.764570     -0.000607      1.092471
      9.42766      1.89875      9.85177        -0.970920      0.002599     -0.181573
      6.49884      1.89875      8.96904         0.357926      0.000793     -0.056622
      7.97998      0.00000      8.38273         0.261945      0.000014     -1.039826
      6.44888      0.00000     11.03092        -0.064751      0.000007      0.363563
      4.26887      0.00000      9.85177        -0.975550     -0.000006     -0.171384
      1.34005      0.00000      8.96904         0.363038     -0.000005     -0.056776
      2.82120      1.89875      8.38273         0.268527      0.001727     -1.040581
      1.29009      1.89875     11.03092        -0.022719      0.002570      0.406034
      0.52459      1.89538     13.40034         0.000276      0.001787      0.000462
      7.90041      1.89945     12.49697        -0.000876      0.000842     -0.000063
      9.38536      0.00000     11.91733        -0.000975      0.000013      0.001995
      7.88096      0.00000     14.53922         0.000117      0.000003      0.003367
      5.68273      0.00000     13.39737         0.000695      0.000009     -0.000179
      2.74078      0.00000     12.50704        -0.000569     -0.000001     -0.000380
      4.22344      1.89967     11.91961        -0.001730     -0.000538      0.000241
      2.72296      1.90572     14.54933        -0.000536     -0.001450      0.000464
      1.99948      1.90344     16.95245         0.000308      0.000137      0.001315
      9.33727      1.89817     16.00641         0.000517     -0.000306     -0.000894
      0.52708     11.39250     15.46176        -0.000907      0.000001     -0.002054
      9.41936      0.00000     18.03604         0.000711      0.000004      0.000949
      7.16389     11.39250     16.93547        -0.000200      0.000001      0.000142
      4.17385      0.00000     16.01073         0.004298      0.000008      0.000197
      5.67216      1.89984     15.45215         0.002419     -0.002129      0.000201
      4.24826      1.87082     18.04055        -0.000647      0.001247     -0.000178
      3.59136      1.90422     20.43664         0.003802     -0.001771     -0.000064
      0.54612      1.90450     19.77913         0.001944     -0.001197      0.002089
      2.01086     11.39250     19.02678        -0.000418      0.000003      0.000894
      8.74615     11.39250     20.43232         0.002342      0.000002     -0.000131
      5.72934     11.39250     19.79654         0.001572      0.000022      0.000190
      7.17658      1.89150     18.98378         0.001983      0.003930      0.001553
      5.05116      3.79750      7.50000        -1.767984     -0.000215      1.096038
     10.20995      5.69625      7.50000        -1.778750      0.000006      1.078763
      9.42766      5.69625      9.85177        -0.988943      0.000001     -0.195975
      6.49884      5.69625      8.96904         0.354476     -0.000006     -0.056209
      7.97998      3.79750      8.38273         0.259516     -0.001773     -1.038981
      6.44888      3.79750     11.03092        -0.079392     -0.003259      0.376014
      4.26887      3.79750      9.85177        -0.976420      0.001713     -0.169675
      1.34005      3.79750      8.96904         0.367777     -0.012810     -0.064649
      2.82120      5.69625      8.38273         0.274107      0.000019     -1.046975
      1.29009      5.69625     11.03092         0.027451      0.000001      0.509873
      0.53039      5.69625     13.40464         0.000079     -0.000006     -0.000017
      7.90119      5.69625     12.49275         0.000610     -0.000011      0.001011
      9.38848      3.79831     11.92113        -0.000533      0.002438     -0.001023
      7.88033      3.80127     14.53544         0.001391     -0.001369     -0.000510
      5.68022      3.80352     13.40019         0.001171     -0.001428     -0.000968
      2.73964      3.79872     12.50609        -0.000365      0.000586      0.001445
      4.22369      5.69625     11.92047         0.001202     -0.000001      0.001351
      2.73448      5.69625     14.57668        -0.002107     -0.000008     -0.004116
      1.99471      5.69625     16.97163        -0.001300     -0.000005     -0.001821
      9.33890      5.69625     16.01148        -0.001301     -0.000007     -0.000947
      0.52689      3.79888     15.45527         0.000427      0.001016     -0.001509
      9.42040      3.79254     18.02448         0.000517      0.001731     -0.000429
      7.16932      3.78621     16.92808         0.002556     -0.000094     -0.000311
      4.18341      3.79842     16.04577        -0.000579     -0.002188     -0.001531
      5.67964      5.69625     15.47763         0.000100     -0.000012     -0.002476
      4.24867      5.69625     18.11098        -0.001245      0.000003      0.004898
      3.56765      5.69625     20.49840        -0.000870     -0.000009      0.000977
      0.54167      5.69625     19.78266        -0.000840     -0.000002      0.002084
      2.01185      3.80080     19.03413         0.000502     -0.000438      0.000919
      8.71008      3.82921     20.41337         0.000551     -0.000894      0.001258
      5.71526      3.76887     19.74754         0.001634      0.001073     -0.000592
      7.15052      5.69625     18.95207         0.001590     -0.000014     -0.001779
 -----------------------------------------------------------------------------------
    total drift:                               -0.008655     -0.000079      0.042164


--------------------------------------------------------------------------------------------------------



  FREE ENERGIE OF THE ION-ELECTRON SYSTEM (eV)
  ---------------------------------------------------
  free  energy   TOTEN  =     -1063.22933213 eV

  energy  without entropy=    -1063.22933213  energy(sigma->0) =    -1063.22933213
 


--------------------------------------------------------------------------------------------------------


    POTLOK:  cpu time      0.6175: real time      0.6196


--------------------------------------------------------------------------------------------------------


     LOOP+:  cpu time    683.7003: real time    687.8260
    4ORBIT:  cpu time      0.0000: real time      0.0000

 total amount of memory used by VASP MPI-rank0   457884. kBytes
=======================================================================

   base      :      30000. kBytes
   nonl-proj :     287968. kBytes
   fftplans  :      29422. kBytes
   grid      :      42405. kBytes
   one-center:       1150. kBytes
   wavefun   :      66939. kBytes
 
  
  
 General timing and accounting informations for this job:
 ========================================================
  
                  Total CPU time used (sec):      709.196
                            User time (sec):      706.492
                          System time (sec):        2.704
                         Elapsed time (sec):      714.346
  
                   Maximum memory used (kb):     1051008.
                   Average memory used (kb):          N/A
  
                          Minor page faults:        99323
                          Major page faults:          834
                 Voluntary context switches:         4521
