 vasp.6.3.0 20Jan22 (build Aug 21 2024 11:13:42) complex                         
 executed on        HPECrayEX_GCC date 2024.11.26  22:39:49
 running  512 mpi-ranks, with    1 threads/rank
 distrk:  each k-point on  512 cores,    1 groups
 distr:  one band on NCORE=  16 cores,   32 groups


--------------------------------------------------------------------------------------------------------


 INCAR:
   SYSTEM = TiO2
   ISMEAR = 0
   SIGMA = 0.05
   EDIFF = 1E-4
   ALGO = ALL
   ISTART = 0
   IBRION = -1
   NSW = 0
   ISYM = 0
   ISIF = 2
   EDIFFG = -0.01
   DIPOL = 0.5 0.5 0.5
   IDIPOL = 3
   LDIPOL = .TRUE.
   METAGGA = R2SCAN
   LUSE_VDW = .TRUE.
   BPARAM = 11.95
   CPARAM = 0.0093
   LASPH = .TRUE.
   ENCUT = 600
   PREC = Accurate
   LASPH = .TRUE.
   LREAL = .FALSE.
   ISPIN = 1
   NELM = 200
   NELMIN = 8
   NCORE = 16
   KPAR = 1
   LWAVE = .FALSE.
   LCHARG = .FALSE.

 POTCAR:    PAW_PBE C 08Apr2002                   
 POTCAR:    PAW_PBE O 08Apr2002                   
 POTCAR:    PAW_PBE H 15Jun2001                   
 POTCAR:    PAW_PBE Ti_pv 07Sep2000               
 POTCAR:    PAW_PBE O 08Apr2002                   
 -----------------------------------------------------------------------------
|                                                                             |
|               ----> ADVICE to this user running VASP <----                  |
|                                                                             |
|     You have switched on vdW-DFT.                                           |
|     This routine was written and supplied by Jiri Klimes. We recommend      |
|     that you carefully read and cite the following publications:            |
|       J. Klimes, D.R. Bowler, A. Michelides                                 |
|          J. Phys.: Cond Matt. 22 022201 (2010)                              |
|       J. Klimes, D.R. Bowler, A. Michelides                                 |
|          Phys. Rev. B. 83, 195131 (2011)                                    |
|     and references therein.                                                 |
|                                                                             |
 -----------------------------------------------------------------------------

 POTCAR:    PAW_PBE C 08Apr2002                   
   SHA256 =  253f7b50bb8d59471dbedb8285d89021f4a42ed1a2c5d38a03a736e69125dd95 C/POTCAR              
   COPYR  = (c) Copyright 08Apr2002 Georg Kresse                                                    
   COPYR  = This file is part of the software VASP. Any use, copying, and all other rights are regul
   COPYR  = If you do not have a valid VASP license, you may not use, copy or distribute this file. 
   VRHFIN =C: s2p2                                                                                  
   LEXCH  = PE                                                                                      
   EATOM  =   147.1560 eV,   10.8157 Ry                                                             
                                                                                                    
   TITEL  = PAW_PBE C 08Apr2002                                                                     
   LULTRA =        F    use ultrasoft PP ?                                                          
   IUNSCR =        1    unscreen: 0-lin 1-nonlin 2-no                                               
   RPACOR =    1.200    partial core radius                                                         
   POMASS =   12.011; ZVAL   =    4.000    mass and valenz                                          
   RCORE  =    1.500    outmost cutoff radius                                                       
   RWIGS  =    1.630; RWIGS  =    0.863    wigner-seitz radius (au A)                               
   ENMAX  =  400.000; ENMIN  =  300.000 eV                                                          
   ICORE  =        2    local potential                                                             
   LCOR   =        T    correct aug charges                                                         
   LPAW   =        T    paw PP                                                                      
   EAUG   =  644.873                                                                                
   DEXC   =    0.000                                                                                
   RMAX   =    1.529    core radius for proj-oper                                                   
   RAUG   =    1.300    factor for augmentation sphere                                              
   RDEP   =    1.501    radius for radial grids                                                     
   RDEPT  =    1.300    core radius for aug-charge                                                  
                                                                                                    
   Atomic configuration                                                                             
    4 entries                                                                                       
     n  l   j            E        occ.                                                              
     1  0  0.50      -273.3789   2.0000                                                             
     2  0  0.50       -13.7508   2.0000                                                             
     2  1  0.50        -5.2854   2.0000                                                             
     3  2  1.50        -5.4423   0.0000                                                             
   Description                                                                                      
     l       E           TYP  RCUT    TYP  RCUT                                                     
     0    -13.7508458     23  1.200                                                                 
     0     -8.2022199     23  1.200                                                                 
     1     -5.2854383     23  1.500                                                                 
     1     34.0145650     23  1.500                                                                 
     2     -5.4423304      7  1.500                                                                 
  local pseudopotential read in
  partial core-charges read in
  partial kinetic energy density read in
  atomic valenz-charges read in
  non local Contribution for L=           0  read in
    real space projection operators read in
  non local Contribution for L=           0  read in
    real space projection operators read in
  non local Contribution for L=           1  read in
    real space projection operators read in
  non local Contribution for L=           1  read in
    real space projection operators read in
    PAW grid and wavefunctions read in

   number of l-projection  operators is LMAX  =           4
   number of lm-projection operators is LMMAX =           8

 POTCAR:    PAW_PBE O 08Apr2002                   
   SHA256 =  818f92134a0a090dccd8ba1447fa70422a3b330e708bb4f08108d8ae51209ddf O/POTCAR              
   COPYR  = (c) Copyright 08Apr2002 Georg Kresse                                                    
   COPYR  = This file is part of the software VASP. Any use, copying, and all other rights are regul
   COPYR  = If you do not have a valid VASP license, you may not use, copy or distribute this file. 
   VRHFIN =O: s2p4                                                                                  
   LEXCH  = PE                                                                                      
   EATOM  =   432.3788 eV,   31.7789 Ry                                                             
                                                                                                    
   TITEL  = PAW_PBE O 08Apr2002                                                                     
   LULTRA =        F    use ultrasoft PP ?                                                          
   IUNSCR =        1    unscreen: 0-lin 1-nonlin 2-no                                               
   RPACOR =    1.200    partial core radius                                                         
   POMASS =   16.000; ZVAL   =    6.000    mass and valenz                                          
   RCORE  =    1.520    outmost cutoff radius                                                       
   RWIGS  =    1.550; RWIGS  =    0.820    wigner-seitz radius (au A)                               
   ENMAX  =  400.000; ENMIN  =  300.000 eV                                                          
   ICORE  =        2    local potential                                                             
   LCOR   =        T    correct aug charges                                                         
   LPAW   =        T    paw PP                                                                      
   EAUG   =  605.392                                                                                
   DEXC   =    0.000                                                                                
   RMAX   =    1.553    core radius for proj-oper                                                   
   RAUG   =    1.300    factor for augmentation sphere                                              
   RDEP   =    1.550    radius for radial grids                                                     
   RDEPT  =    1.329    core radius for aug-charge                                                  
                                                                                                    
   Atomic configuration                                                                             
    4 entries                                                                                       
     n  l   j            E        occ.                                                              
     1  0  0.50      -514.6923   2.0000                                                             
     2  0  0.50       -23.9615   2.0000                                                             
     2  1  0.50        -9.0305   4.0000                                                             
     3  2  1.50        -9.5241   0.0000                                                             
   Description                                                                                      
     l       E           TYP  RCUT    TYP  RCUT                                                     
     0    -23.9615318     23  1.200                                                                 
     0     -9.5240782     23  1.200                                                                 
     1     -9.0304911     23  1.520                                                                 
     1      8.1634956     23  1.520                                                                 
     2     -9.5240782      7  1.500                                                                 
  local pseudopotential read in
  partial core-charges read in
  partial kinetic energy density read in
  kinetic energy density of atom read in
  atomic valenz-charges read in
  non local Contribution for L=           0  read in
    real space projection operators read in
  non local Contribution for L=           0  read in
    real space projection operators read in
  non local Contribution for L=           1  read in
    real space projection operators read in
  non local Contribution for L=           1  read in
    real space projection operators read in
    PAW grid and wavefunctions read in

   number of l-projection  operators is LMAX  =           4
   number of lm-projection operators is LMMAX =           8

 POTCAR:    PAW_PBE H 15Jun2001                   
   SHA256 =  030f79b5d3ab3cf0e668861823c8fb652ff669f3e15e46930bd03bfd63a607b6 H/POTCAR              
   COPYR  = (c) Copyright 15Jun2001 Georg Kresse                                                    
   COPYR  = This file is part of the software VASP. Any use, copying, and all other rights are regul
   COPYR  = If you do not have a valid VASP license, you may not use, copy or distribute this file. 
   VRHFIN =H: ultrasoft test                                                                        
   LEXCH  = PE                                                                                      
   EATOM  =    12.4884 eV,    0.9179 Ry                                                             
                                                                                                    
   TITEL  = PAW_PBE H 15Jun2001                                                                     
   LULTRA =        F    use ultrasoft PP ?                                                          
   IUNSCR =        0    unscreen: 0-lin 1-nonlin 2-no                                               
   RPACOR =    0.000    partial core radius                                                         
   POMASS =    1.000; ZVAL   =    1.000    mass and valenz                                          
   RCORE  =    1.100    outmost cutoff radius                                                       
   RWIGS  =    0.700; RWIGS  =    0.370    wigner-seitz radius (au A)                               
   ENMAX  =  250.000; ENMIN  =  200.000 eV                                                          
   RCLOC  =    0.701    cutoff for local pot                                                        
   LCOR   =        T    correct aug charges                                                         
   LPAW   =        T    paw PP                                                                      
   EAUG   =  400.000                                                                                
   RMAX   =    1.123    core radius for proj-oper                                                   
   RAUG   =    1.200    factor for augmentation sphere                                              
   RDEP   =    1.112    radius for radial grids                                                     
   RDEPT  =    0.926    core radius for aug-charge                                                  
                                                                                                    
   Atomic configuration                                                                             
    2 entries                                                                                       
     n  l   j            E        occ.                                                              
     1  0  0.50        -6.4927   1.0000                                                             
     2  1  0.50        -3.4015   0.0000                                                             
   Description                                                                                      
     l       E           TYP  RCUT    TYP  RCUT                                                     
     0     -6.4927494     23  1.100                                                                 
     0      6.8029130     23  1.100                                                                 
     1     -4.0817478     23  1.100                                                                 
  local pseudopotential read in
  atomic valenz-charges read in
  non local Contribution for L=           0  read in
    real space projection operators read in
  non local Contribution for L=           0  read in
    real space projection operators read in
  non local Contribution for L=           1  read in
    real space projection operators read in
    PAW grid and wavefunctions read in

   number of l-projection  operators is LMAX  =           3
   number of lm-projection operators is LMMAX =           5

 POTCAR:    PAW_PBE Ti_pv 07Sep2000               
   SHA256 =  f757a1b2c6d082f4c628fa3d987464a8763bf92e53844ac0500b0e2ddc9ce5c0 Ti_pv/POTCAR          
   COPYR  = (c) Copyright 07Sep2000 Georg Kresse                                                    
   COPYR  = This file is part of the software VASP. Any use, copying, and all other rights are regul
   COPYR  = If you do not have a valid VASP license, you may not use, copy or distribute this file. 
   VRHFIN =Ti: d3 s1                                                                                
   LEXCH  = PE                                                                                      
   EATOM  =  1042.5995 eV,   76.6289 Ry                                                             
                                                                                                    
   TITEL  = PAW_PBE Ti_pv 07Sep2000                                                                 
   LULTRA =        F    use ultrasoft PP ?                                                          
   IUNSCR =        1    unscreen: 0-lin 1-nonlin 2-no                                               
   RPACOR =    2.200    partial core radius                                                         
   POMASS =   47.880; ZVAL   =   10.000    mass and valenz                                          
   RCORE  =    2.500    outmost cutoff radius                                                       
   RWIGS  =    2.500; RWIGS  =    1.323    wigner-seitz radius (au A)                               
   ENMAX  =  222.335; ENMIN  =  166.751 eV                                                          
   RCLOC  =    1.701    cutoff for local pot                                                        
   LCOR   =        T    correct aug charges                                                         
   LPAW   =        T    paw PP                                                                      
   EAUG   =  482.848                                                                                
   DEXC   =    0.000                                                                                
   RMAX   =    2.564    core radius for proj-oper                                                   
   RAUG   =    1.300    factor for augmentation sphere                                              
   RDEP   =    2.538    radius for radial grids                                                     
   RDEPT  =    1.952    core radius for aug-charge                                                  
                                                                                                    
   Atomic configuration                                                                             
    8 entries                                                                                       
     n  l   j            E        occ.                                                              
     1  0  0.50     -4865.3608   2.0000                                                             
     2  0  0.50      -533.1368   2.0000                                                             
     2  1  1.50      -440.5031   6.0000                                                             
     3  0  0.50       -59.3186   2.0000                                                             
     3  1  1.50       -35.7012   6.0000                                                             
     3  2  2.50        -1.9157   3.0000                                                             
     4  0  0.50        -3.7291   1.0000                                                             
     4  3  2.50        -1.3606   0.0000                                                             
   Description                                                                                      
     l       E           TYP  RCUT    TYP  RCUT                                                     
     1    -35.7012140     23  2.300                                                                 
     1     -1.3605826     23  2.300                                                                 
     2     -1.9156996     23  2.500                                                                 
     2     -0.4063033     23  2.500                                                                 
     0     -3.7290856     23  2.500                                                                 
     0     20.4087390     23  2.500                                                                 
  local pseudopotential read in
  partial core-charges read in
  partial kinetic energy density read in
  atomic valenz-charges read in
  non local Contribution for L=           1  read in
    real space projection operators read in
  non local Contribution for L=           1  read in
    real space projection operators read in
  non local Contribution for L=           2  read in
    real space projection operators read in
  non local Contribution for L=           2  read in
    real space projection operators read in
  non local Contribution for L=           0  read in
    real space projection operators read in
  non local Contribution for L=           0  read in
    real space projection operators read in
    PAW grid and wavefunctions read in

   number of l-projection  operators is LMAX  =           6
   number of lm-projection operators is LMMAX =          18

 POTCAR:    PAW_PBE O 08Apr2002                   
   SHA256 =  818f92134a0a090dccd8ba1447fa70422a3b330e708bb4f08108d8ae51209ddf O/POTCAR              
   COPYR  = (c) Copyright 08Apr2002 Georg Kresse                                                    
   COPYR  = This file is part of the software VASP. Any use, copying, and all other rights are regul
   COPYR  = If you do not have a valid VASP license, you may not use, copy or distribute this file. 
   VRHFIN =O: s2p4                                                                                  
   LEXCH  = PE                                                                                      
   EATOM  =   432.3788 eV,   31.7789 Ry                                                             
                                                                                                    
   TITEL  = PAW_PBE O 08Apr2002                                                                     
   LULTRA =        F    use ultrasoft PP ?                                                          
   IUNSCR =        1    unscreen: 0-lin 1-nonlin 2-no                                               
   RPACOR =    1.200    partial core radius                                                         
   POMASS =   16.000; ZVAL   =    6.000    mass and valenz                                          
   RCORE  =    1.520    outmost cutoff radius                                                       
   RWIGS  =    1.550; RWIGS  =    0.820    wigner-seitz radius (au A)                               
   ENMAX  =  400.000; ENMIN  =  300.000 eV                                                          
   ICORE  =        2    local potential                                                             
   LCOR   =        T    correct aug charges                                                         
   LPAW   =        T    paw PP                                                                      
   EAUG   =  605.392                                                                                
   DEXC   =    0.000                                                                                
   RMAX   =    1.553    core radius for proj-oper                                                   
   RAUG   =    1.300    factor for augmentation sphere                                              
   RDEP   =    1.550    radius for radial grids                                                     
   RDEPT  =    1.329    core radius for aug-charge                                                  
                                                                                                    
   Atomic configuration                                                                             
    4 entries                                                                                       
     n  l   j            E        occ.                                                              
     1  0  0.50      -514.6923   2.0000                                                             
     2  0  0.50       -23.9615   2.0000                                                             
     2  1  0.50        -9.0305   4.0000                                                             
     3  2  1.50        -9.5241   0.0000                                                             
   Description                                                                                      
     l       E           TYP  RCUT    TYP  RCUT                                                     
     0    -23.9615318     23  1.200                                                                 
     0     -9.5240782     23  1.200                                                                 
     1     -9.0304911     23  1.520                                                                 
     1      8.1634956     23  1.520                                                                 
     2     -9.5240782      7  1.500                                                                 
  local pseudopotential read in
  partial core-charges read in
  partial kinetic energy density read in
  kinetic energy density of atom read in
  atomic valenz-charges read in
  non local Contribution for L=           0  read in
    real space projection operators read in
  non local Contribution for L=           0  read in
    real space projection operators read in
  non local Contribution for L=           1  read in
    real space projection operators read in
  non local Contribution for L=           1  read in
    real space projection operators read in
    PAW grid and wavefunctions read in

   number of l-projection  operators is LMAX  =           4
   number of lm-projection operators is LMMAX =           8

 -----------------------------------------------------------------------------
|                                                                             |
|               ----> ADVICE to this user running VASP <----                  |
|                                                                             |
|     You have a (more or less) 'large supercell' and for larger cells it     |
|     might be more efficient to use real-space projection operators.         |
|     Therefore, try LREAL= Auto in the INCAR file.                           |
|     Mind: For very accurate calculation, you might also keep the            |
|     reciprocal projection scheme (i.e. LREAL=.FALSE.).                      |
|                                                                             |
 -----------------------------------------------------------------------------

  PAW_PBE C 08Apr2002                   :
 energy of atom  1       EATOM= -147.1560
 kinetic energy error for atom=    0.0057 (will be added to EATOM!!)
  PAW_PBE O 08Apr2002                   :
 energy of atom  2       EATOM= -432.3788
 kinetic energy error for atom=    0.0168 (will be added to EATOM!!)
  PAW_PBE H 15Jun2001                   :
 energy of atom  3       EATOM=  -12.4884
 kinetic energy error for atom=    0.0004 (will be added to EATOM!!)
  PAW_PBE Ti_pv 07Sep2000               :
 energy of atom  4       EATOM=-1042.5995
 kinetic energy error for atom=    0.0007 (will be added to EATOM!!)
  PAW_PBE O 08Apr2002                   :
 energy of atom  5       EATOM= -432.3788
 kinetic energy error for atom=    0.0168 (will be added to EATOM!!)


 POSCAR:  C  O  H Ti  O
  positions in direct lattice
  No initial velocities read in

 METAGGA = R2SCA    LMAXTAU =  6    LMIXTAU =  F

 exchange correlation table for  LEXCH =        8
   RHO(1)=    0.500       N(1)  =     2000
   RHO(2)=  100.500       N(2)  =     4000



--------------------------------------------------------------------------------------------------------


 ion  position               nearest neighbor table
   1  0.498  0.582  0.816-   3 1.09   5 1.09   6 1.10   2 1.47
   2  0.530  0.496  0.786-   4 0.99   1 1.47  86 2.24
   3  0.416  0.590  0.813-   1 1.09
   4  0.604  0.489  0.787-   2 0.99
   5  0.518  0.556  0.849-   1 1.09
   6  0.535  0.662  0.809-   1 1.10
   7  0.750  0.625  0.285-  87 1.98 147 1.98  88 1.98 148 1.98 169 2.02  90 2.02  17 3.00  37 3.00

   8  0.000  0.750  0.285-  89 1.98  90 1.98 109 1.98 110 1.98  91 2.02  38 3.00  18 3.00
   9  0.000  0.625  0.393-  91 1.98 151 1.98  92 1.98 152 1.98  93 2.02  94 2.02  19 3.00  39 3.00

  10  0.750  0.750  0.393- 174 1.98 194 1.98  93 1.98 113 1.98  95 2.02  88 2.02  20 3.00  40 3.00

  11  0.750  0.625  0.500-  95 1.98  96 1.98 155 1.98 156 1.98  98 2.02 177 2.02  21 3.00  41 3.00

  12  0.000  0.750  0.500-  97 1.98 117 1.98  98 1.98 118 1.98  92 2.02  99 2.05  22 3.00  42 3.00

  13  0.009  0.625  0.605- 102 1.87  99 1.92 159 1.92 100 2.05 160 2.06 101 2.12  23 3.00  43 3.00

  14  0.758  0.750  0.612- 103 1.89 101 1.93 121 1.93 182 2.06 202 2.06  96 2.15  24 2.99  44 3.00

  15  0.750  0.625  0.721- 104 1.85 164 1.87 185 2.05 106 2.07 163 2.11 103 2.12  25 2.99  45 3.02

  16  1.000  0.750  0.710- 100 1.83 126 1.97 125 1.97 105 1.98 106 1.98  26 2.99  46 3.00
  17  0.750  0.875  0.285-  87 1.98 107 1.98  88 1.98 108 1.98 189 2.02 110 2.02   7 3.00  27 3.00

  18  0.000  0.000  0.285- 109 1.98 110 1.98 129 1.98 130 1.98 111 2.02  28 3.00   8 3.00
  19  0.000  0.875  0.393-  91 1.98 111 1.98  92 1.98 112 1.98 113 2.02 114 2.02   9 3.00  29 3.00

  20  0.750  0.000  0.393- 194 1.98 214 1.98 113 1.98 133 1.98 115 2.02 108 2.02  10 3.00  30 3.00

  21  0.750  0.875  0.500-  95 1.98  96 1.98 115 1.98 116 1.98 118 2.02 197 2.02  11 3.00  31 3.00

  22  0.000  0.000  0.500- 117 1.98 137 1.98 118 1.98 138 1.98 112 2.02 119 2.05  12 3.00  32 3.00

  23  0.009  0.875  0.605- 122 1.87 119 1.92  99 1.92 120 2.05 100 2.06 121 2.12  33 2.99  13 3.00

  24  0.757  0.000  0.612- 123 1.89 121 1.93 141 1.94 222 2.06 202 2.06 116 2.16  34 2.99  14 2.99

  25  0.750  0.874  0.722- 104 1.85 124 1.85 205 2.06 126 2.08 103 2.12 123 2.13  35 2.99  15 2.99

  26  0.001  1.000  0.710- 120 1.83 145 1.97 125 1.97 146 1.98 126 1.98  16 2.99  36 2.99
  27  0.750  0.125  0.285- 107 1.98 127 1.98 108 1.98 128 1.98 209 2.02 130 2.02  17 3.00  37 3.00

  28  0.000  0.250  0.285- 129 1.98 130 1.98 149 1.98 150 1.98 131 2.02  38 3.00  18 3.00
  29  0.000  0.125  0.393- 111 1.98 131 1.98 112 1.98 132 1.98 133 2.02 134 2.02  19 3.00  39 3.00

  30  0.750  0.250  0.393- 214 1.98 234 1.98 133 1.98 153 1.98 135 2.02 128 2.02  20 3.00  40 3.00

  31  0.750  0.125  0.500- 115 1.98 116 1.98 135 1.98 136 1.98 138 2.02 217 2.02  21 3.00  41 3.00

  32  0.000  0.250  0.500- 137 1.98 157 1.98 138 1.98 158 1.98 132 2.02 139 2.05  22 3.00  42 3.00

  33  0.009  0.125  0.605- 142 1.87 119 1.92 139 1.92 120 2.05 140 2.06 141 2.12  23 2.99  43 3.00

  34  0.757  0.250  0.612- 143 1.89 141 1.93 161 1.93 222 2.06 242 2.06 136 2.15  24 2.99  44 3.00

  35  0.750  0.124  0.722- 124 1.85 144 1.86 225 2.06 146 2.08 123 2.11 143 2.14  45 2.99  25 2.99

  36  0.000  0.249  0.710- 140 1.83 145 1.97 146 1.97 165 1.98 166 1.99  26 2.99  46 3.00
  37  0.750  0.375  0.285- 127 1.98 147 1.98 128 1.98 148 1.98 229 2.02 150 2.02   7 3.00  27 3.00

  38  0.000  0.500  0.285-  89 1.98  90 1.98 149 1.98 150 1.98 151 2.02  28 3.00   8 3.00
  39  0.000  0.375  0.393- 131 1.98 151 1.98 132 1.98 152 1.98 153 2.02 154 2.02   9 3.00  29 3.00

  40  0.750  0.500  0.393- 174 1.98 234 1.98  93 1.98 153 1.98 148 2.02 155 2.02  10 3.00  30 3.00

  41  0.750  0.375  0.500- 135 1.98 136 1.98 155 1.98 156 1.98 158 2.02 237 2.02  11 3.00  31 3.00

  42  0.000  0.500  0.500-  97 1.98 157 1.98  98 1.98 158 1.98 152 2.02 159 2.05  12 3.00  32 3.00

  43  0.009  0.375  0.605- 162 1.87 139 1.92 159 1.92 140 2.05 160 2.05 161 2.12  33 3.00  13 3.00

  44  0.758  0.500  0.612- 163 1.89 101 1.94 161 1.94 242 2.06 182 2.06 156 2.16  14 3.00  34 3.00

  45  0.751  0.373  0.721- 144 1.84 164 1.88 166 2.06 245 2.06 143 2.10 163 2.13  35 2.99  15 3.02

  46  1.000  0.500  0.710- 160 1.83 106 1.97 166 1.97 165 1.98 105 1.98  16 3.00  36 3.00
  47  0.250  0.625  0.285- 167 1.98 227 1.98 168 1.98 228 1.98 170 2.02  89 2.02  57 3.00  77 3.00

  48  0.500  0.750  0.285- 169 1.98 170 1.98 189 1.98 190 1.98 171 2.02  78 3.00  58 3.00
  49  0.500  0.625  0.393- 171 1.98 231 1.98 172 1.98 232 1.98 173 2.02 174 2.02  59 3.00  79 3.00

  50  0.250  0.750  0.393- 173 1.98 193 1.98  94 1.98 114 1.98 175 2.02 168 2.02  60 3.00  80 3.00

  51  0.250  0.625  0.500- 175 1.98 176 1.98 235 1.98 236 1.98 178 2.02  97 2.02  61 3.00  81 3.00

  52  0.500  0.750  0.500- 177 1.98 178 1.98 197 1.98 198 1.98 172 2.02 179 2.04  62 3.00  82 3.00

  53  0.510  0.623  0.606- 182 1.87 239 1.92 179 1.96 240 2.02 180 2.04 181 2.13  83 2.94  63 3.01

  54  0.257  0.750  0.612- 183 1.89 181 1.93 201 1.93 102 2.07 122 2.07 176 2.16  84 2.99  64 3.00

  55  0.249  0.625  0.722- 184 1.85 244 1.85 105 2.05 186 2.10 183 2.12 243 2.12  65 2.99  85 3.00

  56  0.502  0.750  0.709- 180 1.83 185 1.93 205 1.97 186 1.98 206 1.99  66 2.99  86 3.01
  57  0.250  0.875  0.285- 167 1.98 187 1.98 168 1.98 188 1.98 190 2.02 109 2.02  47 3.00  67 3.00

  58  0.500  0.000  0.285- 189 1.98 190 1.98 209 1.98 210 1.98 191 2.02  68 3.00  48 3.00
  59  0.500  0.875  0.393- 171 1.98 191 1.98 172 1.98 192 1.98 193 2.02 194 2.02  49 3.00  69 3.00

  60  0.250  0.000  0.393- 193 1.98 213 1.98 114 1.98 134 1.98 195 2.02 188 2.02  50 3.00  70 3.00

  61  0.250  0.875  0.500- 175 1.98 176 1.98 195 1.98 196 1.98 198 2.02 117 2.02  51 3.00  71 3.00

  62  0.500  0.000  0.500- 197 1.98 198 1.98 217 1.98 218 1.98 192 2.02 199 2.03  52 3.00  72 3.00

  63  0.509  0.874  0.604- 202 1.88 179 1.91 199 1.92 180 2.04 200 2.07 201 2.13  53 3.01  73 3.02

  64  0.257  1.000  0.612- 203 1.89 201 1.93 221 1.93 142 2.07 122 2.07 196 2.16  74 3.00  54 3.00

  65  0.251  0.875  0.722- 204 1.85 184 1.85 206 2.06 125 2.08 203 2.13 183 2.13  55 2.99  75 2.99

  66  0.499  1.000  0.709- 200 1.82 206 1.96 226 1.96 225 1.98 205 1.99  76 2.99  56 2.99
  67  0.250  0.125  0.285- 187 1.98 207 1.98 188 1.98 208 1.98 210 2.02 129 2.02  57 3.00  77 3.00

  68  0.500  0.250  0.285- 209 1.98 210 1.98 229 1.98 230 1.98 211 2.02  78 3.00  58 3.00
  69  0.500  0.125  0.393- 191 1.98 211 1.98 192 1.98 212 1.98 213 2.02 214 2.02  59 3.00  79 3.00

  70  0.250  0.250  0.393- 213 1.98 233 1.98 134 1.98 154 1.98 215 2.02 208 2.02  60 3.00  80 3.00

  71  0.250  0.125  0.500- 195 1.98 196 1.98 215 1.98 216 1.98 218 2.02 137 2.02  61 3.00  81 3.00

  72  0.500  0.250  0.500- 217 1.98 218 1.98 237 1.98 238 1.98 212 2.02 219 2.05  62 3.00  82 3.00

  73  0.509  0.126  0.604- 222 1.88 219 1.90 199 1.92 220 2.04 200 2.07 221 2.13  83 3.01  63 3.02

  74  0.257  0.250  0.612- 223 1.89 241 1.93 221 1.93 162 2.07 142 2.07 216 2.16  84 2.99  64 3.00

  75  0.251  0.125  0.722- 204 1.85 224 1.85 226 2.06 145 2.08 203 2.13 223 2.13  85 2.99  65 2.99

  76  0.501  0.250  0.709- 220 1.83 245 1.94 225 1.97 246 1.97 226 1.99  66 2.99  86 3.00
  77  0.250  0.375  0.285- 207 1.98 227 1.98 208 1.98 228 1.98 230 2.02 149 2.02  47 3.00  67 3.00

  78  0.500  0.500  0.285- 169 1.98 170 1.98 229 1.98 230 1.98 231 2.02  68 3.00  48 3.00
  79  0.500  0.375  0.393- 211 1.98 231 1.98 212 1.98 232 1.98 233 2.02 234 2.02  49 3.00  69 3.00

  80  0.250  0.500  0.393- 173 1.98 233 1.98  94 1.98 154 1.98 228 2.02 235 2.02  50 3.00  70 3.00

  81  0.250  0.375  0.500- 215 1.98 216 1.98 235 1.98 236 1.98 238 2.02 157 2.02  51 3.00  71 3.00

  82  0.500  0.500  0.500- 177 1.98 178 1.98 237 1.98 238 1.98 232 2.02 239 2.05  52 3.00  72 3.00

  83  0.510  0.377  0.607- 242 1.87 239 1.92 219 1.96 240 2.02 220 2.04 241 2.13  53 2.94  73 3.01

  84  0.257  0.500  0.612- 243 1.89 181 1.93 241 1.93 162 2.07 102 2.07 236 2.16  74 2.99  54 2.99

  85  0.250  0.375  0.722- 224 1.85 244 1.85 165 2.06 246 2.08 223 2.13 243 2.13  75 2.99  55 3.00

  86  0.499  0.499  0.714- 240 1.94 246 1.95 186 1.95 245 2.00 185 2.03   2 2.24  76 3.00  56 3.01

  87  0.750  0.750  0.243-   7 1.98  17 1.98
  88  0.750  0.750  0.327-   7 1.98  17 1.98  10 2.02
  89  0.098  0.625  0.285-   8 1.98  38 1.98  47 2.02
  90  0.902  0.625  0.285-   8 1.98  38 1.98   7 2.02
  91  0.000  0.750  0.351-   9 1.98  19 1.98   8 2.02
  92  0.000  0.750  0.434-   9 1.98  19 1.98  12 2.02
  93  0.848  0.625  0.393-  10 1.98  40 1.98   9 2.02
  94  0.152  0.625  0.393-  50 1.98  80 1.98   9 2.02
  95  0.750  0.750  0.458-  11 1.98  21 1.98  10 2.02
  96  0.750  0.750  0.542-  11 1.98  21 1.98  14 2.15
  97  0.098  0.625  0.500-  12 1.98  42 1.98  51 2.02
  98  0.902  0.625  0.500-  12 1.98  42 1.98  11 2.02
  99  0.000  0.750  0.566-  13 1.92  23 1.92  12 2.05
 100  1.000  0.750  0.651-  16 1.83  13 2.05  23 2.06
 101  0.850  0.625  0.608-  14 1.93  44 1.94  13 2.12
 102  0.150  0.625  0.608-  13 1.87  54 2.07  84 2.07
 103  0.753  0.751  0.673-  14 1.89  25 2.12  15 2.12
 104  0.749  0.749  0.757-  25 1.85  15 1.85
 105  0.094  0.625  0.721-  46 1.98  16 1.98  55 2.05
 106  0.907  0.624  0.721-  46 1.97  16 1.98  15 2.07
 107  0.750  0.000  0.243-  17 1.98  27 1.98
 108  0.750  0.000  0.327-  17 1.98  27 1.98  20 2.02
 109  0.098  0.875  0.285-   8 1.98  18 1.98  57 2.02
 110  0.902  0.875  0.285-   8 1.98  18 1.98  17 2.02
 111  0.000  0.000  0.351-  19 1.98  29 1.98  18 2.02
 112  0.000  0.000  0.434-  19 1.98  29 1.98  22 2.02
 113  0.848  0.875  0.393-  10 1.98  20 1.98  19 2.02
 114  0.152  0.875  0.393-  50 1.98  60 1.98  19 2.02
 115  0.750  0.000  0.458-  21 1.98  31 1.98  20 2.02
 116  0.750  0.000  0.542-  21 1.98  31 1.98  24 2.16
 117  0.098  0.875  0.500-  12 1.98  22 1.98  61 2.02
 118  0.902  0.875  0.500-  12 1.98  22 1.98  21 2.02
 119  0.000  1.000  0.566-  33 1.92  23 1.92  22 2.05
 120  0.000  1.000  0.651-  26 1.83  23 2.05  33 2.05
 121  0.849  0.875  0.608-  24 1.93  14 1.93  23 2.12
 122  0.150  0.875  0.608-  23 1.87  64 2.07  54 2.07
 123  0.751  0.000  0.673-  24 1.89  35 2.11  25 2.13
 124  0.750  1.000  0.758-  35 1.85  25 1.85
 125  0.094  0.875  0.721-  16 1.97  26 1.97  65 2.08
 126  0.907  0.875  0.721-  16 1.97  26 1.98  25 2.08
 127  0.750  0.250  0.243-  27 1.98  37 1.98
 128  0.750  0.250  0.327-  27 1.98  37 1.98  30 2.02
 129  0.098  0.125  0.285-  18 1.98  28 1.98  67 2.02
 130  0.902  0.125  0.285-  18 1.98  28 1.98  27 2.02
 131  0.000  0.250  0.351-  29 1.98  39 1.98  28 2.02
 132  0.000  0.250  0.434-  29 1.98  39 1.98  32 2.02
 133  0.848  0.125  0.393-  20 1.98  30 1.98  29 2.02
 134  0.152  0.125  0.393-  60 1.98  70 1.98  29 2.02
 135  0.750  0.250  0.458-  31 1.98  41 1.98  30 2.02
 136  0.750  0.250  0.542-  31 1.98  41 1.98  34 2.15
 137  0.098  0.125  0.500-  22 1.98  32 1.98  71 2.02
 138  0.902  0.125  0.500-  22 1.98  32 1.98  31 2.02
 139  0.000  0.250  0.566-  43 1.92  33 1.92  32 2.05
 140  0.000  0.250  0.651-  36 1.83  43 2.05  33 2.06
 141  0.849  0.125  0.608-  34 1.93  24 1.94  33 2.12
 142  0.150  0.125  0.608-  33 1.87  64 2.07  74 2.07
 143  0.753  0.250  0.673-  34 1.89  45 2.10  35 2.14
 144  0.750  0.250  0.757-  45 1.84  35 1.86
 145  0.094  0.125  0.721-  36 1.97  26 1.97  75 2.08
 146  0.907  0.125  0.721-  36 1.97  26 1.98  35 2.08
 147  0.750  0.500  0.243-   7 1.98  37 1.98
 148  0.750  0.500  0.327-   7 1.98  37 1.98  40 2.02
 149  0.098  0.375  0.285-  28 1.98  38 1.98  77 2.02
 150  0.902  0.375  0.285-  28 1.98  38 1.98  37 2.02
 151  0.000  0.500  0.351-   9 1.98  39 1.98  38 2.02
 152  0.000  0.500  0.434-   9 1.98  39 1.98  42 2.02
 153  0.848  0.375  0.393-  30 1.98  40 1.98  39 2.02
 154  0.152  0.375  0.393-  70 1.98  80 1.98  39 2.02
 155  0.750  0.500  0.458-  11 1.98  41 1.98  40 2.02
 156  0.750  0.500  0.542-  11 1.98  41 1.98  44 2.16
 157  0.098  0.375  0.500-  32 1.98  42 1.98  81 2.02
 158  0.902  0.375  0.500-  32 1.98  42 1.98  41 2.02
 159  0.001  0.500  0.566-  13 1.92  43 1.92  42 2.05
 160  1.000  0.500  0.651-  46 1.83  43 2.05  13 2.06
 161  0.850  0.375  0.608-  34 1.93  44 1.94  43 2.12
 162  0.150  0.375  0.608-  43 1.87  84 2.07  74 2.07
 163  0.754  0.500  0.673-  44 1.89  15 2.11  45 2.13
 164  0.742  0.500  0.757-  15 1.87  45 1.88
 165  0.094  0.375  0.721-  46 1.98  36 1.98  85 2.06
 166  0.907  0.375  0.721-  46 1.97  36 1.99  45 2.06
 167  0.250  0.750  0.243-  47 1.98  57 1.98
 168  0.250  0.750  0.327-  47 1.98  57 1.98  50 2.02
 169  0.598  0.625  0.285-  48 1.98  78 1.98   7 2.02
 170  0.402  0.625  0.285-  48 1.98  78 1.98  47 2.02
 171  0.500  0.750  0.351-  49 1.98  59 1.98  48 2.02
 172  0.500  0.750  0.434-  49 1.98  59 1.98  52 2.02
 173  0.348  0.625  0.393-  50 1.98  80 1.98  49 2.02
 174  0.652  0.625  0.393-  10 1.98  40 1.98  49 2.02
 175  0.250  0.750  0.458-  51 1.98  61 1.98  50 2.02
 176  0.250  0.750  0.542-  51 1.98  61 1.98  54 2.16
 177  0.598  0.625  0.500-  52 1.98  82 1.98  11 2.02
 178  0.402  0.625  0.500-  52 1.98  82 1.98  51 2.02
 179  0.501  0.749  0.566-  63 1.91  53 1.96  52 2.04
 180  0.499  0.751  0.650-  56 1.83  63 2.04  53 2.04
 181  0.349  0.625  0.608-  54 1.93  84 1.93  53 2.13
 182  0.651  0.625  0.609-  53 1.87  14 2.06  44 2.06
 183  0.251  0.750  0.673-  54 1.89  55 2.12  65 2.13
 184  0.251  0.750  0.758-  55 1.85  65 1.85
 185  0.596  0.629  0.717-  56 1.93  86 2.03  15 2.05
 186  0.407  0.626  0.721-  86 1.95  56 1.98  55 2.10
 187  0.250  0.000  0.243-  57 1.98  67 1.98
 188  0.250  0.000  0.327-  57 1.98  67 1.98  60 2.02
 189  0.598  0.875  0.285-  48 1.98  58 1.98  17 2.02
 190  0.402  0.875  0.285-  48 1.98  58 1.98  57 2.02
 191  0.500  0.000  0.351-  59 1.98  69 1.98  58 2.02
 192  0.500  0.000  0.434-  59 1.98  69 1.98  62 2.02
 193  0.348  0.875  0.393-  50 1.98  60 1.98  59 2.02
 194  0.652  0.875  0.393-  10 1.98  20 1.98  59 2.02
 195  0.250  0.000  0.458-  61 1.98  71 1.98  60 2.02
 196  0.250  0.000  0.542-  61 1.98  71 1.98  64 2.16
 197  0.598  0.875  0.500-  52 1.98  62 1.98  21 2.02
 198  0.402  0.875  0.500-  52 1.98  62 1.98  61 2.02
 199  0.500  0.000  0.566-  63 1.92  73 1.92  62 2.03
 200  0.500  1.000  0.650-  66 1.82  63 2.07  73 2.07
 201  0.349  0.875  0.608-  64 1.93  54 1.93  63 2.13
 202  0.651  0.875  0.608-  63 1.88  24 2.06  14 2.06
 203  0.251  1.000  0.673-  64 1.89  65 2.13  75 2.13
 204  0.250  1.000  0.757-  65 1.85  75 1.85
 205  0.594  0.875  0.720-  56 1.97  66 1.99  25 2.06
 206  0.407  0.876  0.721-  66 1.96  56 1.99  65 2.06
 207  0.250  0.250  0.243-  67 1.98  77 1.98
 208  0.250  0.250  0.327-  67 1.98  77 1.98  70 2.02
 209  0.598  0.125  0.285-  58 1.98  68 1.98  27 2.02
 210  0.402  0.125  0.285-  58 1.98  68 1.98  67 2.02
 211  0.500  0.250  0.351-  69 1.98  79 1.98  68 2.02
 212  0.500  0.250  0.434-  69 1.98  79 1.98  72 2.02
 213  0.348  0.125  0.393-  60 1.98  70 1.98  69 2.02
 214  0.652  0.125  0.393-  20 1.98  30 1.98  69 2.02
 215  0.250  0.250  0.458-  71 1.98  81 1.98  70 2.02
 216  0.250  0.250  0.542-  71 1.98  81 1.98  74 2.16
 217  0.598  0.125  0.500-  62 1.98  72 1.98  31 2.02
 218  0.402  0.125  0.500-  62 1.98  72 1.98  71 2.02
 219  0.501  0.251  0.566-  73 1.90  83 1.96  72 2.05
 220  0.500  0.249  0.650-  76 1.83  73 2.04  83 2.04
 221  0.349  0.125  0.608-  64 1.93  74 1.93  73 2.13
 222  0.651  0.125  0.608-  73 1.88  24 2.06  34 2.06
 223  0.250  0.250  0.673-  74 1.89  85 2.13  75 2.13
 224  0.251  0.250  0.757-  85 1.85  75 1.85
 225  0.594  0.124  0.720-  76 1.97  66 1.98  35 2.06
 226  0.406  0.124  0.721-  66 1.96  76 1.99  75 2.06
 227  0.250  0.500  0.243-  47 1.98  77 1.98
 228  0.250  0.500  0.327-  47 1.98  77 1.98  80 2.02
 229  0.598  0.375  0.285-  68 1.98  78 1.98  37 2.02
 230  0.402  0.375  0.285-  68 1.98  78 1.98  77 2.02
 231  0.500  0.500  0.351-  49 1.98  79 1.98  78 2.02
 232  0.500  0.500  0.434-  49 1.98  79 1.98  82 2.02
 233  0.348  0.375  0.393-  70 1.98  80 1.98  79 2.02
 234  0.652  0.375  0.393-  30 1.98  40 1.98  79 2.02
 235  0.250  0.500  0.458-  51 1.98  81 1.98  80 2.02
 236  0.250  0.500  0.542-  51 1.98  81 1.98  84 2.16
 237  0.598  0.375  0.500-  72 1.98  82 1.98  41 2.02
 238  0.402  0.375  0.500-  72 1.98  82 1.98  81 2.02
 239  0.501  0.500  0.567-  53 1.92  83 1.92  82 2.05
 240  0.500  0.500  0.651-  86 1.94  53 2.02  83 2.02
 241  0.349  0.375  0.608-  74 1.93  84 1.93  83 2.13
 242  0.651  0.375  0.609-  83 1.87  34 2.06  44 2.06
 243  0.250  0.500  0.673-  84 1.89  55 2.12  85 2.13
 244  0.252  0.500  0.757-  85 1.85  55 1.85
 245  0.596  0.372  0.718-  76 1.94  86 2.00  45 2.06
 246  0.406  0.374  0.720-  86 1.95  76 1.97  85 2.08


IMPORTANT INFORMATION: All symmetrisations will be switched off!
NOSYMM: (Re-)initialisation of all symmetry stuff for point group C_1.


----------------------------------------------------------------------------------------

                                     Primitive cell                                     

  volume of cell :    4896.0359

  direct lattice vectors                    reciprocal lattice vectors
    13.251808214  0.000000000  0.000000000     0.075461400  0.000000000  0.000000000
     0.000000000 11.981455428  0.000000000     0.000000000  0.083462314  0.000000000
     0.000000000  0.000000000 30.836130416     0.000000000  0.000000000  0.032429491

  length of vectors
    13.251808214 11.981455428 30.836130416     0.075461400  0.083462314  0.032429491

  position of ions in fractional coordinates (direct lattice)
     0.497756051  0.582427863  0.816419379
     0.529848351  0.496162130  0.785533803
     0.416016579  0.589648713  0.813384583
     0.603884333  0.489017949  0.786956072
     0.518322071  0.555609735  0.849176644
     0.534705161  0.662198157  0.808939932
     0.750000000  0.625000000  0.285125305
     0.000000000  0.750000000  0.285125305
     0.000000000  0.625000000  0.392562653
     0.750000000  0.750000000  0.392562653
     0.750000000  0.625000000  0.500000000
     0.000000000  0.750000000  0.500000000
     0.009301193  0.625045045  0.605160511
     0.757521548  0.750201400  0.611668209
     0.750375777  0.624966140  0.721291578
     0.999954152  0.750403201  0.710051944
     0.750000000  0.875000000  0.285125305
     0.000000000  0.000000000  0.285125305
     0.000000000  0.875000000  0.392562653
     0.750000000  0.000000000  0.392562653
     0.750000000  0.875000000  0.500000000
     0.000000000  0.000000000  0.500000000
     0.009339594  0.875049686  0.605232133
     0.756933062  0.000029438  0.611966311
     0.749799191  0.874398285  0.722170290
     0.000508915  0.999850656  0.710063961
     0.750000000  0.125000000  0.285125305
     0.000000000  0.250000000  0.285125305
     0.000000000  0.125000000  0.392562653
     0.750000000  0.250000000  0.392562653
     0.750000000  0.125000000  0.500000000
     0.000000000  0.250000000  0.500000000
     0.009346310  0.124906454  0.605236354
     0.757386213  0.249831967  0.611620009
     0.749728998  0.123796910  0.722196968
     0.000353430  0.249324438  0.710077195
     0.750000000  0.375000000  0.285125305
     0.000000000  0.500000000  0.285125305
     0.000000000  0.375000000  0.392562653
     0.750000000  0.500000000  0.392562653
     0.750000000  0.375000000  0.500000000
     0.000000000  0.500000000  0.500000000
     0.009282246  0.374914128  0.605186437
     0.757800061  0.500017859  0.611751030
     0.751108781  0.373125259  0.721287893
     0.999953660  0.499911561  0.709996008
     0.250000000  0.625000000  0.285125305
     0.500000000  0.750000000  0.285125305
     0.500000000  0.625000000  0.392562653
     0.250000000  0.750000000  0.392562653
     0.250000000  0.625000000  0.500000000
     0.500000000  0.750000000  0.500000000
     0.509668054  0.622703060  0.606478469
     0.257457292  0.749930949  0.611838134
     0.249041983  0.625209803  0.721911321
     0.501556195  0.750062659  0.708809833
     0.250000000  0.875000000  0.285125305
     0.500000000  0.000000000  0.285125305
     0.500000000  0.875000000  0.392562653
     0.250000000  0.000000000  0.392562653
     0.250000000  0.875000000  0.500000000
     0.500000000  0.000000000  0.500000000
     0.509361570  0.874043723  0.604204816
     0.257264682  0.999991084  0.612003032
     0.251346510  0.874912414  0.722254113
     0.499204412  0.999869537  0.709113240
     0.250000000  0.125000000  0.285125305
     0.500000000  0.250000000  0.285125305
     0.500000000  0.125000000  0.392562653
     0.250000000  0.250000000  0.392562653
     0.250000000  0.125000000  0.500000000
     0.500000000  0.250000000  0.500000000
     0.509293093  0.126147574  0.604337978
     0.257331781  0.250049940  0.611956396
     0.251267188  0.124858381  0.722232333
     0.501399393  0.249665926  0.709214250
     0.250000000  0.375000000  0.285125305
     0.500000000  0.500000000  0.285125305
     0.500000000  0.375000000  0.392562653
     0.250000000  0.500000000  0.392562653
     0.250000000  0.375000000  0.500000000
     0.500000000  0.500000000  0.500000000
     0.509604548  0.377312123  0.606649053
     0.257150158  0.499968234  0.611979761
     0.249531111  0.374732014  0.722108969
     0.498757327  0.499454572  0.714043227
     0.750000000  0.750000000  0.243221179
     0.750000000  0.750000000  0.327029432
     0.097508286  0.625000000  0.285125305
     0.902491714  0.625000000  0.285125305
     0.000000000  0.750000000  0.350658526
     0.000000000  0.750000000  0.434466779
     0.847508286  0.625000000  0.392562653
     0.152491714  0.625000000  0.392562653
     0.750000000  0.750000000  0.458095874
     0.750000000  0.750000000  0.541904126
     0.097508286  0.625000000  0.500000000
     0.902491714  0.625000000  0.500000000
     0.000465185  0.750101228  0.566378261
     0.999886747  0.749870963  0.650642040
     0.849559127  0.625262745  0.607887286
     0.150127787  0.625146589  0.608085460
     0.753139399  0.750842699  0.673002684
     0.749151170  0.748963549  0.757297576
     0.094021392  0.624853381  0.720896200
     0.906629641  0.624335041  0.721446002
     0.750000000  0.000000000  0.243221179
     0.750000000  0.000000000  0.327029432
     0.097508286  0.875000000  0.285125305
     0.902491714  0.875000000  0.285125305
     0.000000000  0.000000000  0.350658526
     0.000000000  0.000000000  0.434466779
     0.847508286  0.875000000  0.392562653
     0.152491714  0.875000000  0.392562653
     0.750000000  0.000000000  0.458095874
     0.750000000  0.000000000  0.541904126
     0.097508286  0.875000000  0.500000000
     0.902491714  0.875000000  0.500000000
     0.000485367  0.999995074  0.566393872
     0.000182154  0.999922856  0.650638764
     0.849346041  0.875434274  0.608118185
     0.150154264  0.874942407  0.608186629
     0.751132647  0.000182380  0.673279801
     0.750158189  0.999533047  0.757560842
     0.094072751  0.874510040  0.720651728
     0.906765023  0.874850452  0.721161900
     0.750000000  0.250000000  0.243221179
     0.750000000  0.250000000  0.327029432
     0.097508286  0.125000000  0.285125305
     0.902491714  0.125000000  0.285125305
     0.000000000  0.250000000  0.350658526
     0.000000000  0.250000000  0.434466779
     0.847508286  0.125000000  0.392562653
     0.152491714  0.125000000  0.392562653
     0.750000000  0.250000000  0.458095874
     0.750000000  0.250000000  0.541904126
     0.097508286  0.125000000  0.500000000
     0.902491714  0.125000000  0.500000000
     0.000463411  0.249869057  0.566396746
     0.000097492  0.250050512  0.650668589
     0.849325106  0.124787881  0.608206810
     0.150141142  0.124892131  0.608151540
     0.752522577  0.249854146  0.673030585
     0.749578047  0.250180954  0.757249452
     0.094039444  0.125082404  0.720717594
     0.906759538  0.124853464  0.721039695
     0.750000000  0.500000000  0.243221179
     0.750000000  0.500000000  0.327029432
     0.097508286  0.375000000  0.285125305
     0.902491714  0.375000000  0.285125305
     0.000000000  0.500000000  0.350658526
     0.000000000  0.500000000  0.434466779
     0.847508286  0.375000000  0.392562653
     0.152491714  0.375000000  0.392562653
     0.750000000  0.500000000  0.458095874
     0.750000000  0.500000000  0.541904126
     0.097508286  0.375000000  0.500000000
     0.902491714  0.375000000  0.500000000
     0.000515882  0.499962455  0.566369370
     0.999972196  0.499968128  0.650593668
     0.849557114  0.374720369  0.607924376
     0.150143829  0.374924241  0.608078170
     0.754233946  0.500177600  0.672891437
     0.742427452  0.499529202  0.757276440
     0.093973347  0.375038622  0.720907127
     0.906604214  0.375296771  0.721422206
     0.250000000  0.750000000  0.243221179
     0.250000000  0.750000000  0.327029432
     0.597508286  0.625000000  0.285125305
     0.402491714  0.625000000  0.285125305
     0.500000000  0.750000000  0.350658526
     0.500000000  0.750000000  0.434466779
     0.347508286  0.625000000  0.392562653
     0.652491714  0.625000000  0.392562653
     0.250000000  0.750000000  0.458095874
     0.250000000  0.750000000  0.541904126
     0.597508286  0.625000000  0.500000000
     0.402491714  0.625000000  0.500000000
     0.500663118  0.749031555  0.566207340
     0.498787473  0.751283505  0.649632918
     0.348728382  0.624961270  0.608299609
     0.650988877  0.625183369  0.608524184
     0.250894616  0.749728597  0.673164362
     0.250828780  0.749596060  0.757510728
     0.596390347  0.629328865  0.716857214
     0.407436991  0.625738538  0.720834047
     0.250000000  0.000000000  0.243221179
     0.250000000  0.000000000  0.327029432
     0.597508286  0.875000000  0.285125305
     0.402491714  0.875000000  0.285125305
     0.500000000  0.000000000  0.350658526
     0.500000000  0.000000000  0.434466779
     0.347508286  0.875000000  0.392562653
     0.652491714  0.875000000  0.392562653
     0.250000000  0.000000000  0.458095874
     0.250000000  0.000000000  0.541904126
     0.597508286  0.875000000  0.500000000
     0.402491714  0.875000000  0.500000000
     0.500238743  0.000125527  0.565909222
     0.500025142  0.999922548  0.649943559
     0.348850252  0.875078075  0.608032993
     0.650701394  0.874994791  0.607996250
     0.250732535  0.999847658  0.673170185
     0.249975297  0.999847949  0.757486883
     0.594266551  0.874953898  0.720205680
     0.406578117  0.875604355  0.720595679
     0.250000000  0.250000000  0.243221179
     0.250000000  0.250000000  0.327029432
     0.597508286  0.125000000  0.285125305
     0.402491714  0.125000000  0.285125305
     0.500000000  0.250000000  0.350658526
     0.500000000  0.250000000  0.434466779
     0.347508286  0.125000000  0.392562653
     0.652491714  0.125000000  0.392562653
     0.250000000  0.250000000  0.458095874
     0.250000000  0.250000000  0.541904126
     0.597508286  0.125000000  0.500000000
     0.402491714  0.125000000  0.500000000
     0.500586400  0.251080801  0.566323995
     0.499582097  0.248660240  0.649935636
     0.348908976  0.124938337  0.608114966
     0.650745798  0.125090842  0.607960138
     0.250222987  0.249817083  0.673136298
     0.250597882  0.250125404  0.757438217
     0.594276135  0.124474583  0.720271578
     0.406498091  0.124324000  0.720541119
     0.250000000  0.500000000  0.243221179
     0.250000000  0.500000000  0.327029432
     0.597508286  0.375000000  0.285125305
     0.402491714  0.375000000  0.285125305
     0.500000000  0.500000000  0.350658526
     0.500000000  0.500000000  0.434466779
     0.347508286  0.375000000  0.392562653
     0.652491714  0.375000000  0.392562653
     0.250000000  0.500000000  0.458095874
     0.250000000  0.500000000  0.541904126
     0.597508286  0.375000000  0.500000000
     0.402491714  0.375000000  0.500000000
     0.500746373  0.499892631  0.566615569
     0.500135734  0.500246512  0.651181462
     0.348803665  0.374962313  0.608458883
     0.650951349  0.375062662  0.608532029
     0.249908866  0.500243973  0.673097182
     0.252028583  0.500114986  0.757326048
     0.595812250  0.371550751  0.717670693
     0.406428490  0.373697956  0.719632157

  ion indices of the primitive-cell ions
   primitive index   ion index
                 1           1
                 2           2
                 3           3
                 4           4
                 5           5
                 6           6
                 7           7
                 8           8
                 9           9
                10          10
                11          11
                12          12
                13          13
                14          14
                15          15
                16          16
                17          17
                18          18
                19          19
                20          20
                21          21
                22          22
                23          23
                24          24
                25          25
                26          26
                27          27
                28          28
                29          29
                30          30
                31          31
                32          32
                33          33
                34          34
                35          35
                36          36
                37          37
                38          38
                39          39
                40          40
                41          41
                42          42
                43          43
                44          44
                45          45
                46          46
                47          47
                48          48
                49          49
                50          50
                51          51
                52          52
                53          53
                54          54
                55          55
                56          56
                57          57
                58          58
                59          59
                60          60
                61          61
                62          62
                63          63
                64          64
                65          65
                66          66
                67          67
                68          68
                69          69
                70          70
                71          71
                72          72
                73          73
                74          74
                75          75
                76          76
                77          77
                78          78
                79          79
                80          80
                81          81
                82          82
                83          83
                84          84
                85          85
                86          86
                87          87
                88          88
                89          89
                90          90
                91          91
                92          92
                93          93
                94          94
                95          95
                96          96
                97          97
                98          98
                99          99
               100         100
               101         101
               102         102
               103         103
               104         104
               105         105
               106         106
               107         107
               108         108
               109         109
               110         110
               111         111
               112         112
               113         113
               114         114
               115         115
               116         116
               117         117
               118         118
               119         119
               120         120
               121         121
               122         122
               123         123
               124         124
               125         125
               126         126
               127         127
               128         128
               129         129
               130         130
               131         131
               132         132
               133         133
               134         134
               135         135
               136         136
               137         137
               138         138
               139         139
               140         140
               141         141
               142         142
               143         143
               144         144
               145         145
               146         146
               147         147
               148         148
               149         149
               150         150
               151         151
               152         152
               153         153
               154         154
               155         155
               156         156
               157         157
               158         158
               159         159
               160         160
               161         161
               162         162
               163         163
               164         164
               165         165
               166         166
               167         167
               168         168
               169         169
               170         170
               171         171
               172         172
               173         173
               174         174
               175         175
               176         176
               177         177
               178         178
               179         179
               180         180
               181         181
               182         182
               183         183
               184         184
               185         185
               186         186
               187         187
               188         188
               189         189
               190         190
               191         191
               192         192
               193         193
               194         194
               195         195
               196         196
               197         197
               198         198
               199         199
               200         200
               201         201
               202         202
               203         203
               204         204
               205         205
               206         206
               207         207
               208         208
               209         209
               210         210
               211         211
               212         212
               213         213
               214         214
               215         215
               216         216
               217         217
               218         218
               219         219
               220         220
               221         221
               222         222
               223         223
               224         224
               225         225
               226         226
               227         227
               228         228
               229         229
               230         230
               231         231
               232         232
               233         233
               234         234
               235         235
               236         236
               237         237
               238         238
               239         239
               240         240
               241         241
               242         242
               243         243
               244         244
               245         245
               246         246

----------------------------------------------------------------------------------------



 KPOINTS: pymatgen v2020.8.13 with grid density = 

Automatic generation of k-mesh.
 Grid dimensions read from file:
 generate k-points for:    2    2    1

 Generating k-lattice:

  Cartesian coordinates                     Fractional coordinates (reciprocal lattice)
     0.037730700  0.000000000  0.000000000     0.500000000  0.000000000  0.000000000
     0.000000000  0.041731157  0.000000000     0.000000000  0.500000000  0.000000000
     0.000000000  0.000000000  0.032429491     0.000000000  0.000000000  1.000000000

  Length of vectors
     0.037730700  0.041731157  0.032429491

  Shift w.r.t. Gamma in fractional coordinates (k-lattice)
     0.000000000  0.000000000  0.000000000

 
 Subroutine IBZKPT returns following result:
 ===========================================
 
 Found      4 irreducible k-points:
 
 Following reciprocal coordinates:
            Coordinates               Weight
  0.000000  0.000000  0.000000      1.000000
  0.500000  0.000000  0.000000      1.000000
  0.000000  0.500000  0.000000      1.000000
  0.500000  0.500000  0.000000      1.000000
 
 Following cartesian coordinates:
            Coordinates               Weight
  0.000000  0.000000  0.000000      1.000000
  0.037731  0.000000  0.000000      1.000000
  0.000000  0.041731  0.000000      1.000000
  0.037731  0.041731  0.000000      1.000000
 


--------------------------------------------------------------------------------------------------------




 Dimension of arrays:
   k-points           NKPTS =      4   k-points in BZ     NKDIM =      4   number of bands    NBANDS=   1088
   number of dos      NEDOS =    301   number of ions     NIONS =    246
   non local maximal  LDIM  =      6   non local SUM 2l+1 LMDIM =     18
   total plane-waves  NPLWV = ******
   max r-space proj   IRMAX =      1   max aug-charges    IRDMAX=  20751
   dimension x,y,z NGX =   108 NGY =   96 NGZ =  250
   dimension x,y,z NGXF=   216 NGYF=  192 NGZF=  500
   support grid    NGXF=   216 NGYF=  192 NGZF=  500
   ions per type =               1   1   4  80 160
   NGX,Y,Z   is equivalent  to a cutoff of  13.55, 13.32, 13.48 a.u.
   NGXF,Y,Z  is equivalent  to a cutoff of  27.10, 26.64, 26.96 a.u.

 SYSTEM =  TiO2                                    
 POSCAR =   C  O  H Ti  O                          

--------------------------------------------------------------------------------------------------------


  energy-cutoff  :      600.00
  volume of cell :     4896.04
      direct lattice vectors                 reciprocal lattice vectors
    13.251808214  0.000000000  0.000000000     0.075461400  0.000000000  0.000000000
     0.000000000 11.981455428  0.000000000     0.000000000  0.083462314  0.000000000
     0.000000000  0.000000000 30.836130416     0.000000000  0.000000000  0.032429491

  length of vectors
    13.251808214 11.981455428 30.836130416     0.075461400  0.083462314  0.032429491



 k-points in units of 2pi/SCALE and weight: pymatgen v2020.8.13 with grid density = 
   0.00000000  0.00000000  0.00000000       0.250
   0.03773070  0.00000000  0.00000000       0.250
   0.00000000  0.04173116  0.00000000       0.250
   0.03773070  0.04173116  0.00000000       0.250

 k-points in reciprocal lattice and weights: pymatgen v2020.8.13 with grid density = 
   0.00000000  0.00000000  0.00000000       0.250
   0.50000000  0.00000000  0.00000000       0.250
   0.00000000  0.50000000  0.00000000       0.250
   0.50000000  0.50000000  0.00000000       0.250

 position of ions in fractional coordinates (direct lattice) 
   0.49775605  0.58242786  0.81641938
   0.52984835  0.49616213  0.78553380
   0.41601658  0.58964871  0.81338458
   0.60388433  0.48901795  0.78695607
   0.51832207  0.55560973  0.84917664
   0.53470516  0.66219816  0.80893993
   0.75000000  0.62500000  0.28512531
   0.00000000  0.75000000  0.28512531
   0.00000000  0.62500000  0.39256265
   0.75000000  0.75000000  0.39256265
   0.75000000  0.62500000  0.50000000
   0.00000000  0.75000000  0.50000000
   0.00930119  0.62504504  0.60516051
   0.75752155  0.75020140  0.61166821
   0.75037578  0.62496614  0.72129158
   0.99995415  0.75040320  0.71005194
   0.75000000  0.87500000  0.28512531
   0.00000000  0.00000000  0.28512531
   0.00000000  0.87500000  0.39256265
   0.75000000  0.00000000  0.39256265
   0.75000000  0.87500000  0.50000000
   0.00000000  0.00000000  0.50000000
   0.00933959  0.87504969  0.60523213
   0.75693306  0.00002944  0.61196631
   0.74979919  0.87439829  0.72217029
   0.00050891  0.99985066  0.71006396
   0.75000000  0.12500000  0.28512531
   0.00000000  0.25000000  0.28512531
   0.00000000  0.12500000  0.39256265
   0.75000000  0.25000000  0.39256265
   0.75000000  0.12500000  0.50000000
   0.00000000  0.25000000  0.50000000
   0.00934631  0.12490645  0.60523635
   0.75738621  0.24983197  0.61162001
   0.74972900  0.12379691  0.72219697
   0.00035343  0.24932444  0.71007720
   0.75000000  0.37500000  0.28512531
   0.00000000  0.50000000  0.28512531
   0.00000000  0.37500000  0.39256265
   0.75000000  0.50000000  0.39256265
   0.75000000  0.37500000  0.50000000
   0.00000000  0.50000000  0.50000000
   0.00928225  0.37491413  0.60518644
   0.75780006  0.50001786  0.61175103
   0.75110878  0.37312526  0.72128789
   0.99995366  0.49991156  0.70999601
   0.25000000  0.62500000  0.28512531
   0.50000000  0.75000000  0.28512531
   0.50000000  0.62500000  0.39256265
   0.25000000  0.75000000  0.39256265
   0.25000000  0.62500000  0.50000000
   0.50000000  0.75000000  0.50000000
   0.50966805  0.62270306  0.60647847
   0.25745729  0.74993095  0.61183813
   0.24904198  0.62520980  0.72191132
   0.50155620  0.75006266  0.70880983
   0.25000000  0.87500000  0.28512531
   0.50000000  0.00000000  0.28512531
   0.50000000  0.87500000  0.39256265
   0.25000000  0.00000000  0.39256265
   0.25000000  0.87500000  0.50000000
   0.50000000  0.00000000  0.50000000
   0.50936157  0.87404372  0.60420482
   0.25726468  0.99999108  0.61200303
   0.25134651  0.87491241  0.72225411
   0.49920441  0.99986954  0.70911324
   0.25000000  0.12500000  0.28512531
   0.50000000  0.25000000  0.28512531
   0.50000000  0.12500000  0.39256265
   0.25000000  0.25000000  0.39256265
   0.25000000  0.12500000  0.50000000
   0.50000000  0.25000000  0.50000000
   0.50929309  0.12614757  0.60433798
   0.25733178  0.25004994  0.61195640
   0.25126719  0.12485838  0.72223233
   0.50139939  0.24966593  0.70921425
   0.25000000  0.37500000  0.28512531
   0.50000000  0.50000000  0.28512531
   0.50000000  0.37500000  0.39256265
   0.25000000  0.50000000  0.39256265
   0.25000000  0.37500000  0.50000000
   0.50000000  0.50000000  0.50000000
   0.50960455  0.37731212  0.60664905
   0.25715016  0.49996823  0.61197976
   0.24953111  0.37473201  0.72210897
   0.49875733  0.49945457  0.71404323
   0.75000000  0.75000000  0.24322118
   0.75000000  0.75000000  0.32702943
   0.09750829  0.62500000  0.28512531
   0.90249171  0.62500000  0.28512531
   0.00000000  0.75000000  0.35065853
   0.00000000  0.75000000  0.43446678
   0.84750829  0.62500000  0.39256265
   0.15249171  0.62500000  0.39256265
   0.75000000  0.75000000  0.45809587
   0.75000000  0.75000000  0.54190413
   0.09750829  0.62500000  0.50000000
   0.90249171  0.62500000  0.50000000
   0.00046519  0.75010123  0.56637826
   0.99988675  0.74987096  0.65064204
   0.84955913  0.62526274  0.60788729
   0.15012779  0.62514659  0.60808546
   0.75313940  0.75084270  0.67300268
   0.74915117  0.74896355  0.75729758
   0.09402139  0.62485338  0.72089620
   0.90662964  0.62433504  0.72144600
   0.75000000  0.00000000  0.24322118
   0.75000000  0.00000000  0.32702943
   0.09750829  0.87500000  0.28512531
   0.90249171  0.87500000  0.28512531
   0.00000000  0.00000000  0.35065853
   0.00000000  0.00000000  0.43446678
   0.84750829  0.87500000  0.39256265
   0.15249171  0.87500000  0.39256265
   0.75000000  0.00000000  0.45809587
   0.75000000  0.00000000  0.54190413
   0.09750829  0.87500000  0.50000000
   0.90249171  0.87500000  0.50000000
   0.00048537  0.99999507  0.56639387
   0.00018215  0.99992286  0.65063876
   0.84934604  0.87543427  0.60811819
   0.15015426  0.87494241  0.60818663
   0.75113265  0.00018238  0.67327980
   0.75015819  0.99953305  0.75756084
   0.09407275  0.87451004  0.72065173
   0.90676502  0.87485045  0.72116190
   0.75000000  0.25000000  0.24322118
   0.75000000  0.25000000  0.32702943
   0.09750829  0.12500000  0.28512531
   0.90249171  0.12500000  0.28512531
   0.00000000  0.25000000  0.35065853
   0.00000000  0.25000000  0.43446678
   0.84750829  0.12500000  0.39256265
   0.15249171  0.12500000  0.39256265
   0.75000000  0.25000000  0.45809587
   0.75000000  0.25000000  0.54190413
   0.09750829  0.12500000  0.50000000
   0.90249171  0.12500000  0.50000000
   0.00046341  0.24986906  0.56639675
   0.00009749  0.25005051  0.65066859
   0.84932511  0.12478788  0.60820681
   0.15014114  0.12489213  0.60815154
   0.75252258  0.24985415  0.67303059
   0.74957805  0.25018095  0.75724945
   0.09403944  0.12508240  0.72071759
   0.90675954  0.12485346  0.72103970
   0.75000000  0.50000000  0.24322118
   0.75000000  0.50000000  0.32702943
   0.09750829  0.37500000  0.28512531
   0.90249171  0.37500000  0.28512531
   0.00000000  0.50000000  0.35065853
   0.00000000  0.50000000  0.43446678
   0.84750829  0.37500000  0.39256265
   0.15249171  0.37500000  0.39256265
   0.75000000  0.50000000  0.45809587
   0.75000000  0.50000000  0.54190413
   0.09750829  0.37500000  0.50000000
   0.90249171  0.37500000  0.50000000
   0.00051588  0.49996245  0.56636937
   0.99997220  0.49996813  0.65059367
   0.84955711  0.37472037  0.60792438
   0.15014383  0.37492424  0.60807817
   0.75423395  0.50017760  0.67289144
   0.74242745  0.49952920  0.75727644
   0.09397335  0.37503862  0.72090713
   0.90660421  0.37529677  0.72142221
   0.25000000  0.75000000  0.24322118
   0.25000000  0.75000000  0.32702943
   0.59750829  0.62500000  0.28512531
   0.40249171  0.62500000  0.28512531
   0.50000000  0.75000000  0.35065853
   0.50000000  0.75000000  0.43446678
   0.34750829  0.62500000  0.39256265
   0.65249171  0.62500000  0.39256265
   0.25000000  0.75000000  0.45809587
   0.25000000  0.75000000  0.54190413
   0.59750829  0.62500000  0.50000000
   0.40249171  0.62500000  0.50000000
   0.50066312  0.74903156  0.56620734
   0.49878747  0.75128350  0.64963292
   0.34872838  0.62496127  0.60829961
   0.65098888  0.62518337  0.60852418
   0.25089462  0.74972860  0.67316436
   0.25082878  0.74959606  0.75751073
   0.59639035  0.62932886  0.71685721
   0.40743699  0.62573854  0.72083405
   0.25000000  0.00000000  0.24322118
   0.25000000  0.00000000  0.32702943
   0.59750829  0.87500000  0.28512531
   0.40249171  0.87500000  0.28512531
   0.50000000  0.00000000  0.35065853
   0.50000000  0.00000000  0.43446678
   0.34750829  0.87500000  0.39256265
   0.65249171  0.87500000  0.39256265
   0.25000000  0.00000000  0.45809587
   0.25000000  0.00000000  0.54190413
   0.59750829  0.87500000  0.50000000
   0.40249171  0.87500000  0.50000000
   0.50023874  0.00012553  0.56590922
   0.50002514  0.99992255  0.64994356
   0.34885025  0.87507807  0.60803299
   0.65070139  0.87499479  0.60799625
   0.25073253  0.99984766  0.67317019
   0.24997530  0.99984795  0.75748688
   0.59426655  0.87495390  0.72020568
   0.40657812  0.87560435  0.72059568
   0.25000000  0.25000000  0.24322118
   0.25000000  0.25000000  0.32702943
   0.59750829  0.12500000  0.28512531
   0.40249171  0.12500000  0.28512531
   0.50000000  0.25000000  0.35065853
   0.50000000  0.25000000  0.43446678
   0.34750829  0.12500000  0.39256265
   0.65249171  0.12500000  0.39256265
   0.25000000  0.25000000  0.45809587
   0.25000000  0.25000000  0.54190413
   0.59750829  0.12500000  0.50000000
   0.40249171  0.12500000  0.50000000
   0.50058640  0.25108080  0.56632399
   0.49958210  0.24866024  0.64993564
   0.34890898  0.12493834  0.60811497
   0.65074580  0.12509084  0.60796014
   0.25022299  0.24981708  0.67313630
   0.25059788  0.25012540  0.75743822
   0.59427613  0.12447458  0.72027158
   0.40649809  0.12432400  0.72054112
   0.25000000  0.50000000  0.24322118
   0.25000000  0.50000000  0.32702943
   0.59750829  0.37500000  0.28512531
   0.40249171  0.37500000  0.28512531
   0.50000000  0.50000000  0.35065853
   0.50000000  0.50000000  0.43446678
   0.34750829  0.37500000  0.39256265
   0.65249171  0.37500000  0.39256265
   0.25000000  0.50000000  0.45809587
   0.25000000  0.50000000  0.54190413
   0.59750829  0.37500000  0.50000000
   0.40249171  0.37500000  0.50000000
   0.50074637  0.49989263  0.56661557
   0.50013573  0.50024651  0.65118146
   0.34880366  0.37496231  0.60845888
   0.65095135  0.37506266  0.60853203
   0.24990887  0.50024397  0.67309718
   0.25202858  0.50011499  0.75732605
   0.59581225  0.37155075  0.71767069
   0.40642849  0.37369796  0.71963216

 position of ions in cartesian coordinates  (Angst):
   6.59616772  6.97833348 25.17521446
   7.02144874  5.94474444 24.22282280
   5.51297192  7.06484978 25.08163307
   8.00255937  5.85914676 24.26668006
   6.86870468  6.65701327 26.18532173
   7.08581024  7.93409771 24.94457725
   9.93885616  7.48840964  8.79216110
   0.00000000  8.98609157  8.79216110
   0.00000000  7.48840964 12.10511315
   9.93885616  8.98609157 12.10511315
   9.93885616  7.48840964 15.41806521
   0.00000000  8.98609157 15.41806521
   0.12325763  7.48894934 18.66080844
  10.03853027  8.98850464 18.86148066
   9.94383589  7.48800395 22.24184117
  13.25120064  8.99092251 21.89525434
   9.93885616 10.48377350  8.79216110
   0.00000000  0.00000000  8.79216110
   0.00000000 10.48377350 12.10511315
   9.93885616  0.00000000 12.10511315
   9.93885616 10.48377350 15.41806521
   0.00000000  0.00000000 15.41806521
   0.12376651 10.48436881 18.66301698
  10.03073177  0.00035271 18.87067298
   9.93619507 10.47656408 22.26893724
   0.00674404 11.97966608 21.89562489
   9.93885616  1.49768193  8.79216110
   0.00000000  2.99536386  8.79216110
   0.00000000  1.49768193 12.10511315
   9.93885616  2.99536386 12.10511315
   9.93885616  1.49768193 15.41806521
   0.00000000  2.99536386 15.41806521
   0.12385551  1.49656111 18.66314716
  10.03673684  2.99335057 18.85999436
   9.93526489  1.48326716 22.26975988
   0.00468358  2.98726964 21.89603300
   9.93885616  4.49304579  8.79216110
   0.00000000  5.99072771  8.79216110
   0.00000000  4.49304579 12.10511315
   9.93885616  5.99072771 12.10511315
   9.93885616  4.49304579 15.41806521
   0.00000000  5.99072771 15.41806521
   0.12300654  4.49201691 18.66160790
  10.04222107  5.99094169 18.86403455
   9.95354951  4.47058366 22.24172753
  13.25119412  5.98966808 21.89352950
   3.31295205  7.48840964  8.79216110
   6.62590411  8.98609157  8.79216110
   6.62590411  7.48840964 12.10511315
   3.31295205  8.98609157 12.10511315
   3.31295205  7.48840964 15.41806521
   6.62590411  8.98609157 15.41806521
   6.75402330  7.46088896 18.70144917
   3.41177466  8.98526423 18.86672050
   3.30025659  7.49092339 22.26095164
   6.64652651  8.98684232 21.85695246
   3.31295205 10.48377350  8.79216110
   6.62590411  0.00000000  8.79216110
   6.62590411 10.48377350 12.10511315
   3.31295205  0.00000000 12.10511315
   3.31295205 10.48377350 15.41806521
   6.62590411  0.00000000 15.41806521
   6.74996184 10.47231591 18.63133849
   3.40922222 11.98134860 18.87180530
   3.33079575 10.48272409 22.27152201
   6.61536113 11.97989229 21.86630836
   3.31295205  1.49768193  8.79216110
   6.62590411  2.99536386  8.79216110
   6.62590411  1.49768193 12.10511315
   3.31295205  2.99536386 12.10511315
   3.31295205  1.49768193 15.41806521
   6.62590411  2.99536386 15.41806521
   6.74905440  1.51143153 18.63544472
   3.41011141  2.99596221 18.87036723
   3.32974458  1.49598513 22.27085043
   6.64444859  2.99136116 21.86942311
[...]
      9.93526      1.48327     22.26976        -0.000582      0.001927     -0.008648
      0.00468      2.98727     21.89603         0.006814     -0.008558     -0.323583
      9.93886      4.49305      8.79216        -0.002109     -0.000259     -3.432416
      0.00000      5.99073      8.79216         0.001049     -0.000097      3.338182
      0.00000      4.49305     12.10511         0.003258      0.000141      0.497107
      9.93886      5.99073     12.10511        -0.006431      0.000406     -0.731617
      9.93886      4.49305     15.41807        -0.026309      0.013762      0.649313
      0.00000      5.99073     15.41807        -0.013012     -0.000657     -0.743222
      0.12301      4.49202     18.66161         0.020821      0.002704     -0.008843
     10.04222      5.99094     18.86403        -0.027781     -0.000768      0.055282
      9.95355      4.47058     22.24173        -0.046643     -0.034880     -0.018493
     13.25119      5.98967     21.89353         0.001853     -0.001542     -0.319250
      3.31295      7.48841      8.79216         0.002749      0.000070     -3.431078
      6.62590      8.98609      8.79216        -0.000379      0.000435      3.344652
      6.62590      7.48841     12.10511        -0.003000      0.010068      0.518844
      3.31295      8.98609     12.10511         0.008204      0.000832     -0.721937
      3.31295      7.48841     15.41807         0.049965     -0.014180      0.682735
      6.62590      8.98609     15.41807        -0.027629     -0.041816     -0.606422
      6.75402      7.46089     18.70145         0.018253      0.005695      0.004664
      3.41177      8.98526     18.86672        -0.025301     -0.004083      0.049827
      3.30026      7.49092     22.26095         0.023836      0.001937      0.007225
      6.64653      8.98684     21.85695         0.024456     -0.036616     -0.257725
      3.31295     10.48377      8.79216         0.002789      0.000461     -3.431365
      6.62590      0.00000      8.79216        -0.000409      0.000031      3.344763
      6.62590     10.48377     12.10511        -0.003206      0.000766      0.522049
      3.31295      0.00000     12.10511         0.008662      0.000131     -0.720620
      3.31295     10.48377     15.41807         0.044663      0.018478      0.684658
      6.62590      0.00000     15.41807        -0.035883      0.001412     -0.766578
      6.74996     10.47232     18.63134         0.015830     -0.005117      0.020542
      3.40922     11.98135     18.87181        -0.023836      0.000702      0.049949
      3.33080     10.48272     22.27152         0.013921      0.005245     -0.002751
      6.61536     11.97989     21.86631        -0.011236      0.004297     -0.291120
      3.31295      1.49768      8.79216         0.002902     -0.000016     -3.431243
      6.62590      2.99536      8.79216        -0.000412     -0.000444      3.344236
      6.62590      1.49768     12.10511        -0.003520     -0.003094      0.520804
      3.31295      2.99536     12.10511         0.007993     -0.000832     -0.719733
      3.31295      1.49768     15.41807         0.044340     -0.003365      0.695047
      6.62590      2.99536     15.41807        -0.031022      0.043370     -0.596824
      6.74905      1.51143     18.63544         0.018915      0.006659      0.020154
      3.41011      2.99596     18.87037        -0.024427     -0.000976      0.053294
      3.32974      1.49599     22.27085         0.011371      0.001765     -0.002726
      6.64445      2.99136     21.86942         0.011531      0.029865     -0.295648
      3.31295      4.49305      8.79216         0.002713     -0.000379     -3.431520
      6.62590      5.99073      8.79216        -0.000453     -0.000034      3.344113
      6.62590      4.49305     12.10511        -0.003320     -0.007761      0.517587
      3.31295      5.99073     12.10511         0.007518     -0.000111     -0.720654
      3.31295      4.49305     15.41807         0.049888     -0.000853      0.692559
      6.62590      5.99073     15.41807        -0.025240     -0.002330     -0.650844
      6.75318      4.52075     18.70671         0.014390     -0.010089      0.001651
      3.40770      5.99035     18.87109        -0.020005      0.002903      0.054632
      3.30674      4.48983     22.26705         0.025370     -0.011159     -0.002656
      6.60944      5.98419     22.01833         0.040644      0.001188     -0.025421
      9.93886      8.98609      7.50000         0.000815     -0.000219      2.748188
      9.93886      8.98609     10.08432         0.001267     -0.000258      1.551918
      1.29216      7.48841      8.79216        -1.944936     -0.000031     -0.748866
     11.95965      7.48841      8.79216         1.944436     -0.000048     -0.748855
      0.00000      8.98609     10.81295        -0.000120     -0.000064     -1.095533
      0.00000      8.98609     13.39727         0.001057     -0.000087     -0.240042
     11.23102      7.48841     12.10511         0.280796     -0.000379      0.058056
      2.02079      7.48841     12.10511        -0.283790      0.000041      0.056852
      9.93886      8.98609     14.12590         0.000527     -0.003532      0.043200
      9.93886      8.98609     16.71023         0.030763      0.001912     -0.258147
      1.29216      7.48841     15.41807        -0.635266      0.001266      0.108963
     11.95965      7.48841     15.41807         0.629029     -0.000023      0.114592
      0.00616      8.98730     17.46491         0.045343      0.001246      0.159870
     13.25031      8.98455     20.06328         0.037103      0.002763     -0.056021
     11.25819      7.49156     18.74489        -0.166228      0.000674      0.036299
      1.98946      7.49017     18.75100         0.045970     -0.000389      0.017628
      9.98046      8.99619     20.75280         0.004798     -0.008987      0.004056
      9.92761      8.97367     23.35213         0.011882      0.007312     -0.726593
      1.24595      7.48665     22.22965        -0.185645      0.000384     -0.176202
     12.01448      7.48044     22.24660         0.183299     -0.002308     -0.190672
      9.93886      0.00000      7.50000         0.000843      0.000026      2.748619
      9.93886      0.00000     10.08432         0.001340      0.000066      1.551750
      1.29216     10.48377      8.79216        -1.944995     -0.000062     -0.748728
     11.95965     10.48377      8.79216         1.944531     -0.000052     -0.748728
      0.00000      0.00000     10.81295        -0.000112      0.000039     -1.095439
      0.00000      0.00000     13.39727         0.000963      0.000081     -0.239086
     11.23102     10.48377     12.10511         0.280953     -0.000149      0.057977
      2.02079     10.48377     12.10511        -0.283858     -0.000386      0.056880
      9.93886      0.00000     14.12590         0.000558      0.002241      0.041487
      9.93886      0.00000     16.71023         0.022484      0.004827     -0.284694
      1.29216     10.48377     15.41807        -0.634737     -0.000252      0.107417
     11.95965     10.48377     15.41807         0.631463     -0.000788      0.112184
      0.00643     11.98140     17.46540         0.045876     -0.000209      0.158492
      0.00241     11.98053     20.06318         0.035715      0.000044     -0.059942
     11.25537     10.48898     18.75201        -0.170572     -0.004604      0.034204
      1.98982     10.48308     18.75412         0.047715      0.000941      0.017035
      9.95387      0.00219     20.76134         0.013139      0.001673      0.000033
      9.94095     11.97586     23.36024        -0.000321     -0.001327     -0.727829
      1.24663     10.47790     22.22211        -0.203065     -0.000648     -0.173699
     12.01628     10.48198     22.23784         0.196771     -0.006370     -0.186156
      9.93886      2.99536      7.50000         0.000783      0.000299      2.748383
      9.93886      2.99536     10.08432         0.001215      0.000294      1.552367
      1.29216      1.49768      8.79216        -1.945059      0.000109     -0.748773
     11.95965      1.49768      8.79216         1.944536      0.000080     -0.748720
      0.00000      2.99536     10.81295        -0.000145      0.000091     -1.095401
      0.00000      2.99536     13.39727         0.000807      0.000005     -0.238868
     11.23102      1.49768     12.10511         0.280875      0.000531      0.058010
      2.02079      1.49768     12.10511        -0.284065      0.000069      0.056784
      9.93886      2.99536     14.12590         0.000586      0.003687      0.045962
      9.93886      2.99536     16.71023         0.029247      0.003856     -0.245444
      1.29216      1.49768     15.41807        -0.637730      0.000037      0.106889
     11.95965      1.49768     15.41807         0.629719      0.001785      0.113199
      0.00614      2.99379     17.46548         0.044752     -0.001089      0.158485
      0.00129      2.99597     20.06410         0.035848     -0.004332     -0.057232
     11.25509      1.49514     18.75474        -0.171437      0.003262      0.029780
      1.98964      1.49639     18.75304         0.047041     -0.001150      0.016930
      9.97228      2.99362     20.75366         0.009523      0.016363      0.003582
      9.93326      2.99753     23.35064         0.013659     -0.002789     -0.730709
      1.24619      1.49867     22.22414        -0.201800     -0.000248     -0.174729
     12.01620      1.49593     22.23407         0.199676     -0.000984     -0.181439
      9.93886      5.99073      7.50000         0.000794      0.000021      2.747735
      9.93886      5.99073     10.08432         0.001241     -0.000020      1.552113
      1.29216      4.49305      8.79216        -1.944979      0.000054     -0.748897
     11.95965      4.49305      8.79216         1.944459      0.000082     -0.748805
      0.00000      5.99073     10.81295        -0.000131     -0.000024     -1.095483
      0.00000      5.99073     13.39727         0.000918     -0.000083     -0.240028
     11.23102      4.49305     12.10511         0.280702      0.000067      0.058128
      2.02079      4.49305     12.10511        -0.283976      0.000290      0.056752
      9.93886      5.99073     14.12590         0.002367     -0.001734      0.045473
      9.93886      5.99073     16.71023         0.024560     -0.000775     -0.262951
      1.29216      4.49305     15.41807        -0.638256     -0.001738      0.108227
     11.95965      4.49305     15.41807         0.627463     -0.001611      0.115045
      0.00684      5.99028     17.46464         0.044798      0.000252      0.160433
     13.25144      5.99035     20.06179         0.037327      0.000027     -0.053909
     11.25817      4.48970     18.74604        -0.168184      0.004294      0.034115
      1.98968      4.49214     18.75078         0.049963     -0.000301      0.019597
      9.99496      5.99286     20.74937         0.008141      0.003314     -0.000695
      9.83851      5.98509     23.35148        -0.019328     -0.000854     -0.649495
      1.24532      4.49351     22.22999        -0.188686      0.000387     -0.175990
     12.01415      4.49660     22.24587         0.182151      0.002425     -0.189515
      3.31295      8.98609      7.50000        -0.000213     -0.000207      2.747947
      3.31295      8.98609     10.08432        -0.000935     -0.000211      1.549855
      7.91807      7.48841      8.79216        -1.941550     -0.000222     -0.749833
      5.33374      7.48841      8.79216         1.943173     -0.000258     -0.749865
      6.62590      8.98609     10.81295         0.000745     -0.001669     -1.108451
      6.62590      8.98609     13.39727         0.003131     -0.002441     -0.289283
      4.60511      7.48841     12.10511         0.272979     -0.000444      0.055301
      8.64670      7.48841     12.10511        -0.269274     -0.000865      0.056622
      3.31295      8.98609     14.12590        -0.009876     -0.001139      0.032050
      3.31295      8.98609     16.71023         0.006863     -0.002077     -0.256936
      7.91807      7.48841     15.41807        -0.585252     -0.025181      0.084666
      5.33374      7.48841     15.41807         0.607909     -0.025186      0.094391
      6.63469      8.97449     17.45964         0.043365      0.020601      0.152768
      6.60984      9.00147     20.03217         0.052099     -0.011391     -0.061559
      4.62128      7.48795     18.75761        -0.176723     -0.003481      0.034753
      8.62678      7.49061     18.76453         0.057389     -0.004446      0.017849
      3.32481      8.98284     20.75778         0.018658     -0.002790     -0.001005
      3.32393      8.98125     23.35870        -0.005603      0.000353     -0.727067
      7.90325      7.54028     22.10510        -0.187192      0.016531     -0.047875
      5.39928      7.49726     22.22773         0.206777     -0.013064     -0.126035
      3.31295      0.00000      7.50000        -0.000301     -0.000142      2.748129
      3.31295      0.00000     10.08432        -0.001014     -0.000098      1.549339
      7.91807     10.48377      8.79216        -1.941594     -0.000147     -0.749611
      5.33374     10.48377      8.79216         1.943200     -0.000140     -0.749703
      6.62590      0.00000     10.81295         0.000773      0.000360     -1.108679
      6.62590      0.00000     13.39727         0.002696      0.000696     -0.289716
      4.60511     10.48377     12.10511         0.271505     -0.000353      0.055165
      8.64670     10.48377     12.10511        -0.267968     -0.000095      0.056497
      3.31295      0.00000     14.12590        -0.009811     -0.002663      0.029084
      3.31295      0.00000     16.71023         0.002457     -0.002394     -0.282074
      7.91807     10.48377     15.41807        -0.584680      0.003460      0.098172
      5.33374     10.48377     15.41807         0.602318     -0.001640      0.097795
      6.62907      0.00150     17.45045         0.050207     -0.000985      0.147332
      6.62624     11.98053     20.04174         0.032827      0.000355     -0.043062
      4.62290     10.48471     18.74938        -0.175741     -0.002612      0.029130
      8.62297     10.48371     18.74825         0.057931     -0.000788      0.012849
      3.32266     11.97963     20.75796         0.024489      0.001855     -0.012918
      3.31262     11.97963     23.35796         0.009317     -0.000862     -0.724138
      7.87511     10.48322     22.20836        -0.178115     -0.007041     -0.177363
      5.38790     10.49101     22.22038         0.183731      0.014269     -0.186478
      3.31295      2.99536      7.50000        -0.000282      0.000251      2.748000
      3.31295      2.99536     10.08432        -0.000934      0.000198      1.549352
      7.91807      1.49768      8.79216        -1.941608      0.000219     -0.749606
      5.33374      1.49768      8.79216         1.943216      0.000191     -0.749655
      6.62590      2.99536     10.81295         0.000760      0.001663     -1.107362
      6.62590      2.99536     13.39727         0.003156      0.002579     -0.281624
      4.60511      1.49768     12.10511         0.272027      0.000157      0.055136
      8.64670      1.49768     12.10511        -0.268229      0.000523      0.056628
      3.31295      2.99536     14.12590        -0.009983      0.001075      0.027482
      3.31295      2.99536     16.71023         0.006845      0.001857     -0.267837
      7.91807      1.49768     15.41807        -0.585079      0.003483      0.099328
      5.33374      1.49768     15.41807         0.606426      0.006150      0.097348
      6.63367      3.00831     17.46324         0.044470     -0.024034      0.156975
      6.62037      2.97931     20.04150         0.047175      0.008471     -0.063183
      4.62367      1.49694     18.75191        -0.175158      0.002874      0.033276
      8.62356      1.49877     18.74714         0.054520      0.000106      0.015433
      3.31591      2.99317     20.75692         0.022937      0.003175     -0.006485
      3.32088      2.99687     23.35646        -0.006946     -0.003138     -0.728628
      7.87523      1.49139     22.21039        -0.179929      0.004612     -0.180066
      5.38683      1.48958     22.21870         0.186488     -0.012811     -0.186322
      3.31295      5.99073      7.50000        -0.000238      0.000090      2.747576
      3.31295      5.99073     10.08432        -0.000898      0.000139      1.549511
      7.91807      4.49305      8.79216        -1.941556      0.000220     -0.749783
      5.33374      4.49305      8.79216         1.943228      0.000262     -0.749741
      6.62590      5.99073     10.81295         0.000725     -0.000304     -1.106178
      6.62590      5.99073     13.39727         0.002985     -0.000548     -0.252479
      4.60511      4.49305     12.10511         0.273490      0.000660      0.055402
      8.64670      4.49305     12.10511        -0.269469      0.000482      0.056818
      3.31295      5.99073     14.12590        -0.010951      0.002663      0.029027
      3.31295      5.99073     16.71023         0.007939      0.000101     -0.269087
      7.91807      4.49305     15.41807        -0.584955      0.019920      0.084630
      5.33374      4.49305     15.41807         0.611373      0.022168      0.092954
      6.63579      5.98944     17.47223         0.045169      0.002135      0.176346
      6.62770      5.99368     20.07992         0.041555     -0.003032     -0.127371
      4.62228      4.49259     18.76252        -0.181900      0.004848      0.036330
      8.62628      4.49380     18.76477         0.059213      0.003398      0.017880
      3.31174      5.99365     20.75571         0.015141      0.002393     -0.003542
      3.33983      5.99211     23.35300        -0.017153      0.004439     -0.709604
      7.89559      4.45172     22.13019        -0.196527     -0.000780     -0.052100
      5.38591      4.47745     22.19067         0.207828      0.010296     -0.128179
 -----------------------------------------------------------------------------------
    total drift:                               -0.070671     -0.002125     -0.350567


--------------------------------------------------------------------------------------------------------



  FREE ENERGIE OF THE ION-ELECTRON SYSTEM (eV)
  ---------------------------------------------------
  free  energy   TOTEN  =     -2737.99077997 eV

  energy  without entropy=    -2737.99077997  energy(sigma->0) =    -2737.99077997



--------------------------------------------------------------------------------------------------------


    POTLOK:  cpu time      1.7711: real time      1.7719


--------------------------------------------------------------------------------------------------------


     LOOP+:  cpu time   1750.7092: real time   1751.8766
    4ORBIT:  cpu time      0.0000: real time      0.0000

 total amount of memory used by VASP MPI-rank0   196677. kBytes
=======================================================================

   base      :      30000. kBytes
   nonl-proj :      69795. kBytes
   fftplans  :       7952. kBytes
   grid      :      20582. kBytes
   one-center:        248. kBytes
   wavefun   :      68100. kBytes

  
  
 General timing and accounting informations for this job:
 ========================================================
  
                  Total CPU time used (sec):     1837.523
                            User time (sec):     1825.195
                          System time (sec):       12.328
                         Elapsed time (sec):     1852.498
  
                   Maximum memory used (kb):      621560.
                   Average memory used (kb):          N/A
  
                          Minor page faults:      1070976
                          Major page faults:          741
                 Voluntary context switches:        10955
