 **********************************************************************
                          MRCC program system
 **********************************************************************
 
                              Written by
     Mihaly Kallay, Peter R. Nagy, David Mester, Laszlo Gyevi-Nagy,
        Jozsef Csoka, P. Bernat Szabo, Zoltan Rolik, Gyula Samu,
     Jozsef Csontos, Bence Hegely, Adam Ganyecz, Istvan Ladjanszki,
       Lorant Szegedy, Bence Ladoczki, Klara Petrov, Mate Farkas,
                    Pal D. Mezei, and Reka A. Horvath
 
        Department of Physical Chemistry and Materials Science
            Budapest University of Technology and Economics
                  Budapest P.O.Box 91, H-1521 Hungary
 
                              www.mrcc.hu
 
                      Release date: March 18, 2022

 ************************ 2023-02-05 13:12:26 *************************
 Executing minp...

 Reading input from MINP...
 
 Input file:
 
calc=FNO-CCSD(T)
verbosity=3
mem=220GB
unit=angs
scfiguess=small
scfalg=locfit1
ccmaxit=400
ccsdalg=dfdirect
ccsdthreads=4
ccsdmkl=thr
ptthreads=4
lnoepsv=1e-5
naf_cor=1e-2
basis=aug-cc-pVQZ
basis_sm=def2-SVP
dfbasis_scf=def2-QZVPP-RI-JK
dfbasis_cor=aug-cc-pVQZ-RI
unit=angs
geom=xyz
16

C    34.41670262    34.07107264    10.41543014
C    33.11117461    33.45680459    10.91530835
H    34.24160149    35.00442132     9.86225048
H    34.94674030    33.36940783     9.75379242
H    35.10002891    34.30603621    11.24227357
H    32.42643037    33.26105434    10.07939442
H    32.59136835    34.12756100    11.61262818
H    33.28915165    32.50678735    11.43686767
C    34.41672034    46.73257559    10.41548088
C    33.11116301    46.11828004    10.91529140
H    34.24151778    47.66601471     9.86250154
H    34.94669279    46.03070320     9.75399090
H    35.10030311    46.96765980    11.24209422
H    32.42628860    45.92238203    10.07951373
H    32.59132561    46.78921263    11.61243196
H    33.28922462    45.16817730    11.43663402

--------------------Output has been truncated-------------------------


--------------------Output has been truncated-------------------------


--------------------Output has been truncated-------------------------


--------------------Output has been truncated-------------------------


--------------------Output has been truncated-------------------------


--------------------Output has been truncated-------------------------


--------------------Output has been truncated-------------------------


--------------------Output has been truncated-------------------------


--------------------Output has been truncated-------------------------


--------------------Output has been truncated-------------------------


 
 Reference energy [au]:                       -79.264434739332
 DF-MP2 singlet pair energy [au]:              -0.317722606108
 DF-MP2 triplet pair energy [au]:              -0.076906313842
 DF-SCS-MP2 correlation energy [au]:           -0.406902565277
 DF-SCS-MP2 energy [au]:                      -79.671337304609
 DF-SOS-MP2 correlation energy [au]:           -0.413039387941
 DF-SOS-MP2 energy [au]:                      -79.677474127273
 DF-MP2 correlation energy [au]:               -0.394628919950
 DF-MP2 energy [au]:                          -79.659063659282

 Results in FNO basis:
 
 
 Reference energy [au]:                       -79.264434739332
 DF-MP2 singlet pair energy [au]:              -0.312548992119
 DF-MP2 triplet pair energy [au]:              -0.076620429803
 DF-SCS-MP2 correlation energy [au]:           -0.400598933811
 DF-SCS-MP2 energy [au]:                      -79.665033673143
 DF-SOS-MP2 correlation energy [au]:           -0.406313689755
 DF-SOS-MP2 energy [au]:                      -79.670748429087
 DF-MP2 correlation energy [au]:               -0.389169421922
 DF-MP2 energy [au]:                          -79.653604161254

 Results in NAF basis:
 
 
 Reference energy [au]:                       -79.264434739332
 DF-MP2 singlet pair energy [au]:              -0.312528030618
 DF-MP2 triplet pair energy [au]:              -0.076628435788
 DF-SCS-MP2 correlation energy [au]:           -0.400576448671
 DF-SCS-MP2 energy [au]:                      -79.665011188003
 DF-SOS-MP2 correlation energy [au]:           -0.406286439803
 DF-SOS-MP2 energy [au]:                      -79.670721179135
 DF-MP2 correlation energy [au]:               -0.389156466406
 DF-MP2 energy [au]:                          -79.653591205738

 ************************ 2023-02-05 13:13:59 *************************
 Executing ccsd...

 Allocation of 220.0 Gbytes of memory...

 Direct DF-CCSD(T) calculation
 
 Convergence criterion:  1.0E-06
 
 Number of occupied/virtual/auxiliary orbitals:     7   175   551
    851.32 MB is the minimal memory requirement for (T)
    190.43 MB is the minimal memory requirement for CCSD
 
 Reference energy [au]:             -79.264434739332
 T1 contribution [au]:                0.000000000000
 Same spin MP2 energy [au]:          -0.076624430233
 Opposite spin MP2 energy [au]:      -0.312538506662
 MP2 correlation energy [au]:        -0.389162936895
 Total MP2 energy [au]:             -79.653597676227
 MP2 correction [au]:                -0.005465983055
 
 
 CPU time [min]:     0.401                   Wall time [min]:     0.049
 
 Starting CCSD iterations...
 
                     Residual norm          Energy
 Iteration  1        0.179602556231      -79.671510593164
 Iteration  2        0.044510733323      -79.681092773549
 Iteration  3        0.013089828279      -79.682228562788
 Iteration  4        0.002650304710      -79.682235791466
 Iteration  5        0.000560979311      -79.682241657038
 Iteration  6        0.000156934054      -79.682243707262
 Iteration  7        0.000037096725      -79.682243482111
 Iteration  8        0.000009998907      -79.682243845966
 
 CCSD iteration has converged in  8 steps.
     3804.92 MB memory was utilized by CCSD
 
 T1 diagnostic:      8.231E-03            D1 diagnostic:      1.428E-02
 
 T1 contribution [au]:                                  0.000000000000
 PPL energy contribution [au]:                          0.108935813692
 Scaled PPL energy contribution [au]:                   0.110475552736

 OS-PPL energy contribution [au]:                       0.095542575542
 Scaled OS-PPL energy contribution [au]:                0.097137497733
 SS-PPL energy contribution [au]:                       0.013393238150
 Scaled SS-PPL energy contribution [au]:                0.013441315884

 Opposite spin CCSD energy [au]:                       -0.345140488508
 Same spin CCSD energy [au]:                           -0.072676370794
 CCSD correlation energy [au]:                         -0.417816859302
 CCSD correlation energy + MP2 correction [au]:        -0.423282842357
 CCSD correlation energy + MP2 + PPL corr. [au]:       -0.421743103313
 Total CCSD energy [au]:                              -79.682251598634
 Total CCSD energy + MP2 correction [au]:             -79.687717581689
 Total CCSD energy + MP2 + PPL corr. [au]:            -79.686177842645
 
 CPU time [min]:     6.746                   Wall time [min]:     0.243
 
 Calculation of (T) correction...
 
 
      783.34 MB memory is utilized for (T)

 0%       25%       50%       75%       100%
 |---------|---------|---------|---------| 
 
 (T) correction [au]:                                    -0.014762745946
 (T*) correction [au]:                                   -0.014970095905
 (T+) correction [au]:                                   -0.014966565190
 CCSD(T) correlation energy [au]:                        -0.432579605248
 CCSD(T) correlation energy + MP2 correction [au]:       -0.438045588303
 CCSD(T+) correlation en. + MP2 + PPL corr. [au]:        -0.436709668504
 Total CCSD(T) energy [au]:                             -79.697014344580
 Total CCSD(T) energy + MP2 correction [au]:            -79.702480327635
 Total CCSD(T+) energy + MP2 + PPL corr. [au]:          -79.701144407836
 
 CPU time [min]:     8.468                   Wall time [min]:     0.299
 
 ************************ 2023-02-05 13:14:17 *************************
                      Normal termination of mrcc.
 **********************************************************************
