 vasp.6.3.0 20Jan22 (build Apr  1 2022 16:44:48) complex                         
 executed on        HPECrayEX_GCC date 2022.10.25  00:49:52
 running  512 mpi-ranks, with    1 threads/rank
 distrk:  each k-point on  512 cores,    1 groups
 distr:  one band on NCORE=   8 cores,   64 groups


--------------------------------------------------------------------------------------------------------


 INCAR:
   SYSTEM = MgO-rocksalt
   ISMEAR = 0
   SIGMA = 0.05
   EDIFF = 1E-6
   ALGO = ALL
   ISTART = 0
   IBRION = -1
   NSW = 0
   ISYM = 0
   DIPOL = 0.5 0.5 0.5
   IDIPOL = 3
   LDIPOL = .TRUE.
   GGA = PE
   IVDW = 1
   VDW_C6 = 0.63 0.70
   VDW_R0 = 1.243 1.342
   ENCUT = 600
   PREC = Accurate
   LASPH = .TRUE.
   LREAL = .FALSE.
   ISPIN = 1
   NELM = 200
   NELMIN = 8
   NCORE = 8
   KPAR = 1
   LWAVE = .FALSE.
   LCHARG = .FALSE.

 POTCAR:    PAW_PBE Mg_pv 13Apr2007               
 POTCAR:    PAW_PBE O 08Apr2002                   
 POTCAR:    PAW_PBE Mg_pv 13Apr2007               
   SHA256 =  f474ac0dd33840b9ae76c01d57fea79fdf77cdfbb07d5ade72c65f83c709b62b Mg_pv/POTCAR          
   COPYR  = (c) Copyright 13Apr2007 Georg Kresse                                                    
   COPYR  = This file is part of the software VASP. Any use, copying, and all other rights are regul
   COPYR  = If you do not have a valid VASP license, you may not use, copy or distribute this file. 
   VRHFIN =Mg: p6s2                                                                                 
   LEXCH  = PE                                                                                      
   EATOM  =  1056.7344 eV,   77.6678 Ry                                                             
                                                                                                    
   TITEL  = PAW_PBE Mg_pv 13Apr2007                                                                 
   LULTRA =        F    use ultrasoft PP ?                                                          
   IUNSCR =        1    unscreen: 0-lin 1-nonlin 2-no                                               
   RPACOR =    1.500    partial core radius                                                         
   POMASS =   24.305; ZVAL   =    8.000    mass and valenz                                          
   RCORE  =    2.000    outmost cutoff radius                                                       
   RWIGS  =    2.000; RWIGS  =    1.058    wigner-seitz radius (au A)                               
   ENMAX  =  403.929; ENMIN  =  302.947 eV                                                          
   RCLOC  =    1.506    cutoff for local pot                                                        
   LCOR   =        T    correct aug charges                                                         
   LPAW   =        T    paw PP                                                                      
   EAUG   =  758.780                                                                                
   DEXC   =    0.000                                                                                
   RMAX   =    2.045    core radius for proj-oper                                                   
   RAUG   =    1.300    factor for augmentation sphere                                              
   RDEP   =    2.025    radius for radial grids                                                     
   RDEPT  =    1.557    core radius for aug-charge                                                  
                                                                                                    
   Atomic configuration                                                                             
    5 entries                                                                                       
     n  l   j            E        occ.                                                              
     1  0  0.50     -1259.6230   2.0000                                                             
     2  0  0.50       -79.8442   2.0000                                                             
     2  1  1.50       -46.6121   6.0000                                                             
     3  0  0.50        -4.7055   2.0000                                                             
     3  2  1.50        -1.3606   0.0000                                                             
   Description                                                                                      
     l       E           TYP  RCUT    TYP  RCUT                                                     
     1    -46.6121073     23  1.600                                                                 
     1      2.7211652     23  1.600                                                                 
     0     -4.7054661     23  2.000                                                                 
     0     61.2262170     23  2.000                                                                 
     2     -1.3605826     23  2.000                                                                 
  local pseudopotential read in
  partial core-charges read in
  partial kinetic energy density read in
  atomic valenz-charges read in
  non local Contribution for L=           1  read in
    real space projection operators read in
  non local Contribution for L=           1  read in
    real space projection operators read in
  non local Contribution for L=           0  read in
    real space projection operators read in
  non local Contribution for L=           0  read in
    real space projection operators read in
  non local Contribution for L=           2  read in
    real space projection operators read in
    PAW grid and wavefunctions read in

   number of l-projection  operators is LMAX  =           5
   number of lm-projection operators is LMMAX =          13

 POTCAR:    PAW_PBE O 08Apr2002                   
   SHA256 =  818f92134a0a090dccd8ba1447fa70422a3b330e708bb4f08108d8ae51209ddf O/POTCAR              
   COPYR  = (c) Copyright 08Apr2002 Georg Kresse                                                    
   COPYR  = This file is part of the software VASP. Any use, copying, and all other rights are regul
   COPYR  = If you do not have a valid VASP license, you may not use, copy or distribute this file. 
   VRHFIN =O: s2p4                                                                                  
   LEXCH  = PE                                                                                      
   EATOM  =   432.3788 eV,   31.7789 Ry                                                             
                                                                                                    
   TITEL  = PAW_PBE O 08Apr2002                                                                     
   LULTRA =        F    use ultrasoft PP ?                                                          
   IUNSCR =        1    unscreen: 0-lin 1-nonlin 2-no                                               
   RPACOR =    1.200    partial core radius                                                         
   POMASS =   16.000; ZVAL   =    6.000    mass and valenz                                          
   RCORE  =    1.520    outmost cutoff radius                                                       
   RWIGS  =    1.550; RWIGS  =    0.820    wigner-seitz radius (au A)                               
   ENMAX  =  400.000; ENMIN  =  300.000 eV                                                          
   ICORE  =        2    local potential                                                             
   LCOR   =        T    correct aug charges                                                         
   LPAW   =        T    paw PP                                                                      
   EAUG   =  605.392                                                                                
   DEXC   =    0.000                                                                                
   RMAX   =    1.553    core radius for proj-oper                                                   
   RAUG   =    1.300    factor for augmentation sphere                                              
   RDEP   =    1.550    radius for radial grids                                                     
   RDEPT  =    1.329    core radius for aug-charge                                                  
                                                                                                    
   Atomic configuration                                                                             
    4 entries                                                                                       
     n  l   j            E        occ.                                                              
     1  0  0.50      -514.6923   2.0000                                                             
     2  0  0.50       -23.9615   2.0000                                                             
     2  1  0.50        -9.0305   4.0000                                                             
     3  2  1.50        -9.5241   0.0000                                                             
   Description                                                                                      
     l       E           TYP  RCUT    TYP  RCUT                                                     
     0    -23.9615318     23  1.200                                                                 
     0     -9.5240782     23  1.200                                                                 
     1     -9.0304911     23  1.520                                                                 
     1      8.1634956     23  1.520                                                                 
     2     -9.5240782      7  1.500                                                                 
  local pseudopotential read in
  partial core-charges read in
  partial kinetic energy density read in
  kinetic energy density of atom read in
  atomic valenz-charges read in
  non local Contribution for L=           0  read in
    real space projection operators read in
  non local Contribution for L=           0  read in
    real space projection operators read in
  non local Contribution for L=           1  read in
    real space projection operators read in
  non local Contribution for L=           1  read in
    real space projection operators read in
    PAW grid and wavefunctions read in

   number of l-projection  operators is LMAX  =           4
   number of lm-projection operators is LMMAX =           8

 -----------------------------------------------------------------------------
|                                                                             |
|               ----> ADVICE to this user running VASP <----                  |
|                                                                             |
|     You have a (more or less) 'large supercell' and for larger cells it     |
|     might be more efficient to use real-space projection operators.         |
|     Therefore, try LREAL= Auto in the INCAR file.                           |
|     Mind: For very accurate calculation, you might also keep the            |
|     reciprocal projection scheme (i.e. LREAL=.FALSE.).                      |
|                                                                             |
 -----------------------------------------------------------------------------

  PAW_PBE Mg_pv 13Apr2007               :
 energy of atom  1       EATOM=-1056.7344
 kinetic energy error for atom=    0.0221 (will be added to EATOM!!)
  PAW_PBE O 08Apr2002                   :
 energy of atom  2       EATOM= -432.3788
 kinetic energy error for atom=    0.0168 (will be added to EATOM!!)


 POSCAR: Mg  O
  positions in direct lattice
  No initial velocities read in
 exchange correlation table for  LEXCH =        8
   RHO(1)=    0.500       N(1)  =     2000
   RHO(2)=  100.500       N(2)  =     4000



--------------------------------------------------------------------------------------------------------


 ion  position               nearest neighbor table
   1  0.250  0.000  0.352-  35 2.10  36 2.10  43 2.10  52 2.10  33 2.10
   2  0.500  0.250  0.352-  35 2.10  36 2.10  44 2.10  51 2.10  34 2.10
   3  0.250  0.250  0.451-  33 2.10  34 2.10  41 2.10  50 2.10  35 2.10  39 2.10
   4  0.500  0.000  0.451-  33 2.10  34 2.10  42 2.10  49 2.10  36 2.10  40 2.11
   5  0.250  0.000  0.550-  39 2.10  47 2.10  40 2.10  56 2.10  33 2.11  37 2.13
   6  0.500  0.251  0.550-  48 2.10  39 2.10  55 2.10  40 2.11  34 2.11  38 2.12
   7  0.249  0.250  0.648-  39 2.09  54 2.09  37 2.10  45 2.10  38 2.11
   8  0.500  0.002  0.648-  38 2.06  46 2.08  40 2.09  37 2.11  53 2.11
   9  0.250  0.500  0.352-  35 2.10  43 2.10  44 2.10  60 2.10  41 2.10
  10  0.500  0.750  0.352-  36 2.10  43 2.10  44 2.10  59 2.10  42 2.10
  11  0.250  0.750  0.451-  33 2.10  41 2.10  42 2.10  58 2.10  43 2.10  47 2.11
  12  0.500  0.500  0.451-  34 2.10  41 2.10  42 2.10  57 2.10  44 2.10  48 2.12
  13  0.251  0.500  0.550-  48 2.10  45 2.10  39 2.10  47 2.11  64 2.11  41 2.12
  14  0.500  0.749  0.550-  48 2.09  47 2.09  63 2.10  40 2.11  42 2.12  46 2.17
  15  0.248  0.750  0.647-  47 2.08  62 2.08  37 2.10  45 2.10  46 2.12
  16  0.498  0.493  0.653-  38 2.06  45 2.10  61 2.14  48 2.18  46 2.20
  17  0.750  0.000  0.352-  36 2.10  51 2.10  52 2.10  59 2.10  49 2.10
  18  0.000  0.250  0.352-  35 2.10  51 2.10  52 2.10  60 2.10  50 2.10
  19  0.750  0.250  0.451-  34 2.10  49 2.10  50 2.10  57 2.10  51 2.10  55 2.10
  20  0.000  0.000  0.451-  33 2.10  49 2.10  50 2.10  58 2.10  52 2.10  56 2.10
  21  0.750  0.000  0.550-  55 2.10  40 2.10  56 2.10  63 2.10  49 2.11  53 2.13
  22  0.000  0.250  0.550-  39 2.10  64 2.10  55 2.10  56 2.11  50 2.11  54 2.13
  23  0.751  0.250  0.647-  55 2.08  54 2.09  53 2.10  38 2.11  61 2.11
  24  0.000  0.001  0.647-  56 2.09  37 2.09  54 2.10  53 2.10  62 2.10
  25  0.750  0.500  0.352-  44 2.10  51 2.10  59 2.10  60 2.10  57 2.10
  26  0.000  0.750  0.352-  43 2.10  52 2.10  59 2.10  60 2.10  58 2.10
  27  0.750  0.750  0.451-  42 2.10  49 2.10  57 2.10  58 2.10  59 2.10  63 2.11
  28  0.000  0.500  0.451-  64 2.10  50 2.10  57 2.10  58 2.10  41 2.10  60 2.10
  29  0.749  0.500  0.550-  48 2.09  55 2.10  63 2.10  64 2.11  57 2.12  61 2.13
  30  0.000  0.750  0.549-  64 2.10  56 2.10  47 2.10  58 2.10  63 2.11  62 2.13
  31  0.752  0.751  0.646-  63 2.06  62 2.08  53 2.09  61 2.11  46 2.12
  32  0.000  0.500  0.647-  45 2.08  64 2.09  61 2.09  54 2.10  62 2.11
  33  0.250  0.000  0.451-   3 2.10   4 2.10  11 2.10  20 2.10   1 2.10   5 2.11
  34  0.500  0.250  0.451-   3 2.10   4 2.10  12 2.10  19 2.10   2 2.10   6 2.11
  35  0.250  0.250  0.352-   1 2.10   2 2.10   9 2.10  18 2.10   3 2.10
  36  0.500  0.000  0.352-   1 2.10   2 2.10  10 2.10  17 2.10   4 2.10
  37  0.249  0.000  0.650-  24 2.09   7 2.10  15 2.10   8 2.11   5 2.13
  38  0.500  0.248  0.649-  16 2.06   8 2.06  23 2.11   7 2.11   6 2.12
  39  0.250  0.250  0.549-   7 2.09   5 2.10  22 2.10   6 2.10  13 2.10   3 2.10
  40  0.500  1.000  0.550-   8 2.09  21 2.10   5 2.10  14 2.11   4 2.11   6 2.11
  41  0.250  0.500  0.451-   3 2.10  11 2.10  12 2.10  28 2.10   9 2.10  13 2.12
  42  0.500  0.750  0.451-   4 2.10  11 2.10  12 2.10  27 2.10  10 2.10  14 2.12
  43  0.250  0.750  0.352-   1 2.10   9 2.10  10 2.10  26 2.10  11 2.10
  44  0.500  0.500  0.352-   2 2.10   9 2.10  10 2.10  25 2.10  12 2.10
  45  0.248  0.500  0.649-  32 2.08  13 2.10  15 2.10  16 2.10   7 2.10
  46  0.500  0.755  0.652-   8 2.08  15 2.12  31 2.12  14 2.17  16 2.20
  47  0.251  0.750  0.550-  15 2.08  14 2.09   5 2.10  30 2.10  13 2.11  11 2.11
  48  0.500  0.500  0.550-  14 2.09  29 2.09  13 2.10   6 2.10  12 2.12  16 2.18
  49  0.750  0.000  0.451-   4 2.10  19 2.10  20 2.10  27 2.10  17 2.10  21 2.11
  50  0.000  0.250  0.451-   3 2.10  19 2.10  20 2.10  28 2.10  18 2.10  22 2.11
  51  0.750  0.250  0.352-   2 2.10  17 2.10  18 2.10  25 2.10  19 2.10
  52  0.000  0.000  0.352-   1 2.10  17 2.10  18 2.10  26 2.10  20 2.10
  53  0.751  0.000  0.650-  31 2.09  24 2.10  23 2.10   8 2.11  21 2.13
  54  1.000  0.250  0.650-  23 2.09   7 2.09  24 2.10  32 2.10  22 2.13
  55  0.750  0.250  0.549-  23 2.08  21 2.10  29 2.10  22 2.10   6 2.10  19 2.10
  56  1.000  1.000  0.549-  24 2.09  20 2.10  30 2.10  21 2.10   5 2.10  22 2.11
  57  0.750  0.500  0.451-  12 2.10  19 2.10  27 2.10  28 2.10  25 2.10  29 2.12
  58  0.000  0.750  0.451-  11 2.10  20 2.10  27 2.10  28 2.10  26 2.10  30 2.10
  59  0.750  0.750  0.352-  10 2.10  17 2.10  25 2.10  26 2.10  27 2.10
  60  0.000  0.500  0.352-   9 2.10  18 2.10  25 2.10  26 2.10  28 2.10
  61  0.752  0.500  0.650-  32 2.09  31 2.11  23 2.11  29 2.13  16 2.14
  62  1.000  0.751  0.649-  31 2.08  15 2.08  24 2.10  32 2.11  30 2.13
  63  0.749  0.750  0.550-  31 2.06  14 2.10  21 2.10  29 2.10  27 2.11  30 2.11
  64  1.000  0.500  0.549-  32 2.09  30 2.10  28 2.10  22 2.10  29 2.11  13 2.11


IMPORTANT INFORMATION: All symmetrisations will be switched off!
NOSYMM: (Re-)initialisation of all symmetry stuff for point group C_1.


----------------------------------------------------------------------------------------

                                     Primitive cell                                     

  volume of cell :    1504.9259

  direct lattice vectors                    reciprocal lattice vectors
     8.404861995  0.000000000  0.000000000     0.118978753  0.000000000  0.000000000
     0.000000000  8.404861995  0.000000000     0.000000000  0.118978753  0.000000000
     0.000000000  0.000000000 21.303646496     0.000000000  0.000000000  0.046940321

  length of vectors
     8.404861995  8.404861995 21.303646496     0.118978753  0.118978753  0.046940321

  position of ions in fractional coordinates (direct lattice)
     0.250000000  0.000000000  0.352052406
     0.500000000  0.250000000  0.352052406
     0.250000000  0.250000000  0.450684135
     0.500000000  0.000000000  0.450684135
     0.250100781  0.000269126  0.549693163
     0.499767964  0.250722028  0.549943036
     0.248780719  0.249859178  0.647654469
     0.499644051  0.002169361  0.647543822
     0.250000000  0.500000000  0.352052406
     0.500000000  0.750000000  0.352052406
     0.250000000  0.750000000  0.450684135
     0.500000000  0.500000000  0.450684135
     0.250825431  0.499856880  0.550093419
     0.499703349  0.749065083  0.550105314
     0.247712614  0.750238697  0.647292135
     0.497862510  0.493099251  0.652591733
     0.750000000  0.000000000  0.352052406
     0.000000000  0.250000000  0.352052406
     0.750000000  0.250000000  0.450684135
     0.000000000  0.000000000  0.450684135
     0.749756666  0.000421736  0.549595265
     0.000055387  0.250338647  0.549556917
     0.750867579  0.249547440  0.647330786
     0.000109951  0.000584548  0.647467140
     0.750000000  0.500000000  0.352052406
     0.000000000  0.750000000  0.352052406
     0.750000000  0.750000000  0.450684135
     0.000000000  0.500000000  0.450684135
     0.748860615  0.499805564  0.550186707
     0.000230737  0.749845812  0.549442262
     0.752411791  0.751017633  0.646426807
     0.000452718  0.499726845  0.647293789
     0.250000000  0.000000000  0.450684135
     0.500000000  0.250000000  0.450684135
     0.250000000  0.250000000  0.352052406
     0.500000000  0.000000000  0.352052406
     0.249061600  0.000158790  0.649546787
     0.500025852  0.247760610  0.649432683
     0.249903901  0.249746588  0.549413283
     0.500041591  0.999514371  0.549515177
     0.250000000  0.500000000  0.450684135
     0.500000000  0.750000000  0.450684135
     0.250000000  0.750000000  0.352052406
     0.500000000  0.500000000  0.352052406
     0.248082459  0.500204185  0.648634793
     0.500077240  0.755034517  0.652123690
     0.250523999  0.750362999  0.549615856
     0.500168392  0.500495410  0.550424172
     0.750000000  0.000000000  0.450684135
     0.000000000  0.250000000  0.450684135
     0.750000000  0.250000000  0.352052406
     0.000000000  0.000000000  0.352052406
     0.750723524  0.000118076  0.649521158
     0.999752279  0.249789393  0.649542658
     0.749923863  0.250038090  0.549482206
     0.999824122  0.999880288  0.549319624
     0.750000000  0.500000000  0.450684135
     0.000000000  0.750000000  0.450684135
     0.750000000  0.750000000  0.352052406
     0.000000000  0.500000000  0.352052406
     0.751730959  0.500434431  0.650124609
     0.999790012  0.750548183  0.649387340
     0.749362948  0.750145493  0.549580176
     0.999548810  0.500278027  0.549250186

  ion indices of the primitive-cell ions
   primitive index   ion index
                 1           1
                 2           2
                 3           3
                 4           4
                 5           5
                 6           6
                 7           7
                 8           8
                 9           9
                10          10
                11          11
                12          12
                13          13
                14          14
                15          15
                16          16
                17          17
                18          18
                19          19
                20          20
                21          21
                22          22
                23          23
                24          24
                25          25
                26          26
                27          27
                28          28
                29          29
                30          30
                31          31
                32          32
                33          33
                34          34
                35          35
                36          36
                37          37
                38          38
                39          39
                40          40
                41          41
                42          42
                43          43
                44          44
                45          45
                46          46
                47          47
                48          48
                49          49
                50          50
                51          51
                52          52
                53          53
                54          54
                55          55
                56          56
                57          57
                58          58
                59          59
                60          60
                61          61
                62          62
                63          63
                64          64

----------------------------------------------------------------------------------------



 KPOINTS: pymatgen v2020.8.13 with grid density = 

Automatic generation of k-mesh.
 Grid dimensions read from file:
 generate k-points for:    2    2    1

 Generating k-lattice:

  Cartesian coordinates                     Fractional coordinates (reciprocal lattice)
     0.059489377  0.000000000  0.000000000     0.500000000  0.000000000  0.000000000
     0.000000000  0.059489377  0.000000000     0.000000000  0.500000000  0.000000000
     0.000000000  0.000000000  0.046940321     0.000000000  0.000000000  1.000000000

  Length of vectors
     0.059489377  0.059489377  0.046940321

  Shift w.r.t. Gamma in fractional coordinates (k-lattice)
     0.000000000  0.000000000  0.000000000

 
 Subroutine IBZKPT returns following result:
 ===========================================
 
 Found      4 irreducible k-points:
 
 Following reciprocal coordinates:
            Coordinates               Weight
  0.000000  0.000000  0.000000      1.000000
  0.500000  0.000000  0.000000      1.000000
  0.000000  0.500000  0.000000      1.000000
  0.500000  0.500000  0.000000      1.000000
 
 Following cartesian coordinates:
            Coordinates               Weight
  0.000000  0.000000  0.000000      1.000000
  0.059489  0.000000  0.000000      1.000000
  0.000000  0.059489  0.000000      1.000000
  0.059489  0.059489  0.000000      1.000000
 


--------------------------------------------------------------------------------------------------------




 Dimension of arrays:
   k-points           NKPTS =      4   k-points in BZ     NKDIM =      4   number of bands    NBANDS=    320
   number of dos      NEDOS =    301   number of ions     NIONS =     64
   non local maximal  LDIM  =      5   non local SUM 2l+1 LMDIM =     13
   total plane-waves  NPLWV = 882000
   max r-space proj   IRMAX =      1   max aug-charges    IRDMAX=  11749
   dimension x,y,z NGX =    70 NGY =   70 NGZ =  180
   dimension x,y,z NGXF=   140 NGYF=  140 NGZF=  360
   support grid    NGXF=   140 NGYF=  140 NGZF=  360
   ions per type =              32  32
   NGX,Y,Z   is equivalent  to a cutoff of  13.85, 13.85, 14.05 a.u.
   NGXF,Y,Z  is equivalent  to a cutoff of  27.69, 27.69, 28.09 a.u.

 SYSTEM =  MgO-rocksalt                            
 POSCAR =  Mg  O                                   

--------------------------------------------------------------------------------------------------------


  energy-cutoff  :      600.00
  volume of cell :     1504.93
      direct lattice vectors                 reciprocal lattice vectors
     8.404861995  0.000000000  0.000000000     0.118978753  0.000000000  0.000000000
     0.000000000  8.404861995  0.000000000     0.000000000  0.118978753  0.000000000
     0.000000000  0.000000000 21.303646496     0.000000000  0.000000000  0.046940321

  length of vectors
     8.404861995  8.404861995 21.303646496     0.118978753  0.118978753  0.046940321



 k-points in units of 2pi/SCALE and weight: pymatgen v2020.8.13 with grid density = 
   0.00000000  0.00000000  0.00000000       0.250
   0.05948938  0.00000000  0.00000000       0.250
   0.00000000  0.05948938  0.00000000       0.250
   0.05948938  0.05948938  0.00000000       0.250

 k-points in reciprocal lattice and weights: pymatgen v2020.8.13 with grid density = 
   0.00000000  0.00000000  0.00000000       0.250
   0.50000000  0.00000000  0.00000000       0.250
   0.00000000  0.50000000  0.00000000       0.250
   0.50000000  0.50000000  0.00000000       0.250

 position of ions in fractional coordinates (direct lattice) 
   0.25000000  0.00000000  0.35205241
   0.50000000  0.25000000  0.35205241
   0.25000000  0.25000000  0.45068414
   0.50000000  0.00000000  0.45068414
   0.25010078  0.00026913  0.54969316
   0.49976796  0.25072203  0.54994304
   0.24878072  0.24985918  0.64765447
   0.49964405  0.00216936  0.64754382
   0.25000000  0.50000000  0.35205241
   0.50000000  0.75000000  0.35205241
   0.25000000  0.75000000  0.45068414
   0.50000000  0.50000000  0.45068414
   0.25082543  0.49985688  0.55009342
   0.49970335  0.74906508  0.55010531
   0.24771261  0.75023870  0.64729213
   0.49786251  0.49309925  0.65259173
   0.75000000  0.00000000  0.35205241
   0.00000000  0.25000000  0.35205241
   0.75000000  0.25000000  0.45068414
   0.00000000  0.00000000  0.45068414
   0.74975667  0.00042174  0.54959527
   0.00005539  0.25033865  0.54955692
   0.75086758  0.24954744  0.64733079
   0.00010995  0.00058455  0.64746714
   0.75000000  0.50000000  0.35205241
   0.00000000  0.75000000  0.35205241
   0.75000000  0.75000000  0.45068414
   0.00000000  0.50000000  0.45068414
   0.74886061  0.49980556  0.55018671
   0.00023074  0.74984581  0.54944226
   0.75241179  0.75101763  0.64642681
   0.00045272  0.49972684  0.64729379
   0.25000000  0.00000000  0.45068414
   0.50000000  0.25000000  0.45068414
   0.25000000  0.25000000  0.35205241
   0.50000000  0.00000000  0.35205241
   0.24906160  0.00015879  0.64954679
   0.50002585  0.24776061  0.64943268
   0.24990390  0.24974659  0.54941328
   0.50004159  0.99951437  0.54951518
   0.25000000  0.50000000  0.45068414
   0.50000000  0.75000000  0.45068414
   0.25000000  0.75000000  0.35205241
   0.50000000  0.50000000  0.35205241
   0.24808246  0.50020419  0.64863479
   0.50007724  0.75503452  0.65212369
   0.25052400  0.75036300  0.54961586
   0.50016839  0.50049541  0.55042417
   0.75000000  0.00000000  0.45068414
   0.00000000  0.25000000  0.45068414
   0.75000000  0.25000000  0.35205241
   0.00000000  0.00000000  0.35205241
   0.75072352  0.00011808  0.64952116
   0.99975228  0.24978939  0.64954266
   0.74992386  0.25003809  0.54948221
   0.99982412  0.99988029  0.54931962
   0.75000000  0.50000000  0.45068414
   0.00000000  0.75000000  0.45068414
   0.75000000  0.75000000  0.35205241
   0.00000000  0.50000000  0.35205241
   0.75173096  0.50043443  0.65012461
   0.99979001  0.75054818  0.64938734
   0.74936295  0.75014549  0.54958018
   0.99954881  0.50027803  0.54925019

 position of ions in cartesian coordinates  (Angst):
   2.10121550  0.00000000  7.50000000
   4.20243100  2.10121550  7.50000000
   2.10121550  2.10121550  9.60121550
   4.20243100  0.00000000  9.60121550
   2.10206255  0.00226197 11.71046883
   4.20048077  2.10728405 11.71579203
   2.09096761  2.10003191 13.79740185
   4.19943929  0.01823318 13.79504468
   2.10121550  4.20243100  7.50000000
   4.20243100  6.30364650  7.50000000
   2.10121550  6.30364650  9.60121550
   4.20243100  4.20243100  9.60121550
   2.10815313  4.20122809 11.71899573
   4.19993769  6.29578864 11.71924915
   2.08199034  6.30565271 13.78968282
   4.18446569  4.14443116 13.90258358
   6.30364650  0.00000000  7.50000000
   0.00000000  2.10121550  7.50000000
   6.30364650  2.10121550  9.60121550
   0.00000000  0.00000000  9.60121550
   6.30160131  0.00354463 11.70838325
   0.00046552  2.10406178 11.70756630
   6.31093838  2.09741179 13.79050622
   0.00092412  0.00491304 13.79341107
   6.30364650  4.20243100  7.50000000
   0.00000000  6.30364650  7.50000000
   6.30364650  6.30364650  9.60121550
   0.00000000  4.20243100  9.60121550
   6.29407012  4.20079679 11.72098311
   0.00193931  6.30235057 11.70512373
   6.32391726  6.31219956 13.77124818
   0.00380503  4.20013517 13.78971807
   2.10121550  0.00000000  9.60121550
   4.20243100  2.10121550  9.60121550
   2.10121550  2.10121550  7.50000000
   4.20243100  0.00000000  7.50000000
   2.09332838  0.00133461 13.83771514
   4.20264828  2.08239373 13.83528430
   2.10040780  2.09908560 11.70450635
   4.20278056  8.40078035 11.70667707
   2.10121550  4.20243100  9.60121550
   4.20243100  6.30364650  9.60121550
   2.10121550  6.30364650  7.50000000
   4.20243100  4.20243100  7.50000000
   2.08509883  4.20414715 13.81828634
   4.20308019  6.34596092 13.89261256
   2.10561964  6.30669745 11.70882190
   4.20384631  4.20659485 11.72604197
   6.30364650  0.00000000  9.60121550
   0.00000000  2.10121550  9.60121550
   6.30364650  2.10121550  7.50000000
   0.00000000  0.00000000  7.50000000
   6.30972761  0.00099241 13.83716913
   8.40277994  2.09944537 13.83762716
   6.30300657  2.10153564 11.70597468
   8.40338377  8.40385583 11.70251108
   6.30364650  4.20243100  9.60121550
   0.00000000  6.30364650  9.60121550
   6.30364650  6.30364650  7.50000000
   0.00000000  4.20243100  7.50000000
   6.31819496  4.20608233 13.85002486
   8.40309707  6.30825390 13.83431834
   6.29829216  6.30486935 11.70806178
   8.40106980  4.20476777 11.70103180



--------------------------------------------------------------------------------------------------------

--------------------------------------- Iteration      FINAL  ---------------------------------------


--------------------OUTCAR has been truncated-------------------------


--------------------OUTCAR has been truncated-------------------------


--------------------OUTCAR has been truncated-------------------------


--------------------OUTCAR has been truncated-------------------------


--------------------OUTCAR has been truncated-------------------------


--------------------OUTCAR has been truncated-------------------------


--------------------OUTCAR has been truncated-------------------------


--------------------OUTCAR has been truncated-------------------------


--------------------OUTCAR has been truncated-------------------------


--------------------OUTCAR has been truncated-------------------------


  DFT-D2 method for vdW energy calculation
  -------------------------------------------------------------------

  Parameters of vdW forcefield:
         C6(Jnm^6/mol)     R0(A)
   -----------------------------
   Mg       0.630          1.243
   O        0.700          1.342

  vdW correction parametrized for the method pbe       

  IVDW =   1
  VDW_RADIUS =    50.000 A
  VDW_S6 =     0.750
  VDW_SR =     1.000
  VDW_D =    20.000
  LVDW_EWALD = F

  Number of pair interactions contributing to vdW energy:  731082
  Edisp (eV):   -3.69303
    FORVDW:  cpu time      0.1060: real time      0.1060

  FORCE on cell =-STRESS in cart. coord.  units (eV):
  Direction    XX          YY          ZZ          XY          YZ          ZX
  --------------------------------------------------------------------------------------
  Alpha Z   883.92154   883.92154   883.92154
  Ewald  163348.20496163351.53903************    -0.57608     1.96634     0.26977
  Hartree173392.88992173394.53096************    -0.36894     0.74806     0.09374
  E(xc)   -2458.43693 -2458.43274 -2463.70400    -0.00065     0.00052    -0.00083
  Local  ************************347124.41719     0.94980    -2.53957    -0.32424
  n-local -2811.33124 -2811.26531 -2831.80501    -0.00556     0.00971    -0.01333
  augment  1047.60465  1047.60783  1038.31098    -0.00371    -0.02162    -0.00696
  Kinetic  7311.61192  7311.59773  7352.03956     0.00346    -0.18908     0.08339
  Fock        0.00000     0.00000     0.00000     0.00000     0.00000     0.00000
  vdW        -5.39282    -5.39126    -4.38175     0.00045    -0.00236    -0.00082
  -------------------------------------------------------------------------------------
  Total     -16.24152   -16.08884     7.45578    -0.00123    -0.02799     0.10072
  in kB     -17.29108   -17.12854     7.93758    -0.00131    -0.02980     0.10723
  external pressure =       -8.83 kB  Pullay stress =        0.00 kB


 VOLUME and BASIS-vectors are now :
 -----------------------------------------------------------------------------
  energy-cutoff  :      600.00
  volume of cell :     1504.93
      direct lattice vectors                 reciprocal lattice vectors
     8.404861995  0.000000000  0.000000000     0.118978753  0.000000000  0.000000000
     0.000000000  8.404861995  0.000000000     0.000000000  0.118978753  0.000000000
     0.000000000  0.000000000 21.303646496     0.000000000  0.000000000  0.046940321

  length of vectors
     8.404861995  8.404861995 21.303646496     0.118978753  0.118978753  0.046940321


 FORCES acting on ions:
    Electron-Ion                     Ewald-Force                    Non-Local-Force
 -----------------------------------------------------------------------------------------------
   -.311E+00 0.130E+00 0.209E+04   0.315E+00 -.132E+00 -.208E+04   -.276E-02 0.154E-02 -.707E+01
   -.322E-01 -.319E+00 0.209E+04   0.330E-01 0.325E+00 -.208E+04   -.600E-03 -.447E-02 -.706E+01
   -.136E+01 -.127E+01 0.693E+03   0.138E+01 0.128E+01 -.694E+03   -.767E-02 -.932E-03 0.472E+00
   -.998E-02 0.683E+00 0.692E+03   -.148E-02 -.741E+00 -.692E+03   0.797E-02 0.412E-01 0.403E+00
   -.204E+01 0.199E+01 -.694E+03   0.210E+01 -.204E+01 0.694E+03   -.514E-01 0.123E-01 -.344E+00
   -.686E+00 -.398E+01 -.696E+03   0.687E+00 0.414E+01 0.696E+03   0.124E-01 -.175E+00 -.176E+00
   -.220E+01 -.165E+01 -.208E+04   0.146E+01 0.102E+01 0.207E+04   0.644E+00 0.487E+00 0.643E+01
   -.706E+00 0.608E+01 -.207E+04   0.721E+00 -.708E+01 0.207E+04   0.130E-01 0.670E+00 0.585E+01
   -.390E+00 -.129E+00 0.209E+04   0.398E+00 0.132E+00 -.208E+04   -.610E-02 -.177E-02 -.706E+01
   -.293E-01 0.317E+00 0.209E+04   0.298E-01 -.324E+00 -.208E+04   -.249E-03 0.474E-02 -.709E+01
   -.167E+01 0.129E+01 0.692E+03   0.175E+01 -.128E+01 -.692E+03   -.631E-01 -.249E-02 0.498E+00
   -.168E+00 -.670E+00 0.687E+03   0.196E+00 0.721E+00 -.688E+03   -.209E-01 -.377E-01 0.672E+00
   -.492E+01 -.244E+01 -.696E+03   0.526E+01 0.250E+01 0.697E+03   -.319E+00 -.186E-01 -.610E+00
   -.691E+00 0.587E+01 -.712E+03   0.658E+00 -.604E+01 0.713E+03   0.459E-01 0.188E+00 -.106E+00
   -.115E+02 0.397E+01 -.207E+04   0.117E+02 -.345E+01 0.207E+04   0.888E-01 -.412E+00 0.614E+01
   -.627E+01 -.255E+02 -.212E+04   0.637E+01 0.252E+02 0.211E+04   0.122E+00 0.101E+01 0.695E+01
   0.310E+00 0.128E+00 0.209E+04   -.314E+00 -.129E+00 -.208E+04   0.301E-02 0.100E-02 -.706E+01
   0.317E-01 -.238E+00 0.209E+04   -.329E-01 0.240E+00 -.208E+04   0.894E-03 -.136E-02 -.706E+01
   0.135E+01 -.141E+01 0.693E+03   -.137E+01 0.146E+01 -.693E+03   0.120E-01 -.357E-01 0.490E+00
   0.253E-02 0.295E+00 0.694E+03   0.334E-02 -.284E+00 -.695E+03   -.432E-02 -.786E-02 0.376E+00
   0.206E+01 0.186E+01 -.693E+03   -.212E+01 -.188E+01 0.693E+03   0.525E-01 -.191E-01 -.351E+00
   0.585E+00 -.992E+00 -.692E+03   -.585E+00 0.971E+00 0.693E+03   -.134E-01 -.627E-02 -.163E+00
   0.256E+01 -.430E+01 -.207E+04   -.188E+01 0.395E+01 0.207E+04   -.600E+00 0.324E+00 0.626E+01
   0.557E+00 0.150E+01 -.208E+04   -.570E+00 -.144E+01 0.207E+04   -.115E-01 -.803E-01 0.617E+01
   0.389E+00 -.126E+00 0.209E+04   -.397E+00 0.128E+00 -.208E+04   0.673E-02 -.145E-02 -.709E+01
   0.298E-01 0.239E+00 0.209E+04   -.304E-01 -.241E+00 -.208E+04   0.353E-03 0.105E-02 -.705E+01
   0.164E+01 0.142E+01 0.691E+03   -.173E+01 -.146E+01 -.692E+03   0.646E-01 0.292E-01 0.486E+00
   0.141E+00 -.290E+00 0.693E+03   -.183E+00 0.286E+00 -.694E+03   0.300E-01 0.328E-02 0.365E+00
   0.531E+01 -.238E+01 -.704E+03   -.565E+01 0.241E+01 0.704E+03   0.323E+00 0.957E-02 -.384E+00
   0.520E+00 0.110E+01 -.690E+03   -.481E+00 -.108E+01 0.691E+03   -.525E-01 0.383E-02 -.206E+00
   0.128E+02 0.723E+01 -.206E+04   -.130E+02 -.696E+01 0.206E+04   -.133E+00 -.300E+00 0.591E+01
   0.252E+01 -.168E+01 -.207E+04   -.279E+01 0.162E+01 0.207E+04   0.154E+00 0.886E-01 0.614E+01
   -.886E+00 0.516E+00 0.520E+03   0.894E+00 -.529E+00 -.520E+03   -.114E-01 0.166E-01 -.843E-01
   -.159E+00 -.111E+01 0.518E+03   0.169E+00 0.106E+01 -.518E+03   -.114E-01 0.624E-01 -.663E-01
   -.246E+00 -.206E+00 0.157E+04   0.249E+00 0.207E+00 -.157E+04   -.417E-02 -.105E-02 0.348E+01
   -.131E-01 0.108E+00 0.157E+04   0.123E-01 -.115E+00 -.157E+04   0.100E-02 0.946E-02 0.348E+01
   -.243E+01 0.233E+01 -.158E+04   0.277E+01 -.270E+01 0.158E+04   -.378E+00 0.487E+00 -.506E+01
   -.955E+00 -.983E+00 -.157E+04   0.111E+01 0.299E+00 0.158E+04   -.217E+00 0.898E+00 -.411E+01
   -.165E+01 -.169E+01 -.515E+03   0.162E+01 0.166E+01 0.514E+03   0.426E-01 0.652E-01 0.392E+00
   0.632E-02 0.267E+01 -.516E+03   0.372E-02 -.288E+01 0.515E+03   -.215E-01 0.293E+00 0.282E+00
   -.134E+01 -.510E+00 0.517E+03   0.130E+01 0.517E+00 -.517E+03   0.549E-01 -.760E-02 -.112E+00
   -.144E+00 0.108E+01 0.517E+03   0.157E+00 -.103E+01 -.516E+03   -.169E-01 -.737E-01 -.183E+00
   -.278E+00 0.206E+00 0.157E+04   0.289E+00 -.207E+00 -.157E+04   -.147E-01 0.140E-02 0.348E+01
   -.275E-01 -.107E+00 0.157E+04   0.316E-01 0.115E+00 -.157E+04   -.585E-02 -.992E-02 0.347E+01
   -.571E+01 -.428E+01 -.157E+04   0.561E+01 0.471E+01 0.157E+04   0.282E+00 -.556E+00 -.402E+01
   -.129E+01 0.169E+02 -.159E+04   0.152E+01 -.175E+02 0.159E+04   -.288E+00 0.329E-01 -.532E+01
   -.386E+01 0.198E+01 -.517E+03   0.392E+01 -.194E+01 0.517E+03   -.121E+00 -.789E-01 0.372E+00
   -.105E+01 -.410E+01 -.538E+03   0.108E+01 0.429E+01 0.539E+03   -.677E-01 -.277E+00 -.719E+00
   0.870E+00 0.514E+00 0.520E+03   -.871E+00 -.538E+00 -.520E+03   0.200E-02 0.294E-01 -.539E-01
   0.142E+00 -.582E+00 0.520E+03   -.143E+00 0.576E+00 -.520E+03   0.580E-03 0.620E-02 -.212E-01
   0.246E+00 -.221E+00 0.157E+04   -.249E+00 0.226E+00 -.157E+04   0.385E-02 -.752E-02 0.348E+01
   0.136E-01 0.747E-01 0.157E+04   -.126E-01 -.744E-01 -.157E+04   -.132E-02 -.456E-03 0.348E+01
   0.259E+01 0.184E+01 -.158E+04   -.296E+01 -.217E+01 0.158E+04   0.398E+00 0.456E+00 -.523E+01
   0.623E+00 -.143E+01 -.158E+04   -.753E+00 0.142E+01 0.158E+04   0.180E+00 0.663E-01 -.499E+01
   0.171E+01 -.246E+01 -.515E+03   -.168E+01 0.244E+01 0.514E+03   -.421E-01 0.280E-01 0.450E+00
   -.646E-02 0.291E+00 -.514E+03   -.682E-02 -.309E+00 0.514E+03   0.247E-01 0.402E-01 0.187E+00
   0.132E+01 -.494E+00 0.517E+03   -.126E+01 0.504E+00 -.517E+03   -.782E-01 -.125E-01 -.177E+00
   0.148E+00 0.605E+00 0.520E+03   -.159E+00 -.608E+00 -.520E+03   0.137E-01 0.571E-02 0.138E-01
   0.278E+00 0.220E+00 0.157E+04   -.288E+00 -.226E+00 -.157E+04   0.146E-01 0.817E-02 0.348E+01
   0.285E-01 -.753E-01 0.157E+04   -.320E-01 0.747E-01 -.157E+04   0.495E-02 0.846E-03 0.348E+01
   0.890E+01 -.433E+01 -.158E+04   -.911E+01 0.481E+01 0.158E+04   0.336E-02 -.618E+00 -.475E+01
   0.199E+00 0.157E+01 -.158E+04   -.300E+00 -.155E+01 0.158E+04   0.161E+00 -.634E-01 -.512E+01
   0.396E+01 0.278E+01 -.515E+03   -.402E+01 -.276E+01 0.514E+03   0.118E+00 -.427E-01 0.587E+00
   0.781E+00 -.375E+00 -.513E+03   -.823E+00 0.399E+00 0.512E+03   0.749E-01 -.468E-01 0.446E+00
 -----------------------------------------------------------------------------------------------
   -.398E+00 -.248E+01 0.147E+02   -.651E-12 -.215E-12 -.614E-11   0.395E+00 0.248E+01 -.147E+02


 POSITION                                       TOTAL-FORCE (eV/Angst)
 -----------------------------------------------------------------------------------
      2.10122      0.00000      7.50000         0.001124     -0.000688      0.288552
      4.20243      2.10122      7.50000         0.000306      0.001266      0.285257
      2.10122      2.10122      9.60122         0.003762      0.002540      0.008234
      4.20243      0.00000      9.60122        -0.003391     -0.016513      0.046705
      2.10206      0.00226     11.71047         0.004727     -0.034740      0.024619
      4.20048      2.10728     11.71579         0.012972     -0.010165     -0.076876
      2.09097      2.10003     13.79740        -0.091705     -0.138237     -0.023296
      4.19944      0.01823     13.79504         0.027402     -0.326465      0.161488
      2.10122      4.20243      7.50000         0.001974      0.000664      0.286897
      4.20243      6.30365      7.50000         0.000224     -0.001456      0.293530
      2.10122      6.30365      9.60122         0.023660     -0.000554      0.029729
      4.20243      4.20243      9.60122         0.006647      0.013323      0.058343
      2.10815      4.20123     11.71900         0.018950      0.034213     -0.089574
      4.19994      6.29579     11.71925         0.012916      0.016418      0.199575
      2.08199      6.30565     13.78968         0.276440      0.109280      0.148604
      4.18447      4.14443     13.90258         0.217105      0.686307     -0.576251
      6.30365      0.00000      7.50000        -0.001119     -0.000543      0.286662
      0.00000      2.10122      7.50000        -0.000307      0.000460      0.285920
      6.30365      2.10122      9.60122        -0.005668      0.015275      0.014271
      0.00000      0.00000      9.60122         0.001575      0.003369      0.016064
      6.30160      0.00354     11.70838        -0.004222     -0.034660      0.038614
      0.00047      2.10406     11.70757        -0.012227     -0.026484      0.003189
      6.31094      2.09741     13.79051         0.080787     -0.027544      0.083540
      0.00092      0.00491     13.79341        -0.023662     -0.027022      0.071002
      6.30365      4.20243      7.50000        -0.002100      0.000575      0.291756
      0.00000      6.30365      7.50000        -0.000167     -0.000470      0.283459
      6.30365      6.30365      9.60122        -0.023807     -0.011538      0.036578
      0.00000      4.20243      9.60122        -0.011376     -0.001152      0.024226
      6.29407      4.20080     11.72098        -0.016810      0.034194      0.007159
      0.00194      6.30235     11.70512        -0.012758      0.024644      0.013545
      6.32392      6.31220     13.77125        -0.313318     -0.024674      0.346480
      0.00381      4.20014     13.78972        -0.118736      0.027086      0.100461
      2.10122      0.00000      9.60122        -0.002934      0.002901      0.039480
      4.20243      2.10122      9.60122        -0.002107      0.016371      0.074130
      2.10122      2.10122      7.50000        -0.001153     -0.000338     -0.573752
      4.20243      0.00000      7.50000         0.000313      0.002675     -0.575583
      2.09333      0.00133     13.83772        -0.031957      0.114460      0.120852
      4.20265      2.08239     13.83528        -0.060476      0.215305      0.337938
      2.10041      2.09909     11.70451         0.014437      0.038403      0.025724
      4.20278      8.40078     11.70668        -0.011262      0.091885     -0.033717
      2.10122      4.20243      9.60122         0.014143     -0.000878      0.076692
      4.20243      6.30365      9.60122        -0.003507     -0.018644      0.055556
      2.10122      6.30365      7.50000        -0.004202      0.000354     -0.575199
      4.20243      4.20243      7.50000        -0.001667     -0.002911     -0.577909
      2.08510      4.20415     13.81829         0.181067     -0.124630      0.434105
      4.20308      6.34596     13.89261        -0.063609     -0.485705     -0.079298
      2.10562      6.30670     11.70882        -0.060164     -0.038946     -0.052994
      4.20385      4.20659     11.72604        -0.032607     -0.089593      0.022611
      6.30365      0.00000      9.60122         0.000735      0.006017      0.038271
      0.00000      2.10122      9.60122        -0.000474      0.000492      0.042988
      6.30365      2.10122      7.50000         0.001111     -0.002208     -0.574401
      0.00000      0.00000      7.50000        -0.000353     -0.000178     -0.573407
      6.30973      0.00099     13.83717         0.034814      0.125247      0.085151
      8.40278      2.09945     13.83763         0.049571      0.050960      0.132719
      6.30301      2.10154     11.70597        -0.014140      0.015956     -0.004219
      8.40338      8.40386     11.70251         0.011335      0.021799     -0.025297
      6.30365      4.20243      9.60122        -0.019918     -0.002126      0.066002
      0.00000      6.30365      9.60122         0.002604      0.002288      0.042085
      6.30365      6.30365      7.50000         0.004254      0.002312     -0.575655
      0.00000      4.20243      7.50000         0.001451      0.000200     -0.574245
      6.31819      4.20608     13.85002        -0.206907     -0.138335      0.176797
      8.40310      6.30825     13.83432         0.059844     -0.051002      0.113175
      6.29829      6.30487     11.70806         0.059914     -0.016698     -0.087332
      8.40107      4.20477     11.70103         0.032646     -0.022143      0.030270
 -----------------------------------------------------------------------------------
    total drift:                               -0.002133      0.003189     -0.002087


--------------------------------------------------------------------------------------------------------



  FREE ENERGIE OF THE ION-ELECTRON SYSTEM (eV)
  ---------------------------------------------------
  free  energy   TOTEN  =      -375.78380695 eV

  energy  without entropy=     -375.78380695  energy(sigma->0) =     -375.78380695



--------------------------------------------------------------------------------------------------------


    POTLOK:  cpu time      0.1645: real time      0.1645


--------------------------------------------------------------------------------------------------------


     LOOP+:  cpu time     65.4782: real time     65.7065
    4ORBIT:  cpu time      0.0000: real time      0.0000

 total amount of memory used by VASP MPI-rank0    60329. kBytes
=======================================================================

   base      :      30000. kBytes
   nonl-proj :      11759. kBytes
   fftplans  :       4923. kBytes
   grid      :       7379. kBytes
   one-center:         64. kBytes
   wavefun   :       6204. kBytes

  
  
 General timing and accounting informations for this job:
 ========================================================
  
                  Total CPU time used (sec):       98.406
                            User time (sec):       97.354
                          System time (sec):        1.052
                         Elapsed time (sec):      108.679
  
                   Maximum memory used (kb):      159112.
                   Average memory used (kb):          N/A
  
                          Minor page faults:        33322
                          Major page faults:            0
                 Voluntary context switches:        12270
