 **********************************************************************
                          MRCC program system
 **********************************************************************
 
                              Written by
     Mihaly Kallay, Peter R. Nagy, David Mester, Laszlo Gyevi-Nagy,
        Jozsef Csoka, P. Bernat Szabo, Zoltan Rolik, Gyula Samu,
     Jozsef Csontos, Bence Hegely, Adam Ganyecz, Istvan Ladjanszki,
       Lorant Szegedy, Bence Ladoczki, Klara Petrov, Mate Farkas,
                    Pal D. Mezei, and Reka A. Horvath
 
        Department of Physical Chemistry and Materials Science
            Budapest University of Technology and Economics
                  Budapest P.O.Box 91, H-1521 Hungary
 
                              www.mrcc.hu
 
                      Release date: March 18, 2022

 ************************ 2023-02-05 13:12:26 *************************
 Executing minp...

 Reading input from MINP...
 
 Input file:
 
calc=FNO-CCSD(T)
verbosity=3
mem=220GB
unit=angs
scfiguess=small
scfalg=locfit1
ccmaxit=400
ccsdalg=dfdirect
ccsdthreads=4
ccsdmkl=thr
ptthreads=4
lnoepsv=1e-5
naf_cor=1e-2
basis=aug-cc-pVQZ
basis_sm=def2-SVP
dfbasis_scf=def2-QZVPP-RI-JK
dfbasis_cor=aug-cc-pVQZ-RI
unit=angs
geom=xyz
16

C    34.41670262    34.07107264    10.41543014
C    33.11117461    33.45680459    10.91530835
H    34.24160149    35.00442132     9.86225048
H    34.94674030    33.36940783     9.75379242
H    35.10002891    34.30603621    11.24227357
H    32.42643037    33.26105434    10.07939442
H    32.59136835    34.12756100    11.61262818
H    33.28915165    32.50678735    11.43686767
C    37.30146851    40.40201188    10.40841099
C    38.60118650    39.78817777    10.92356869
H    36.77622810    39.69780620     9.74571409
H    37.48350439    41.33295122     9.85291346
H    36.61044119    40.64264616    11.22702485
H    39.29502691    39.59153653    10.09551480
H    38.41694628    38.83865821    11.44396498
H    39.11330594    40.45971964    11.62587494

--------------------Output has been truncated-------------------------


--------------------Output has been truncated-------------------------


--------------------Output has been truncated-------------------------


--------------------Output has been truncated-------------------------


--------------------Output has been truncated-------------------------


--------------------Output has been truncated-------------------------


--------------------Output has been truncated-------------------------


--------------------Output has been truncated-------------------------


--------------------Output has been truncated-------------------------


--------------------Output has been truncated-------------------------


 
 Reference energy [au]:                       -79.264438140034
 DF-MP2 singlet pair energy [au]:              -0.317726286443
 DF-MP2 triplet pair energy [au]:              -0.076906692753
 DF-SCS-MP2 correlation energy [au]:           -0.406907107983
 DF-SCS-MP2 energy [au]:                      -79.671345248017
 DF-SOS-MP2 correlation energy [au]:           -0.413044172376
 DF-SOS-MP2 energy [au]:                      -79.677482312410
 DF-MP2 correlation energy [au]:               -0.394632979196
 DF-MP2 energy [au]:                          -79.659071119230

 Results in FNO basis:
 
 
 Reference energy [au]:                       -79.264438140034
 DF-MP2 singlet pair energy [au]:              -0.312550608497
 DF-MP2 triplet pair energy [au]:              -0.076620650018
 DF-SCS-MP2 correlation energy [au]:           -0.400600946869
 DF-SCS-MP2 energy [au]:                      -79.665039086903
 DF-SOS-MP2 correlation energy [au]:           -0.406315791046
 DF-SOS-MP2 energy [au]:                      -79.670753931080
 DF-MP2 correlation energy [au]:               -0.389171258515
 DF-MP2 energy [au]:                          -79.653609398549

 Results in NAF basis:
 
 
 Reference energy [au]:                       -79.264438140034
 DF-MP2 singlet pair energy [au]:              -0.312529629608
 DF-MP2 triplet pair energy [au]:              -0.076628661741
 DF-SCS-MP2 correlation energy [au]:           -0.400578442776
 DF-SCS-MP2 energy [au]:                      -79.665016582810
 DF-SOS-MP2 correlation energy [au]:           -0.406288518490
 DF-SOS-MP2 energy [au]:                      -79.670726658524
 DF-MP2 correlation energy [au]:               -0.389158291349
 DF-MP2 energy [au]:                          -79.653596431383

 ************************ 2023-02-05 13:14:11 *************************
 Executing ccsd...

 Allocation of 220.0 Gbytes of memory...

 Direct DF-CCSD(T) calculation
 
 Convergence criterion:  1.0E-06
 
 Number of occupied/virtual/auxiliary orbitals:     7   175   551
    851.32 MB is the minimal memory requirement for (T)
    190.43 MB is the minimal memory requirement for CCSD
 
 Reference energy [au]:             -79.264438140034
 T1 contribution [au]:                0.000000000000
 Same spin MP2 energy [au]:          -0.076624653314
 Opposite spin MP2 energy [au]:      -0.312540114342
 MP2 correlation energy [au]:        -0.389164767656
 Total MP2 energy [au]:             -79.653602907691
 MP2 correction [au]:                -0.005468211540
 
 
 CPU time [min]:     0.393                   Wall time [min]:     0.050
 
 Starting CCSD iterations...
 
                     Residual norm          Energy
 Iteration  1        0.179604701966      -79.671515485618
 Iteration  2        0.044511540633      -79.681097614632
 Iteration  3        0.013089973668      -79.682233366494
 Iteration  4        0.002650278748      -79.682240588485
 Iteration  5        0.000560964633      -79.682246454078
 Iteration  6        0.000156929834      -79.682248505095
 Iteration  7        0.000037095394      -79.682248280058
 Iteration  8        0.000009998491      -79.682248643970
 
 CCSD iteration has converged in  8 steps.
     3804.92 MB memory was utilized by CCSD
 
 T1 diagnostic:      8.231E-03            D1 diagnostic:      1.428E-02
 
 T1 contribution [au]:                                  0.000000000000
 PPL energy contribution [au]:                          0.108936375125
 Scaled PPL energy contribution [au]:                   0.110476741639

 OS-PPL energy contribution [au]:                       0.095543091149
 Scaled OS-PPL energy contribution [au]:                0.097138650259
 SS-PPL energy contribution [au]:                       0.013393283976
 Scaled SS-PPL energy contribution [au]:                0.013441388298

 Opposite spin CCSD energy [au]:                       -0.345141622736
 Same spin CCSD energy [au]:                           -0.072676640896
 CCSD correlation energy [au]:                         -0.417818263632
 CCSD correlation energy + MP2 correction [au]:        -0.423286475172
 CCSD correlation energy + MP2 + PPL corr. [au]:       -0.421746108657
 Total CCSD energy [au]:                              -79.682256403666
 Total CCSD energy + MP2 correction [au]:             -79.687724615206
 Total CCSD energy + MP2 + PPL corr. [au]:            -79.686184248691
 
 CPU time [min]:     6.583                   Wall time [min]:     0.240
 
 Calculation of (T) correction...
 
 
      783.34 MB memory is utilized for (T)

 0%       25%       50%       75%       100%
 |---------|---------|---------|---------| 
 
 (T) correction [au]:                                    -0.014762809591
 (T*) correction [au]:                                   -0.014970244006
 (T+) correction [au]:                                   -0.014966711945
 CCSD(T) correlation energy [au]:                        -0.432581073223
 CCSD(T) correlation energy + MP2 correction [au]:       -0.438049284763
 CCSD(T+) correlation en. + MP2 + PPL corr. [au]:        -0.436712820602
 Total CCSD(T) energy [au]:                             -79.697019213258
 Total CCSD(T) energy + MP2 correction [au]:            -79.702487424797
 Total CCSD(T+) energy + MP2 + PPL corr. [au]:          -79.701150960636
 
 CPU time [min]:     8.321                   Wall time [min]:     0.298
 
 ************************ 2023-02-05 13:14:29 *************************
                      Normal termination of mrcc.
 **********************************************************************
