 vasp.6.3.0 20Jan22 (build Aug 21 2024 11:13:42) complex                         
 executed on        HPECrayEX_GCC date 2024.11.26  20:26:28
 running  512 mpi-ranks, with    1 threads/rank
 distrk:  each k-point on  512 cores,    1 groups
 distr:  one band on NCORE=  16 cores,   32 groups


--------------------------------------------------------------------------------------------------------


 INCAR:
   SYSTEM = TiO2
   ISMEAR = 0
   SIGMA = 0.05
   EDIFF = 1E-4
   ALGO = ALL
   ISTART = 0
   IBRION = -1
   NSW = 0
   ISYM = 0
   ISIF = 2
   EDIFFG = -0.01
   DIPOL = 0.5 0.5 0.5
   IDIPOL = 3
   LDIPOL = .TRUE.
   METAGGA = R2SCAN
   LUSE_VDW = .TRUE.
   BPARAM = 11.95
   CPARAM = 0.0093
   LASPH = .TRUE.
   ENCUT = 600
   PREC = Accurate
   LASPH = .TRUE.
   LREAL = .FALSE.
   ISPIN = 1
   NELM = 200
   NELMIN = 8
   NCORE = 16
   KPAR = 1
   LWAVE = .FALSE.
   LCHARG = .FALSE.

 POTCAR:    PAW_PBE Ti_pv 07Sep2000               
 POTCAR:    PAW_PBE O 08Apr2002                   
 -----------------------------------------------------------------------------
|                                                                             |
|               ----> ADVICE to this user running VASP <----                  |
|                                                                             |
|     You have switched on vdW-DFT.                                           |
|     This routine was written and supplied by Jiri Klimes. We recommend      |
|     that you carefully read and cite the following publications:            |
|       J. Klimes, D.R. Bowler, A. Michelides                                 |
|          J. Phys.: Cond Matt. 22 022201 (2010)                              |
|       J. Klimes, D.R. Bowler, A. Michelides                                 |
|          Phys. Rev. B. 83, 195131 (2011)                                    |
|     and references therein.                                                 |
|                                                                             |
 -----------------------------------------------------------------------------

 POTCAR:    PAW_PBE Ti_pv 07Sep2000               
   SHA256 =  f757a1b2c6d082f4c628fa3d987464a8763bf92e53844ac0500b0e2ddc9ce5c0 Ti_pv/POTCAR          
   COPYR  = (c) Copyright 07Sep2000 Georg Kresse                                                    
   COPYR  = This file is part of the software VASP. Any use, copying, and all other rights are regul
   COPYR  = If you do not have a valid VASP license, you may not use, copy or distribute this file. 
   VRHFIN =Ti: d3 s1                                                                                
   LEXCH  = PE                                                                                      
   EATOM  =  1042.5995 eV,   76.6289 Ry                                                             
                                                                                                    
   TITEL  = PAW_PBE Ti_pv 07Sep2000                                                                 
   LULTRA =        F    use ultrasoft PP ?                                                          
   IUNSCR =        1    unscreen: 0-lin 1-nonlin 2-no                                               
   RPACOR =    2.200    partial core radius                                                         
   POMASS =   47.880; ZVAL   =   10.000    mass and valenz                                          
   RCORE  =    2.500    outmost cutoff radius                                                       
   RWIGS  =    2.500; RWIGS  =    1.323    wigner-seitz radius (au A)                               
   ENMAX  =  222.335; ENMIN  =  166.751 eV                                                          
   RCLOC  =    1.701    cutoff for local pot                                                        
   LCOR   =        T    correct aug charges                                                         
   LPAW   =        T    paw PP                                                                      
   EAUG   =  482.848                                                                                
   DEXC   =    0.000                                                                                
   RMAX   =    2.564    core radius for proj-oper                                                   
   RAUG   =    1.300    factor for augmentation sphere                                              
   RDEP   =    2.538    radius for radial grids                                                     
   RDEPT  =    1.952    core radius for aug-charge                                                  
                                                                                                    
   Atomic configuration                                                                             
    8 entries                                                                                       
     n  l   j            E        occ.                                                              
     1  0  0.50     -4865.3608   2.0000                                                             
     2  0  0.50      -533.1368   2.0000                                                             
     2  1  1.50      -440.5031   6.0000                                                             
     3  0  0.50       -59.3186   2.0000                                                             
     3  1  1.50       -35.7012   6.0000                                                             
     3  2  2.50        -1.9157   3.0000                                                             
     4  0  0.50        -3.7291   1.0000                                                             
     4  3  2.50        -1.3606   0.0000                                                             
   Description                                                                                      
     l       E           TYP  RCUT    TYP  RCUT                                                     
     1    -35.7012140     23  2.300                                                                 
     1     -1.3605826     23  2.300                                                                 
     2     -1.9156996     23  2.500                                                                 
     2     -0.4063033     23  2.500                                                                 
     0     -3.7290856     23  2.500                                                                 
     0     20.4087390     23  2.500                                                                 
  local pseudopotential read in
  partial core-charges read in
  partial kinetic energy density read in
  atomic valenz-charges read in
  non local Contribution for L=           1  read in
    real space projection operators read in
  non local Contribution for L=           1  read in
    real space projection operators read in
  non local Contribution for L=           2  read in
    real space projection operators read in
  non local Contribution for L=           2  read in
    real space projection operators read in
  non local Contribution for L=           0  read in
    real space projection operators read in
  non local Contribution for L=           0  read in
    real space projection operators read in
    PAW grid and wavefunctions read in

   number of l-projection  operators is LMAX  =           6
   number of lm-projection operators is LMMAX =          18

 POTCAR:    PAW_PBE O 08Apr2002                   
   SHA256 =  818f92134a0a090dccd8ba1447fa70422a3b330e708bb4f08108d8ae51209ddf O/POTCAR              
   COPYR  = (c) Copyright 08Apr2002 Georg Kresse                                                    
   COPYR  = This file is part of the software VASP. Any use, copying, and all other rights are regul
   COPYR  = If you do not have a valid VASP license, you may not use, copy or distribute this file. 
   VRHFIN =O: s2p4                                                                                  
   LEXCH  = PE                                                                                      
   EATOM  =   432.3788 eV,   31.7789 Ry                                                             
                                                                                                    
   TITEL  = PAW_PBE O 08Apr2002                                                                     
   LULTRA =        F    use ultrasoft PP ?                                                          
   IUNSCR =        1    unscreen: 0-lin 1-nonlin 2-no                                               
   RPACOR =    1.200    partial core radius                                                         
   POMASS =   16.000; ZVAL   =    6.000    mass and valenz                                          
   RCORE  =    1.520    outmost cutoff radius                                                       
   RWIGS  =    1.550; RWIGS  =    0.820    wigner-seitz radius (au A)                               
   ENMAX  =  400.000; ENMIN  =  300.000 eV                                                          
   ICORE  =        2    local potential                                                             
   LCOR   =        T    correct aug charges                                                         
   LPAW   =        T    paw PP                                                                      
   EAUG   =  605.392                                                                                
   DEXC   =    0.000                                                                                
   RMAX   =    1.553    core radius for proj-oper                                                   
   RAUG   =    1.300    factor for augmentation sphere                                              
   RDEP   =    1.550    radius for radial grids                                                     
   RDEPT  =    1.329    core radius for aug-charge                                                  
                                                                                                    
   Atomic configuration                                                                             
    4 entries                                                                                       
     n  l   j            E        occ.                                                              
     1  0  0.50      -514.6923   2.0000                                                             
     2  0  0.50       -23.9615   2.0000                                                             
     2  1  0.50        -9.0305   4.0000                                                             
     3  2  1.50        -9.5241   0.0000                                                             
   Description                                                                                      
     l       E           TYP  RCUT    TYP  RCUT                                                     
     0    -23.9615318     23  1.200                                                                 
     0     -9.5240782     23  1.200                                                                 
     1     -9.0304911     23  1.520                                                                 
     1      8.1634956     23  1.520                                                                 
     2     -9.5240782      7  1.500                                                                 
  local pseudopotential read in
  partial core-charges read in
  partial kinetic energy density read in
  kinetic energy density of atom read in
  atomic valenz-charges read in
  non local Contribution for L=           0  read in
    real space projection operators read in
  non local Contribution for L=           0  read in
    real space projection operators read in
  non local Contribution for L=           1  read in
    real space projection operators read in
  non local Contribution for L=           1  read in
    real space projection operators read in
    PAW grid and wavefunctions read in

   number of l-projection  operators is LMAX  =           4
   number of lm-projection operators is LMMAX =           8

 -----------------------------------------------------------------------------
|                                                                             |
|               ----> ADVICE to this user running VASP <----                  |
|                                                                             |
|     You have a (more or less) 'large supercell' and for larger cells it     |
|     might be more efficient to use real-space projection operators.         |
|     Therefore, try LREAL= Auto in the INCAR file.                           |
|     Mind: For very accurate calculation, you might also keep the            |
|     reciprocal projection scheme (i.e. LREAL=.FALSE.).                      |
|                                                                             |
 -----------------------------------------------------------------------------

  PAW_PBE Ti_pv 07Sep2000               :
 energy of atom  1       EATOM=-1042.5995
 kinetic energy error for atom=    0.0007 (will be added to EATOM!!)
  PAW_PBE O 08Apr2002                   :
 energy of atom  2       EATOM= -432.3788
 kinetic energy error for atom=    0.0168 (will be added to EATOM!!)


 POSCAR: Ti  O
  positions in direct lattice
  No initial velocities read in

 METAGGA = R2SCA    LMAXTAU =  6    LMIXTAU =  F

 exchange correlation table for  LEXCH =        8
   RHO(1)=    0.500       N(1)  =     2000
   RHO(2)=  100.500       N(2)  =     4000



--------------------------------------------------------------------------------------------------------


 ion  position               nearest neighbor table
   1  0.750  0.625  0.287-  81 1.96  82 1.96 141 1.96 142 1.96  84 1.99 163 1.99  11 2.96  31 2.96

   2  0.000  0.750  0.287-  83 1.96  84 1.96 103 1.96 104 1.96  85 1.99  32 2.96  12 2.96
   3  0.000  0.625  0.393-  85 1.96  86 1.96 145 1.96 146 1.96  87 1.99  88 1.99  13 2.96  33 2.96

   4  0.750  0.750  0.393-  87 1.96 107 1.96 168 1.96 188 1.96  89 1.99  82 1.99  14 2.96  34 2.96

   5  0.750  0.625  0.500-  89 1.96  90 1.96 149 1.96 150 1.96  92 1.99 171 1.99  15 2.96  35 2.96

   6  0.000  0.750  0.500-  91 1.96  92 1.96 111 1.96 112 1.96  86 1.99  93 2.01  16 2.96  36 2.96

   7  1.000  0.625  0.604-  93 1.90 153 1.90  95 1.96  96 1.96 154 2.02  94 2.02  17 2.96  37 2.96

   8  0.750  0.750  0.611-  97 1.87 176 1.98 196 1.98 115 1.98  95 1.98  90 2.11  18 2.96  38 2.96

   9  0.750  0.625  0.720-  98 1.83 158 1.84 100 2.04 179 2.04  97 2.09 157 2.10  19 2.96  39 2.96

  10  0.000  0.750  0.709-  94 1.82 119 1.95 120 1.95  99 1.95 100 1.95  20 2.96  40 2.96
  11  0.750  0.875  0.287-  81 1.96  82 1.96 101 1.96 102 1.96 104 1.99 183 1.99   1 2.96  21 2.96

  12  0.000  0.000  0.287- 103 1.96 104 1.96 123 1.96 124 1.96 105 1.99  22 2.96   2 2.96
  13  0.000  0.875  0.393-  85 1.96  86 1.96 105 1.96 106 1.96 107 1.99 108 1.99   3 2.96  23 2.96

  14  0.750  0.000  0.393- 107 1.96 127 1.96 188 1.96 208 1.96 109 1.99 102 1.99   4 2.96  24 2.96

  15  0.750  0.875  0.500-  89 1.96  90 1.96 109 1.96 110 1.96 112 1.99 191 1.99   5 2.96  25 2.96

  16  0.000  0.000  0.500- 111 1.96 112 1.96 131 1.96 132 1.96 106 1.99 113 2.01   6 2.96  26 2.96

  17  1.000  0.875  0.604- 113 1.90  93 1.90 115 1.96 116 1.96  94 2.02 114 2.02  27 2.96   7 2.96

  18  0.750  0.000  0.611- 117 1.87 216 1.98 196 1.98 135 1.98 115 1.98 110 2.11  28 2.96   8 2.96

  19  0.750  0.875  0.720- 118 1.83  98 1.83 199 2.04 120 2.04 117 2.10  97 2.10   9 2.96  29 2.96

  20  0.000  0.000  0.709- 114 1.82 120 1.95 119 1.95 139 1.95 140 1.95  10 2.96  30 2.96
  21  0.750  0.125  0.287- 101 1.96 102 1.96 121 1.96 122 1.96 124 1.99 203 1.99  11 2.96  31 2.96

  22  0.000  0.250  0.287- 123 1.96 124 1.96 143 1.96 144 1.96 125 1.99  32 2.96  12 2.96
  23  0.000  0.125  0.393- 105 1.96 106 1.96 125 1.96 126 1.96 127 1.99 128 1.99  13 2.96  33 2.96

  24  0.750  0.250  0.393- 127 1.96 147 1.96 208 1.96 228 1.96 129 1.99 122 1.99  14 2.96  34 2.96

  25  0.750  0.125  0.500- 109 1.96 110 1.96 129 1.96 130 1.96 132 1.99 211 1.99  15 2.96  35 2.96

  26  0.000  0.250  0.500- 131 1.96 132 1.96 151 1.96 152 1.96 126 1.99 133 2.01  16 2.96  36 2.96

  27  1.000  0.125  0.604- 113 1.90 133 1.90 135 1.96 136 1.96 114 2.02 134 2.02  17 2.96  37 2.96

  28  0.750  0.250  0.611- 137 1.87 236 1.98 216 1.98 135 1.98 155 1.98 130 2.11  18 2.96  38 2.96

  29  0.750  0.125  0.720- 138 1.83 118 1.83 219 2.04 140 2.04 137 2.10 117 2.10  19 2.96  39 2.96

  30  0.000  0.250  0.709- 134 1.82 139 1.95 140 1.95 159 1.95 160 1.95  20 2.96  40 2.96
  31  0.750  0.375  0.287- 121 1.96 122 1.96 141 1.96 142 1.96 144 1.99 223 1.99   1 2.96  21 2.96

  32  0.000  0.500  0.287-  83 1.96  84 1.96 143 1.96 144 1.96 145 1.99  22 2.96   2 2.96
  33  0.000  0.375  0.393- 125 1.96 126 1.96 145 1.96 146 1.96 147 1.99 148 1.99   3 2.96  23 2.96

  34  0.750  0.500  0.393-  87 1.96 147 1.96 168 1.96 228 1.96 142 1.99 149 1.99   4 2.96  24 2.96

  35  0.750  0.375  0.500- 129 1.96 130 1.96 149 1.96 150 1.96 152 1.99 231 1.99   5 2.96  25 2.96

  36  0.000  0.500  0.500-  91 1.96  92 1.96 151 1.96 152 1.96 146 1.99 153 2.01   6 2.96  26 2.96

  37  1.000  0.375  0.604- 153 1.90 133 1.90 155 1.96 156 1.96 134 2.02 154 2.02  27 2.96   7 2.96

  38  0.750  0.500  0.611- 157 1.87 236 1.98 176 1.98 155 1.98  95 1.98 150 2.11  28 2.96   8 2.96

  39  0.750  0.375  0.720- 138 1.83 158 1.83 160 2.04 239 2.04 157 2.10 137 2.10  29 2.96   9 2.96

  40  0.000  0.500  0.709- 154 1.82 100 1.95  99 1.95 159 1.95 160 1.95  10 2.96  30 2.96
  41  0.250  0.625  0.287- 161 1.96 162 1.96 221 1.96 222 1.96  83 1.99 164 1.99  51 2.96  71 2.96

  42  0.500  0.750  0.287- 163 1.96 164 1.96 183 1.96 184 1.96 165 1.99  72 2.96  52 2.96
  43  0.500  0.625  0.393- 165 1.96 166 1.96 225 1.96 226 1.96 167 1.99 168 1.99  53 2.96  73 2.96

  44  0.250  0.750  0.393-  88 1.96 108 1.96 167 1.96 187 1.96 169 1.99 162 1.99  54 2.96  74 2.96

  45  0.250  0.625  0.500- 169 1.96 170 1.96 229 1.96 230 1.96  91 1.99 172 1.99  55 2.96  75 2.96

  46  0.500  0.750  0.500- 171 1.96 172 1.96 191 1.96 192 1.96 166 1.99 173 2.00  56 2.96  76 2.96

  47  0.500  0.624  0.605- 233 1.90 173 1.91 175 1.96 176 1.96 234 2.01 174 2.01  77 2.95  57 2.97

  48  0.250  0.750  0.611- 177 1.87 175 1.98 195 1.98 116 1.98  96 1.98 170 2.11  58 2.96  78 2.96

  49  0.250  0.625  0.720- 178 1.83 238 1.84  99 2.04 180 2.04 177 2.09 237 2.10  59 2.96  79 2.96

  50  0.500  0.751  0.708- 174 1.81 180 1.94 179 1.94 200 1.95 199 1.95  60 2.95  80 2.98
  51  0.250  0.875  0.287- 161 1.96 162 1.96 181 1.96 182 1.96 103 1.99 184 1.99  41 2.96  61 2.96

  52  0.500  0.000  0.287- 183 1.96 184 1.96 203 1.96 204 1.96 185 1.99  62 2.96  42 2.96
  53  0.500  0.875  0.393- 165 1.96 166 1.96 185 1.96 186 1.96 187 1.99 188 1.99  43 2.96  63 2.96

  54  0.250  0.000  0.393- 108 1.96 128 1.96 187 1.96 207 1.96 189 1.99 182 1.99  44 2.96  64 2.96

  55  0.250  0.875  0.500- 169 1.96 170 1.96 189 1.96 190 1.96 111 1.99 192 1.99  45 2.96  65 2.96

  56  0.500  0.000  0.500- 191 1.96 192 1.96 211 1.96 212 1.96 186 1.99 193 2.00  46 2.96  66 2.96

  57  0.500  0.875  0.604- 173 1.90 193 1.90 195 1.96 196 1.96 174 2.01 194 2.02  47 2.97  67 2.97

  58  0.250  0.000  0.611- 197 1.87 215 1.98 195 1.98 136 1.98 116 1.98 190 2.11  68 2.96  48 2.96

  59  0.250  0.875  0.720- 198 1.83 178 1.83 200 2.04 119 2.04 197 2.10 177 2.10  49 2.96  69 2.96

  60  0.500  0.000  0.708- 194 1.82 199 1.95 200 1.95 219 1.95 220 1.95  50 2.95  70 2.96
  61  0.250  0.125  0.287- 181 1.96 182 1.96 201 1.96 202 1.96 123 1.99 204 1.99  51 2.96  71 2.96

  62  0.500  0.250  0.287- 203 1.96 204 1.96 223 1.96 224 1.96 205 1.99  72 2.96  52 2.96
  63  0.500  0.125  0.393- 185 1.96 186 1.96 205 1.96 206 1.96 207 1.99 208 1.99  53 2.96  73 2.96

  64  0.250  0.250  0.393- 128 1.96 148 1.96 207 1.96 227 1.96 209 1.99 202 1.99  54 2.96  74 2.96

  65  0.250  0.125  0.500- 189 1.96 190 1.96 209 1.96 210 1.96 131 1.99 212 1.99  55 2.96  75 2.96

  66  0.500  0.250  0.500- 211 1.96 212 1.96 231 1.96 232 1.96 206 1.99 213 2.00  56 2.96  76 2.96

  67  0.500  0.125  0.604- 213 1.90 193 1.90 215 1.96 216 1.96 214 2.01 194 2.02  77 2.96  57 2.97

  68  0.250  0.250  0.611- 217 1.87 235 1.98 215 1.98 136 1.98 156 1.98 210 2.11  58 2.96  78 2.96

  69  0.250  0.125  0.720- 218 1.83 198 1.83 220 2.04 139 2.04 217 2.10 197 2.10  59 2.96  79 2.96

  70  0.500  0.250  0.708- 214 1.82 239 1.94 240 1.94 219 1.95 220 1.95  80 2.95  60 2.96
  71  0.250  0.375  0.287- 201 1.96 202 1.96 221 1.96 222 1.96 143 1.99 224 1.99  41 2.96  61 2.96

  72  0.500  0.500  0.287- 163 1.96 164 1.96 223 1.96 224 1.96 225 1.99  62 2.96  42 2.96
  73  0.500  0.375  0.393- 205 1.96 206 1.96 225 1.96 226 1.96 227 1.99 228 1.99  43 2.96  63 2.96

  74  0.250  0.500  0.393-  88 1.96 148 1.96 167 1.96 227 1.96 222 1.99 229 1.99  44 2.96  64 2.96

  75  0.250  0.375  0.500- 209 1.96 210 1.96 229 1.96 230 1.96 151 1.99 232 1.99  45 2.96  65 2.96

  76  0.500  0.500  0.500- 171 1.96 172 1.96 231 1.96 232 1.96 226 1.99 233 2.01  46 2.96  66 2.96

  77  0.500  0.376  0.605- 233 1.90 213 1.91 235 1.96 236 1.96 214 2.01 234 2.02  47 2.95  67 2.96

  78  0.250  0.500  0.611- 237 1.87 235 1.98 175 1.98 156 1.98  96 1.98 230 2.11  68 2.96  48 2.96

  79  0.250  0.375  0.720- 218 1.83 238 1.83 159 2.04 240 2.04 237 2.10 217 2.10  69 2.96  49 2.96

  80  0.500  0.499  0.710- 234 1.84 239 1.94 240 1.94 179 1.97 180 1.97  70 2.95  50 2.98
  81  0.750  0.750  0.245-   1 1.96  11 1.96
  82  0.750  0.750  0.328-   1 1.96  11 1.96   4 1.99
  83  0.098  0.625  0.287-   2 1.96  32 1.96  41 1.99
  84  0.902  0.625  0.287-   2 1.96  32 1.96   1 1.99
  85  0.000  0.750  0.352-   3 1.96  13 1.96   2 1.99
  86  0.000  0.750  0.435-   3 1.96  13 1.96   6 1.99
  87  0.848  0.625  0.393-   4 1.96  34 1.96   3 1.99
  88  0.152  0.625  0.393-  44 1.96  74 1.96   3 1.99
  89  0.750  0.750  0.458-   5 1.96  15 1.96   4 1.99
  90  0.750  0.750  0.542-   5 1.96  15 1.96   8 2.11
  91  0.098  0.625  0.500-   6 1.96  36 1.96  45 1.99
  92  0.902  0.625  0.500-   6 1.96  36 1.96   5 1.99
  93  0.000  0.750  0.565-   7 1.90  17 1.90   6 2.01
  94  0.000  0.750  0.649-  10 1.82  17 2.02   7 2.02
  95  0.850  0.625  0.607-   7 1.96   8 1.98  38 1.98
  96  0.150  0.625  0.607-   7 1.96  48 1.98  78 1.98
  97  0.750  0.750  0.672-   8 1.87   9 2.09  19 2.10
  98  0.750  0.750  0.756-   9 1.83  19 1.83
  99  0.094  0.625  0.719-  40 1.95  10 1.95  49 2.04
 100  0.906  0.625  0.719-  40 1.95  10 1.95   9 2.04
 101  0.750  0.000  0.245-  11 1.96  21 1.96
 102  0.750  0.000  0.328-  11 1.96  21 1.96  14 1.99
 103  0.098  0.875  0.287-   2 1.96  12 1.96  51 1.99
 104  0.902  0.875  0.287-   2 1.96  12 1.96  11 1.99
 105  0.000  0.000  0.352-  13 1.96  23 1.96  12 1.99
 106  0.000  0.000  0.435-  13 1.96  23 1.96  16 1.99
 107  0.848  0.875  0.393-   4 1.96  14 1.96  13 1.99
 108  0.152  0.875  0.393-  44 1.96  54 1.96  13 1.99
 109  0.750  0.000  0.458-  15 1.96  25 1.96  14 1.99
 110  0.750  0.000  0.542-  15 1.96  25 1.96  18 2.11
 111  0.098  0.875  0.500-   6 1.96  16 1.96  55 1.99
 112  0.902  0.875  0.500-   6 1.96  16 1.96  15 1.99
 113  0.000  0.000  0.566-  27 1.90  17 1.90  16 2.01
 114  0.000  0.000  0.649-  20 1.82  27 2.02  17 2.02
 115  0.850  0.875  0.607-  17 1.96   8 1.98  18 1.98
 116  0.150  0.875  0.607-  17 1.96  48 1.98  58 1.98
 117  0.750  0.000  0.672-  18 1.87  19 2.10  29 2.10
 118  0.750  0.000  0.756-  19 1.83  29 1.83
 119  0.094  0.875  0.719-  10 1.95  20 1.95  59 2.04
 120  0.906  0.875  0.719-  10 1.95  20 1.95  19 2.04
 121  0.750  0.250  0.245-  21 1.96  31 1.96
 122  0.750  0.250  0.328-  21 1.96  31 1.96  24 1.99
 123  0.098  0.125  0.287-  12 1.96  22 1.96  61 1.99
 124  0.902  0.125  0.287-  12 1.96  22 1.96  21 1.99
 125  0.000  0.250  0.352-  23 1.96  33 1.96  22 1.99
 126  0.000  0.250  0.435-  23 1.96  33 1.96  26 1.99
 127  0.848  0.125  0.393-  14 1.96  24 1.96  23 1.99
 128  0.152  0.125  0.393-  54 1.96  64 1.96  23 1.99
 129  0.750  0.250  0.458-  25 1.96  35 1.96  24 1.99
 130  0.750  0.250  0.542-  25 1.96  35 1.96  28 2.11
 131  0.098  0.125  0.500-  16 1.96  26 1.96  65 1.99
 132  0.902  0.125  0.500-  16 1.96  26 1.96  25 1.99
 133  0.000  0.250  0.566-  37 1.90  27 1.90  26 2.01
 134  0.000  0.250  0.649-  30 1.82  37 2.02  27 2.02
 135  0.850  0.125  0.607-  27 1.96  28 1.98  18 1.98
 136  0.150  0.125  0.607-  27 1.96  68 1.98  58 1.98
 137  0.751  0.250  0.672-  28 1.87  29 2.10  39 2.10
 138  0.750  0.250  0.756-  39 1.83  29 1.83
 139  0.094  0.125  0.719-  30 1.95  20 1.95  69 2.04
 140  0.906  0.125  0.719-  30 1.95  20 1.95  29 2.04
 141  0.750  0.500  0.245-   1 1.96  31 1.96
 142  0.750  0.500  0.328-   1 1.96  31 1.96  34 1.99
 143  0.098  0.375  0.287-  22 1.96  32 1.96  71 1.99
 144  0.902  0.375  0.287-  22 1.96  32 1.96  31 1.99
 145  0.000  0.500  0.352-   3 1.96  33 1.96  32 1.99
 146  0.000  0.500  0.435-   3 1.96  33 1.96  36 1.99
 147  0.848  0.375  0.393-  24 1.96  34 1.96  33 1.99
 148  0.152  0.375  0.393-  64 1.96  74 1.96  33 1.99
 149  0.750  0.500  0.458-   5 1.96  35 1.96  34 1.99
 150  0.750  0.500  0.542-   5 1.96  35 1.96  38 2.11
 151  0.098  0.375  0.500-  26 1.96  36 1.96  75 1.99
 152  0.902  0.375  0.500-  26 1.96  36 1.96  35 1.99
 153  0.000  0.500  0.565-  37 1.90   7 1.90  36 2.01
 154  0.000  0.500  0.649-  40 1.82   7 2.02  37 2.02
 155  0.850  0.375  0.607-  37 1.96  38 1.98  28 1.98
 156  0.150  0.375  0.607-  37 1.96  78 1.98  68 1.98
 157  0.751  0.500  0.672-  38 1.87   9 2.10  39 2.10
 158  0.749  0.500  0.756-  39 1.83   9 1.84
 159  0.094  0.375  0.719-  40 1.95  30 1.95  79 2.04
 160  0.906  0.375  0.719-  40 1.95  30 1.95  39 2.04
 161  0.250  0.750  0.245-  41 1.96  51 1.96
 162  0.250  0.750  0.328-  41 1.96  51 1.96  44 1.99
 163  0.598  0.625  0.287-  42 1.96  72 1.96   1 1.99
 164  0.402  0.625  0.287-  42 1.96  72 1.96  41 1.99
 165  0.500  0.750  0.352-  43 1.96  53 1.96  42 1.99
 166  0.500  0.750  0.435-  43 1.96  53 1.96  46 1.99
 167  0.348  0.625  0.393-  44 1.96  74 1.96  43 1.99
 168  0.652  0.625  0.393-   4 1.96  34 1.96  43 1.99
 169  0.250  0.750  0.458-  45 1.96  55 1.96  44 1.99
 170  0.250  0.750  0.542-  45 1.96  55 1.96  48 2.11
 171  0.598  0.625  0.500-  46 1.96  76 1.96   5 1.99
 172  0.402  0.625  0.500-  46 1.96  76 1.96  45 1.99
 173  0.500  0.750  0.565-  57 1.90  47 1.91  46 2.00
 174  0.500  0.750  0.649-  50 1.81  57 2.01  47 2.01
 175  0.350  0.625  0.607-  47 1.96  78 1.98  48 1.98
 176  0.650  0.625  0.607-  47 1.96  38 1.98   8 1.98
 177  0.250  0.750  0.672-  48 1.87  49 2.09  59 2.10
 178  0.250  0.750  0.756-  49 1.83  59 1.83
 179  0.594  0.626  0.719-  50 1.94  80 1.97   9 2.04
 180  0.406  0.626  0.719-  50 1.94  80 1.97  49 2.04
 181  0.250  0.000  0.245-  51 1.96  61 1.96
 182  0.250  0.000  0.328-  51 1.96  61 1.96  54 1.99
 183  0.598  0.875  0.287-  42 1.96  52 1.96  11 1.99
 184  0.402  0.875  0.287-  42 1.96  52 1.96  51 1.99
 185  0.500  0.000  0.352-  53 1.96  63 1.96  52 1.99
 186  0.500  0.000  0.435-  53 1.96  63 1.96  56 1.99
 187  0.348  0.875  0.393-  44 1.96  54 1.96  53 1.99
 188  0.652  0.875  0.393-   4 1.96  14 1.96  53 1.99
 189  0.250  0.000  0.458-  55 1.96  65 1.96  54 1.99
 190  0.250  0.000  0.542-  55 1.96  65 1.96  58 2.11
 191  0.598  0.875  0.500-  46 1.96  56 1.96  15 1.99
 192  0.402  0.875  0.500-  46 1.96  56 1.96  55 1.99
 193  0.500  0.000  0.565-  57 1.90  67 1.90  56 2.00
 194  0.500  0.000  0.649-  60 1.82  67 2.02  57 2.02
 195  0.350  0.875  0.607-  57 1.96  58 1.98  48 1.98
 196  0.650  0.875  0.607-  57 1.96  18 1.98   8 1.98
 197  0.250  0.000  0.672-  58 1.87  59 2.10  69 2.10
 198  0.250  0.000  0.756-  59 1.83  69 1.83
 199  0.594  0.876  0.719-  60 1.95  50 1.95  19 2.04
 200  0.406  0.876  0.719-  60 1.95  50 1.95  59 2.04
 201  0.250  0.250  0.245-  61 1.96  71 1.96
 202  0.250  0.250  0.328-  61 1.96  71 1.96  64 1.99
 203  0.598  0.125  0.287-  52 1.96  62 1.96  21 1.99
 204  0.402  0.125  0.287-  52 1.96  62 1.96  61 1.99
 205  0.500  0.250  0.352-  63 1.96  73 1.96  62 1.99
 206  0.500  0.250  0.435-  63 1.96  73 1.96  66 1.99
 207  0.348  0.125  0.393-  54 1.96  64 1.96  63 1.99
 208  0.652  0.125  0.393-  14 1.96  24 1.96  63 1.99
 209  0.250  0.250  0.458-  65 1.96  75 1.96  64 1.99
 210  0.250  0.250  0.542-  65 1.96  75 1.96  68 2.11
 211  0.598  0.125  0.500-  56 1.96  66 1.96  25 1.99
 212  0.402  0.125  0.500-  56 1.96  66 1.96  65 1.99
 213  0.500  0.251  0.565-  67 1.90  77 1.91  66 2.00
 214  0.500  0.249  0.649-  70 1.82  67 2.01  77 2.01
 215  0.350  0.125  0.607-  67 1.96  58 1.98  68 1.98
 216  0.650  0.125  0.607-  67 1.96  18 1.98  28 1.98
 217  0.249  0.250  0.672-  68 1.87  69 2.10  79 2.10
 218  0.250  0.250  0.756-  79 1.83  69 1.83
 219  0.594  0.125  0.719-  70 1.95  60 1.95  29 2.04
 220  0.406  0.125  0.719-  70 1.95  60 1.95  69 2.04
 221  0.250  0.500  0.245-  41 1.96  71 1.96
 222  0.250  0.500  0.328-  41 1.96  71 1.96  74 1.99
 223  0.598  0.375  0.287-  62 1.96  72 1.96  31 1.99
 224  0.402  0.375  0.287-  62 1.96  72 1.96  71 1.99
 225  0.500  0.500  0.352-  43 1.96  73 1.96  72 1.99
 226  0.500  0.500  0.435-  43 1.96  73 1.96  76 1.99
 227  0.348  0.375  0.393-  64 1.96  74 1.96  73 1.99
 228  0.652  0.375  0.393-  24 1.96  34 1.96  73 1.99
 229  0.250  0.500  0.458-  45 1.96  75 1.96  74 1.99
 230  0.250  0.500  0.542-  45 1.96  75 1.96  78 2.11
 231  0.598  0.375  0.500-  66 1.96  76 1.96  35 1.99
 232  0.402  0.375  0.500-  66 1.96  76 1.96  75 1.99
 233  0.500  0.500  0.566-  77 1.90  47 1.90  76 2.01
 234  0.500  0.500  0.650-  80 1.84  47 2.01  77 2.02
 235  0.350  0.375  0.607-  77 1.96  78 1.98  68 1.98
 236  0.650  0.375  0.607-  77 1.96  38 1.98  28 1.98
 237  0.249  0.500  0.672-  78 1.87  49 2.10  79 2.10
 238  0.251  0.500  0.756-  79 1.83  49 1.84
 239  0.594  0.374  0.718-  80 1.94  70 1.94  39 2.04
 240  0.406  0.374  0.718-  80 1.94  70 1.94  79 2.04


IMPORTANT INFORMATION: All symmetrisations will be switched off!
NOSYMM: (Re-)initialisation of all symmetry stuff for point group C_1.


----------------------------------------------------------------------------------------

                                     Primitive cell                                     

  volume of cell :    4737.1735

  direct lattice vectors                    reciprocal lattice vectors
    13.061198858  0.000000000  0.000000000     0.076562650  0.000000000  0.000000000
     0.000000000 11.845266045  0.000000000     0.000000000  0.084421911  0.000000000
     0.000000000  0.000000000 30.619030317     0.000000000  0.000000000  0.032659427

  length of vectors
    13.061198858 11.845266045 30.619030317     0.076562650  0.084421911  0.032659427

  position of ions in fractional coordinates (direct lattice)
     0.750000000  0.625000000  0.286714362
     0.000000000  0.750000000  0.286714362
     0.000000000  0.625000000  0.393357181
     0.750000000  0.750000000  0.393357181
     0.750000000  0.625000000  0.500000000
     0.000000000  0.750000000  0.500000000
     0.999997730  0.625102972  0.604468159
     0.750015518  0.750119532  0.610643162
     0.750108957  0.625440450  0.720121382
     0.000000209  0.750277880  0.708629007
     0.750000000  0.875000000  0.286714362
     0.000000000  0.000000000  0.286714362
     0.000000000  0.875000000  0.393357181
     0.750000000  0.000000000  0.393357181
     0.750000000  0.875000000  0.500000000
     0.000000000  0.000000000  0.500000000
     0.999997440  0.875086590  0.604494786
     0.749976650  0.000080314  0.610743708
     0.749836633  0.875296726  0.720451037
     0.000000207  0.000134966  0.708642658
     0.750000000  0.125000000  0.286714362
     0.000000000  0.250000000  0.286714362
     0.000000000  0.125000000  0.393357181
     0.750000000  0.250000000  0.393357181
     0.750000000  0.125000000  0.500000000
     0.000000000  0.250000000  0.500000000
     0.999995905  0.125051855  0.604486335
     0.750035004  0.250036805  0.610726506
     0.749933453  0.125247892  0.720420831
     0.000000236  0.250067911  0.708633681
     0.750000000  0.375000000  0.286714362
     0.000000000  0.500000000  0.286714362
     0.000000000  0.375000000  0.393357181
     0.750000000  0.500000000  0.393357181
     0.750000000  0.375000000  0.500000000
     0.000000000  0.500000000  0.500000000
     0.999996240  0.375071083  0.604473967
     0.750045879  0.500064619  0.610675810
     0.750232335  0.375280991  0.720349871
     0.000000198  0.500243396  0.708611342
     0.250000000  0.625000000  0.286714362
     0.500000000  0.750000000  0.286714362
     0.500000000  0.625000000  0.393357181
     0.250000000  0.750000000  0.393357181
     0.250000000  0.625000000  0.500000000
     0.500000000  0.750000000  0.500000000
     0.499997755  0.624439602  0.604881231
     0.249981621  0.750119523  0.610643167
     0.249891515  0.625440404  0.720121377
     0.500000182  0.750706584  0.708221189
     0.250000000  0.875000000  0.286714362
     0.500000000  0.000000000  0.286714362
     0.500000000  0.875000000  0.393357181
     0.250000000  0.000000000  0.393357181
     0.250000000  0.875000000  0.500000000
     0.500000000  0.000000000  0.500000000
     0.499997387  0.874799944  0.604158311
     0.250017830  0.000080320  0.610743713
     0.250163730  0.875296726  0.720451041
     0.500000233  0.000136013  0.708292611
     0.250000000  0.125000000  0.286714362
     0.500000000  0.250000000  0.286714362
     0.500000000  0.125000000  0.393357181
     0.250000000  0.250000000  0.393357181
     0.250000000  0.125000000  0.500000000
     0.500000000  0.250000000  0.500000000
     0.499995810  0.125302965  0.604186743
     0.249957826  0.250036789  0.610726510
     0.250067091  0.125247907  0.720420845
     0.500000254  0.249663618  0.708299654
     0.250000000  0.375000000  0.286714362
     0.500000000  0.500000000  0.286714362
     0.500000000  0.375000000  0.393357181
     0.250000000  0.500000000  0.393357181
     0.250000000  0.375000000  0.500000000
     0.500000000  0.500000000  0.500000000
     0.499996204  0.375605849  0.604886687
     0.249949543  0.500064654  0.610675800
     0.249768095  0.375280947  0.720349874
     0.500000217  0.498891840  0.709772896
     0.750000000  0.750000000  0.244945706
     0.750000000  0.750000000  0.328483017
     0.097917178  0.625000000  0.286714362
     0.902082822  0.625000000  0.286714362
     0.000000000  0.750000000  0.351588525
     0.000000000  0.750000000  0.435125836
     0.847917178  0.625000000  0.393357181
     0.152082822  0.625000000  0.393357181
     0.750000000  0.750000000  0.458231344
     0.750000000  0.750000000  0.541768656
     0.097917178  0.625000000  0.500000000
     0.902082822  0.625000000  0.500000000
     0.000000385  0.750108553  0.565496788
     0.000000364  0.750080131  0.649282049
     0.850129983  0.625124352  0.607185651
     0.149870941  0.625124413  0.607185756
     0.750391716  0.750260898  0.671777027
     0.749564183  0.750009462  0.755682208
     0.093895153  0.625153196  0.719219268
     0.906105255  0.625153171  0.719219259
     0.750000000  0.000000000  0.244945706
     0.750000000  0.000000000  0.328483017
     0.097917178  0.875000000  0.286714362
     0.902082822  0.875000000  0.286714362
     0.000000000  0.000000000  0.351588525
     0.000000000  0.000000000  0.435125836
     0.847917178  0.875000000  0.393357181
     0.152082822  0.875000000  0.393357181
     0.750000000  0.000000000  0.458231344
     0.750000000  0.000000000  0.541768656
     0.097917178  0.875000000  0.500000000
     0.902082822  0.875000000  0.500000000
     0.000000396  0.000070771  0.565503541
     0.000000353  0.000091303  0.649290993
     0.850119025  0.875076007  0.607200159
     0.149881879  0.875075892  0.607200276
     0.750266657  0.000116187  0.671845110
     0.750061946  0.000212164  0.755726035
     0.093897607  0.875140959  0.719180688
     0.906102786  0.875140970  0.719180657
     0.750000000  0.250000000  0.244945706
     0.750000000  0.250000000  0.328483017
     0.097917178  0.125000000  0.286714362
     0.902082822  0.125000000  0.286714362
     0.000000000  0.250000000  0.351588525
     0.000000000  0.250000000  0.435125836
     0.847917178  0.125000000  0.393357181
     0.152082822  0.125000000  0.393357181
     0.750000000  0.250000000  0.458231344
     0.750000000  0.250000000  0.541768656
     0.097917178  0.125000000  0.500000000
     0.902082822  0.125000000  0.500000000
     0.000000391  0.250050384  0.565504073
     0.000000359  0.250147386  0.649296759
     0.850134821  0.125042072  0.607195721
     0.149866102  0.125042000  0.607195883
     0.750601160  0.249933163  0.671807970
     0.749791718  0.250359005  0.755679401
     0.093862957  0.125218252  0.719183281
     0.906137417  0.125218296  0.719183258
     0.750000000  0.500000000  0.244945706
     0.750000000  0.500000000  0.328483017
     0.097917178  0.375000000  0.286714362
     0.902082822  0.375000000  0.286714362
     0.000000000  0.500000000  0.351588525
     0.000000000  0.500000000  0.435125836
     0.847917178  0.375000000  0.393357181
     0.152082822  0.375000000  0.393357181
     0.750000000  0.500000000  0.458231344
     0.750000000  0.500000000  0.541768656
     0.097917178  0.375000000  0.500000000
     0.902082822  0.375000000  0.500000000
     0.000000387  0.500071623  0.565498111
     0.000000370  0.500118153  0.649275591
     0.850127838  0.375069894  0.607193468
     0.149873088  0.375069980  0.607193623
     0.750584890  0.500215685  0.671781462
     0.748533978  0.500443491  0.755629629
     0.093901114  0.375285022  0.719245561
     0.906099263  0.375285019  0.719245538
     0.250000000  0.750000000  0.244945706
     0.250000000  0.750000000  0.328483017
     0.597917178  0.625000000  0.286714362
     0.402082822  0.625000000  0.286714362
     0.500000000  0.750000000  0.351588525
     0.500000000  0.750000000  0.435125836
     0.347917178  0.625000000  0.393357181
     0.652082822  0.625000000  0.393357181
     0.250000000  0.750000000  0.458231344
     0.250000000  0.750000000  0.541768656
     0.597917178  0.625000000  0.500000000
     0.402082822  0.625000000  0.500000000
     0.500000362  0.749569282  0.565465767
     0.500000374  0.750496023  0.648947499
     0.349940512  0.625072029  0.607303997
     0.650060382  0.625072100  0.607304108
     0.249608727  0.750260894  0.671777022
     0.250436202  0.750009427  0.755682221
     0.594076186  0.626321581  0.718610829
     0.405924176  0.626321605  0.718610798
     0.250000000  0.000000000  0.244945706
     0.250000000  0.000000000  0.328483017
     0.597917178  0.875000000  0.286714362
     0.402082822  0.875000000  0.286714362
     0.500000000  0.000000000  0.351588525
     0.500000000  0.000000000  0.435125836
     0.347917178  0.875000000  0.393357181
     0.652082822  0.875000000  0.393357181
     0.250000000  0.000000000  0.458231344
     0.250000000  0.000000000  0.541768656
     0.597917178  0.875000000  0.500000000
     0.402082822  0.875000000  0.500000000
     0.500000408  0.000057139  0.565313208
     0.500000382  0.000097724  0.648982100
     0.349979506  0.875134711  0.607167023
     0.650021412  0.875134607  0.607167150
     0.249733643  0.000116162  0.671845114
     0.249938439  0.000212154  0.755726051
     0.594043410  0.875536550  0.718807946
     0.405956954  0.875536501  0.718807924
     0.250000000  0.250000000  0.244945706
     0.250000000  0.250000000  0.328483017
     0.597917178  0.125000000  0.286714362
     0.402082822  0.125000000  0.286714362
     0.500000000  0.250000000  0.351588525
     0.500000000  0.250000000  0.435125836
     0.347917178  0.125000000  0.393357181
     0.652082822  0.125000000  0.393357181
     0.250000000  0.250000000  0.458231344
     0.250000000  0.250000000  0.541768656
     0.597917178  0.125000000  0.500000000
     0.402082822  0.125000000  0.500000000
     0.500000354  0.250559840  0.565479696
     0.500000424  0.249464213  0.648995509
     0.349958999  0.125024243  0.607176616
     0.650041932  0.125024197  0.607176773
     0.249399119  0.249933163  0.671807981
     0.250208652  0.250358998  0.755679416
     0.594035447  0.124938630  0.718912260
     0.405964923  0.124938626  0.718912200
     0.250000000  0.500000000  0.244945706
     0.250000000  0.500000000  0.328483017
     0.597917178  0.375000000  0.286714362
     0.402082822  0.375000000  0.286714362
     0.500000000  0.500000000  0.351588525
     0.500000000  0.500000000  0.435125836
     0.347917178  0.375000000  0.393357181
     0.652082822  0.375000000  0.393357181
     0.250000000  0.500000000  0.458231344
     0.250000000  0.500000000  0.541768656
     0.597917178  0.375000000  0.500000000
     0.402082822  0.375000000  0.500000000
     0.500000378  0.499990303  0.565621002
     0.500000292  0.500195881  0.649701480
     0.349949746  0.375058632  0.607370072
     0.650051167  0.375058746  0.607370203
     0.249415510  0.500215657  0.671781451
     0.251466405  0.500443531  0.755629632
     0.594375237  0.374044394  0.718034137
     0.405625163  0.374044406  0.718034116

  ion indices of the primitive-cell ions
   primitive index   ion index
                 1           1
                 2           2
                 3           3
                 4           4
                 5           5
                 6           6
                 7           7
                 8           8
                 9           9
                10          10
                11          11
                12          12
                13          13
                14          14
                15          15
                16          16
                17          17
                18          18
                19          19
                20          20
                21          21
                22          22
                23          23
                24          24
                25          25
                26          26
                27          27
                28          28
                29          29
                30          30
                31          31
                32          32
                33          33
                34          34
                35          35
                36          36
                37          37
                38          38
                39          39
                40          40
                41          41
                42          42
                43          43
                44          44
                45          45
                46          46
                47          47
                48          48
                49          49
                50          50
                51          51
                52          52
                53          53
                54          54
                55          55
                56          56
                57          57
                58          58
                59          59
                60          60
                61          61
                62          62
                63          63
                64          64
                65          65
                66          66
                67          67
                68          68
                69          69
                70          70
                71          71
                72          72
                73          73
                74          74
                75          75
                76          76
                77          77
                78          78
                79          79
                80          80
                81          81
                82          82
                83          83
                84          84
                85          85
                86          86
                87          87
                88          88
                89          89
                90          90
                91          91
                92          92
                93          93
                94          94
                95          95
                96          96
                97          97
                98          98
                99          99
               100         100
               101         101
               102         102
               103         103
               104         104
               105         105
               106         106
               107         107
               108         108
               109         109
               110         110
               111         111
               112         112
               113         113
               114         114
               115         115
               116         116
               117         117
               118         118
               119         119
               120         120
               121         121
               122         122
               123         123
               124         124
               125         125
               126         126
               127         127
               128         128
               129         129
               130         130
               131         131
               132         132
               133         133
               134         134
               135         135
               136         136
               137         137
               138         138
               139         139
               140         140
               141         141
               142         142
               143         143
               144         144
               145         145
               146         146
               147         147
               148         148
               149         149
               150         150
               151         151
               152         152
               153         153
               154         154
               155         155
               156         156
               157         157
               158         158
               159         159
               160         160
               161         161
               162         162
               163         163
               164         164
               165         165
               166         166
               167         167
               168         168
               169         169
               170         170
               171         171
               172         172
               173         173
               174         174
               175         175
               176         176
               177         177
               178         178
               179         179
               180         180
               181         181
               182         182
               183         183
               184         184
               185         185
               186         186
               187         187
               188         188
               189         189
               190         190
               191         191
               192         192
               193         193
               194         194
               195         195
               196         196
               197         197
               198         198
               199         199
               200         200
               201         201
               202         202
               203         203
               204         204
               205         205
               206         206
               207         207
               208         208
               209         209
               210         210
               211         211
               212         212
               213         213
               214         214
               215         215
               216         216
               217         217
               218         218
               219         219
               220         220
               221         221
               222         222
               223         223
               224         224
               225         225
               226         226
               227         227
               228         228
               229         229
               230         230
               231         231
               232         232
               233         233
               234         234
               235         235
               236         236
               237         237
               238         238
               239         239
               240         240

----------------------------------------------------------------------------------------



 KPOINTS: pymatgen v2020.8.13 with grid density = 

Automatic generation of k-mesh.
 Grid dimensions read from file:
 generate k-points for:    2    2    1

 Generating k-lattice:

  Cartesian coordinates                     Fractional coordinates (reciprocal lattice)
     0.038281325  0.000000000  0.000000000     0.500000000  0.000000000  0.000000000
     0.000000000  0.042210956  0.000000000     0.000000000  0.500000000  0.000000000
     0.000000000  0.000000000  0.032659427     0.000000000  0.000000000  1.000000000

  Length of vectors
     0.038281325  0.042210956  0.032659427

  Shift w.r.t. Gamma in fractional coordinates (k-lattice)
     0.000000000  0.000000000  0.000000000

 
 Subroutine IBZKPT returns following result:
 ===========================================
 
 Found      4 irreducible k-points:
 
 Following reciprocal coordinates:
            Coordinates               Weight
  0.000000  0.000000  0.000000      1.000000
  0.500000  0.000000  0.000000      1.000000
  0.000000  0.500000  0.000000      1.000000
  0.500000  0.500000  0.000000      1.000000
 
 Following cartesian coordinates:
            Coordinates               Weight
  0.000000  0.000000  0.000000      1.000000
  0.038281  0.000000  0.000000      1.000000
  0.000000  0.042211  0.000000      1.000000
  0.038281  0.042211  0.000000      1.000000
 


--------------------------------------------------------------------------------------------------------




 Dimension of arrays:
   k-points           NKPTS =      4   k-points in BZ     NKDIM =      4   number of bands    NBANDS=   1056
   number of dos      NEDOS =    301   number of ions     NIONS =    240
   non local maximal  LDIM  =      6   non local SUM 2l+1 LMDIM =     18
   total plane-waves  NPLWV = ******
   max r-space proj   IRMAX =      1   max aug-charges    IRDMAX=  21440
   dimension x,y,z NGX =   108 NGY =   96 NGZ =  250
   dimension x,y,z NGXF=   216 NGYF=  192 NGZF=  500
   support grid    NGXF=   216 NGYF=  192 NGZF=  500
   ions per type =              80 160
   NGX,Y,Z   is equivalent  to a cutoff of  13.75, 13.47, 13.57 a.u.
   NGXF,Y,Z  is equivalent  to a cutoff of  27.49, 26.95, 27.15 a.u.

 SYSTEM =  TiO2                                    
 POSCAR =  Ti  O                                   

--------------------------------------------------------------------------------------------------------


  energy-cutoff  :      600.00
  volume of cell :     4737.17
      direct lattice vectors                 reciprocal lattice vectors
    13.061198858  0.000000000  0.000000000     0.076562650  0.000000000  0.000000000
     0.000000000 11.845266045  0.000000000     0.000000000  0.084421911  0.000000000
     0.000000000  0.000000000 30.619030317     0.000000000  0.000000000  0.032659427

  length of vectors
    13.061198858 11.845266045 30.619030317     0.076562650  0.084421911  0.032659427



 k-points in units of 2pi/SCALE and weight: pymatgen v2020.8.13 with grid density = 
   0.00000000  0.00000000  0.00000000       0.250
   0.03828133  0.00000000  0.00000000       0.250
   0.00000000  0.04221096  0.00000000       0.250
   0.03828133  0.04221096  0.00000000       0.250

 k-points in reciprocal lattice and weights: pymatgen v2020.8.13 with grid density = 
   0.00000000  0.00000000  0.00000000       0.250
   0.50000000  0.00000000  0.00000000       0.250
   0.00000000  0.50000000  0.00000000       0.250
   0.50000000  0.50000000  0.00000000       0.250

 position of ions in fractional coordinates (direct lattice) 
   0.75000000  0.62500000  0.28671436
   0.00000000  0.75000000  0.28671436
   0.00000000  0.62500000  0.39335718
   0.75000000  0.75000000  0.39335718
   0.75000000  0.62500000  0.50000000
   0.00000000  0.75000000  0.50000000
   0.99999773  0.62510297  0.60446816
   0.75001552  0.75011953  0.61064316
   0.75010896  0.62544045  0.72012138
   0.00000021  0.75027788  0.70862901
   0.75000000  0.87500000  0.28671436
   0.00000000  0.00000000  0.28671436
   0.00000000  0.87500000  0.39335718
   0.75000000  0.00000000  0.39335718
   0.75000000  0.87500000  0.50000000
   0.00000000  0.00000000  0.50000000
   0.99999744  0.87508659  0.60449479
   0.74997665  0.00008031  0.61074371
   0.74983663  0.87529673  0.72045104
   0.00000021  0.00013497  0.70864266
   0.75000000  0.12500000  0.28671436
   0.00000000  0.25000000  0.28671436
   0.00000000  0.12500000  0.39335718
   0.75000000  0.25000000  0.39335718
   0.75000000  0.12500000  0.50000000
   0.00000000  0.25000000  0.50000000
   0.99999591  0.12505186  0.60448633
   0.75003500  0.25003681  0.61072651
   0.74993345  0.12524789  0.72042083
   0.00000024  0.25006791  0.70863368
   0.75000000  0.37500000  0.28671436
   0.00000000  0.50000000  0.28671436
   0.00000000  0.37500000  0.39335718
   0.75000000  0.50000000  0.39335718
   0.75000000  0.37500000  0.50000000
   0.00000000  0.50000000  0.50000000
   0.99999624  0.37507108  0.60447397
   0.75004588  0.50006462  0.61067581
   0.75023233  0.37528099  0.72034987
   0.00000020  0.50024340  0.70861134
   0.25000000  0.62500000  0.28671436
   0.50000000  0.75000000  0.28671436
   0.50000000  0.62500000  0.39335718
   0.25000000  0.75000000  0.39335718
   0.25000000  0.62500000  0.50000000
   0.50000000  0.75000000  0.50000000
   0.49999776  0.62443960  0.60488123
   0.24998162  0.75011952  0.61064317
   0.24989152  0.62544040  0.72012138
   0.50000018  0.75070658  0.70822119
   0.25000000  0.87500000  0.28671436
   0.50000000  0.00000000  0.28671436
   0.50000000  0.87500000  0.39335718
   0.25000000  0.00000000  0.39335718
   0.25000000  0.87500000  0.50000000
   0.50000000  0.00000000  0.50000000
   0.49999739  0.87479994  0.60415831
   0.25001783  0.00008032  0.61074371
   0.25016373  0.87529673  0.72045104
   0.50000023  0.00013601  0.70829261
   0.25000000  0.12500000  0.28671436
   0.50000000  0.25000000  0.28671436
   0.50000000  0.12500000  0.39335718
   0.25000000  0.25000000  0.39335718
   0.25000000  0.12500000  0.50000000
   0.50000000  0.25000000  0.50000000
   0.49999581  0.12530297  0.60418674
   0.24995783  0.25003679  0.61072651
   0.25006709  0.12524791  0.72042085
   0.50000025  0.24966362  0.70829965
   0.25000000  0.37500000  0.28671436
   0.50000000  0.50000000  0.28671436
   0.50000000  0.37500000  0.39335718
   0.25000000  0.50000000  0.39335718
   0.25000000  0.37500000  0.50000000
   0.50000000  0.50000000  0.50000000
   0.49999620  0.37560585  0.60488669
   0.24994954  0.50006465  0.61067580
   0.24976810  0.37528095  0.72034987
   0.50000022  0.49889184  0.70977290
   0.75000000  0.75000000  0.24494571
   0.75000000  0.75000000  0.32848302
   0.09791718  0.62500000  0.28671436
   0.90208282  0.62500000  0.28671436
   0.00000000  0.75000000  0.35158853
   0.00000000  0.75000000  0.43512584
   0.84791718  0.62500000  0.39335718
   0.15208282  0.62500000  0.39335718
   0.75000000  0.75000000  0.45823134
   0.75000000  0.75000000  0.54176866
   0.09791718  0.62500000  0.50000000
   0.90208282  0.62500000  0.50000000
   0.00000039  0.75010855  0.56549679
   0.00000036  0.75008013  0.64928205
   0.85012998  0.62512435  0.60718565
   0.14987094  0.62512441  0.60718576
   0.75039172  0.75026090  0.67177703
   0.74956418  0.75000946  0.75568221
   0.09389515  0.62515320  0.71921927
   0.90610526  0.62515317  0.71921926
   0.75000000  0.00000000  0.24494571
   0.75000000  0.00000000  0.32848302
   0.09791718  0.87500000  0.28671436
   0.90208282  0.87500000  0.28671436
   0.00000000  0.00000000  0.35158853
   0.00000000  0.00000000  0.43512584
   0.84791718  0.87500000  0.39335718
   0.15208282  0.87500000  0.39335718
   0.75000000  0.00000000  0.45823134
   0.75000000  0.00000000  0.54176866
   0.09791718  0.87500000  0.50000000
   0.90208282  0.87500000  0.50000000
   0.00000040  0.00007077  0.56550354
   0.00000035  0.00009130  0.64929099
   0.85011903  0.87507601  0.60720016
   0.14988188  0.87507589  0.60720028
   0.75026666  0.00011619  0.67184511
   0.75006195  0.00021216  0.75572604
   0.09389761  0.87514096  0.71918069
   0.90610279  0.87514097  0.71918066
   0.75000000  0.25000000  0.24494571
   0.75000000  0.25000000  0.32848302
   0.09791718  0.12500000  0.28671436
   0.90208282  0.12500000  0.28671436
   0.00000000  0.25000000  0.35158853
   0.00000000  0.25000000  0.43512584
   0.84791718  0.12500000  0.39335718
   0.15208282  0.12500000  0.39335718
   0.75000000  0.25000000  0.45823134
   0.75000000  0.25000000  0.54176866
   0.09791718  0.12500000  0.50000000
   0.90208282  0.12500000  0.50000000
   0.00000039  0.25005038  0.56550407
   0.00000036  0.25014739  0.64929676
   0.85013482  0.12504207  0.60719572
   0.14986610  0.12504200  0.60719588
   0.75060116  0.24993316  0.67180797
   0.74979172  0.25035900  0.75567940
   0.09386296  0.12521825  0.71918328
   0.90613742  0.12521830  0.71918326
   0.75000000  0.50000000  0.24494571
   0.75000000  0.50000000  0.32848302
   0.09791718  0.37500000  0.28671436
   0.90208282  0.37500000  0.28671436
   0.00000000  0.50000000  0.35158853
   0.00000000  0.50000000  0.43512584
   0.84791718  0.37500000  0.39335718
   0.15208282  0.37500000  0.39335718
   0.75000000  0.50000000  0.45823134
   0.75000000  0.50000000  0.54176866
   0.09791718  0.37500000  0.50000000
   0.90208282  0.37500000  0.50000000
   0.00000039  0.50007162  0.56549811
   0.00000037  0.50011815  0.64927559
   0.85012784  0.37506989  0.60719347
   0.14987309  0.37506998  0.60719362
   0.75058489  0.50021568  0.67178146
   0.74853398  0.50044349  0.75562963
   0.09390111  0.37528502  0.71924556
   0.90609926  0.37528502  0.71924554
   0.25000000  0.75000000  0.24494571
   0.25000000  0.75000000  0.32848302
   0.59791718  0.62500000  0.28671436
   0.40208282  0.62500000  0.28671436
   0.50000000  0.75000000  0.35158853
   0.50000000  0.75000000  0.43512584
   0.34791718  0.62500000  0.39335718
   0.65208282  0.62500000  0.39335718
   0.25000000  0.75000000  0.45823134
   0.25000000  0.75000000  0.54176866
   0.59791718  0.62500000  0.50000000
   0.40208282  0.62500000  0.50000000
   0.50000036  0.74956928  0.56546577
   0.50000037  0.75049602  0.64894750
   0.34994051  0.62507203  0.60730400
   0.65006038  0.62507210  0.60730411
   0.24960873  0.75026089  0.67177702
   0.25043620  0.75000943  0.75568222
   0.59407619  0.62632158  0.71861083
   0.40592418  0.62632161  0.71861080
   0.25000000  0.00000000  0.24494571
   0.25000000  0.00000000  0.32848302
   0.59791718  0.87500000  0.28671436
   0.40208282  0.87500000  0.28671436
   0.50000000  0.00000000  0.35158853
   0.50000000  0.00000000  0.43512584
   0.34791718  0.87500000  0.39335718
   0.65208282  0.87500000  0.39335718
   0.25000000  0.00000000  0.45823134
   0.25000000  0.00000000  0.54176866
   0.59791718  0.87500000  0.50000000
   0.40208282  0.87500000  0.50000000
   0.50000041  0.00005714  0.56531321
   0.50000038  0.00009772  0.64898210
   0.34997951  0.87513471  0.60716702
   0.65002141  0.87513461  0.60716715
   0.24973364  0.00011616  0.67184511
   0.24993844  0.00021215  0.75572605
   0.59404341  0.87553655  0.71880795
   0.40595695  0.87553650  0.71880792
   0.25000000  0.25000000  0.24494571
   0.25000000  0.25000000  0.32848302
   0.59791718  0.12500000  0.28671436
   0.40208282  0.12500000  0.28671436
   0.50000000  0.25000000  0.35158853
   0.50000000  0.25000000  0.43512584
   0.34791718  0.12500000  0.39335718
   0.65208282  0.12500000  0.39335718
   0.25000000  0.25000000  0.45823134
   0.25000000  0.25000000  0.54176866
   0.59791718  0.12500000  0.50000000
   0.40208282  0.12500000  0.50000000
   0.50000035  0.25055984  0.56547970
   0.50000042  0.24946421  0.64899551
   0.34995900  0.12502424  0.60717662
   0.65004193  0.12502420  0.60717677
   0.24939912  0.24993316  0.67180798
   0.25020865  0.25035900  0.75567942
   0.59403545  0.12493863  0.71891226
   0.40596492  0.12493863  0.71891220
   0.25000000  0.50000000  0.24494571
   0.25000000  0.50000000  0.32848302
   0.59791718  0.37500000  0.28671436
   0.40208282  0.37500000  0.28671436
   0.50000000  0.50000000  0.35158853
   0.50000000  0.50000000  0.43512584
   0.34791718  0.37500000  0.39335718
   0.65208282  0.37500000  0.39335718
   0.25000000  0.50000000  0.45823134
   0.25000000  0.50000000  0.54176866
   0.59791718  0.37500000  0.50000000
   0.40208282  0.37500000  0.50000000
   0.50000038  0.49999030  0.56562100
   0.50000029  0.50019588  0.64970148
   0.34994975  0.37505863  0.60737007
   0.65005117  0.37505875  0.60737020
   0.24941551  0.50021566  0.67178145
   0.25146641  0.50044353  0.75562963
   0.59437524  0.37404439  0.71803414
   0.40562516  0.37404441  0.71803412

 position of ions in cartesian coordinates  (Angst):
   9.79589914  7.40329128  8.77891573
   0.00000000  8.88394953  8.77891573
   0.00000000  7.40329128 12.04421544
   9.79589914  8.88394953 12.04421544
   9.79589914  7.40329128 15.30951516
   0.00000000  8.88394953 15.30951516
  13.06116922  7.40451101 18.50822888
   9.79610182  8.88536542 18.69730148
   9.79732225  7.40850853 22.04941843
   0.00000273  8.88724110 21.69753306
   9.79589914 10.36460779  8.77891573
   0.00000000  0.00000000  8.77891573
   0.00000000 10.36460779 12.04421544
   9.79589914  0.00000000 12.04421544
   9.79589914 10.36460779 15.30951516
   0.00000000  0.00000000 15.30951516
  13.06116542 10.36563347 18.50904417
   9.79559417  0.00095134 18.70038011
   9.79376538 10.36812259 22.05951216
   0.00000270  0.00159871 21.69795103
   9.79589914  1.48065826  8.77891573
   0.00000000  2.96131651  8.77891573
   0.00000000  1.48065826 12.04421544
   9.79589914  2.96131651 12.04421544
   9.79589914  1.48065826 15.30951516
   0.00000000  2.96131651 15.30951516
  13.06114537  1.48127249 18.50878541
   9.79635634  2.96175248 18.69985339
   9.79502996  1.48359460 22.05858726
   0.00000308  2.96212094 21.69767617
   9.79589914  4.44197477  8.77891573
   0.00000000  5.92263302  8.77891573
   0.00000000  4.44197477 12.04421544
   9.79589914  5.92263302 12.04421544
   9.79589914  4.44197477 15.30951516
   0.00000000  5.92263302 15.30951516
  13.06114974  4.44281676 18.50840672
   9.79649838  5.92339845 18.69830113
   9.79893371  4.44530318 22.05641455
   0.00000259  5.92551611 21.69699215
   3.26529971  7.40329128  8.77891573
   6.53059943  8.88394953  8.77891573
   6.53059943  7.40329128 12.04421544
   3.26529971  8.88394953 12.04421544
   3.26529971  7.40329128 15.30951516
   6.53059943  8.88394953 15.30951516
   6.53057011  7.39665322 18.52087674
   3.26505967  8.88536532 18.69730166
   3.26388278  7.40850798 22.04941828
   6.53060180  8.89231921 21.68504606
   3.26529971 10.36460779  8.77891573
   6.53059943  0.00000000  8.77891573
   6.53059943 10.36460779 12.04421544
   3.26529971  0.00000000 12.04421544
   3.26529971 10.36460779 15.30951516
   6.53059943  0.00000000 15.30951516
   6.53056530 10.36223807 18.49874165
   3.26553259  0.00095141 18.70038027
   3.26743822 10.36812258 22.05951227
   6.53060247  0.00161111 21.68723293
   3.26529971  1.48065826  8.77891573
   6.53059943  2.96131651  8.77891573
   6.53059943  1.48065826 12.04421544
   3.26529971  2.96131651 12.04421544
   3.26529971  1.48065826 15.30951516
   6.53059943  2.96131651 15.30951516
   6.53054471  1.48424696 18.49961220
   3.26474887  2.96175229 18.69985351
   3.26617600  1.48359478 22.05858770
   6.53060275  2.95733198 21.68744858
   3.26529971  4.44197477  8.77891573
   6.53059943  5.92263302  8.77891573
   6.53059943  4.44197477 12.04421544
   3.26529971  5.92263302 12.04421544
   3.26529971  4.44197477 15.30951516
   6.53059943  5.92263302 15.30951516
   6.53054985  4.44915120 18.52104380
   3.26464068  5.92339887 18.69830083
   3.26227076  4.44530265 22.05641463
   6.53060226  5.90950658 21.73255781
   9.79589914  8.88394953  7.50000000
   9.79589914  8.88394953 10.05783146
   1.27891573  7.40329128  8.77891573
  11.78228313  7.40329128  8.77891573
   0.00000000  8.88394953 10.76529971
   0.00000000  8.88394953 13.32313117
  11.07481487  7.40329128 12.04421544
   1.98638398  7.40329128 12.04421544
   9.79589914  8.88394953 14.03059943
   9.79589914  8.88394953 16.58843089
   1.27891573  7.40329128 15.30951516
  11.78228313  7.40329128 15.30951516
   0.00000504  8.88523537 17.31496330
   0.00000475  8.88489871 19.88038674
  11.10371676  7.40476426 18.59143585
   1.95749416  7.40476499 18.59143906
   9.80101542  8.88703993 20.56916115
   9.79020686  8.88406161 23.13825643
   1.22638326  7.40510592 22.02179657
  11.83482093  7.40510563 22.02179629
   9.79589914  0.00000000  7.50000000
   9.79589914  0.00000000 10.05783146
   1.27891573 10.36460779  8.77891573
  11.78228313 10.36460779  8.77891573
   0.00000000  0.00000000 10.76529971
   0.00000000  0.00000000 13.32313117
  11.07481487 10.36460779 12.04421544
   1.98638398 10.36460779 12.04421544
   9.79589914  0.00000000 14.03059943
   9.79589914  0.00000000 16.58843089
   1.27891573 10.36460779 15.30951516
  11.78228313 10.36460779 15.30951516
   0.00000517  0.00083830 17.31517008
   0.00000461  0.00108151 19.88066059
  11.10357364 10.36550811 18.59188008
   1.95763703 10.36550675 18.59188365
   9.79938200  0.00137627 20.57124580
   9.79670823  0.00251314 23.13959838
   1.22641532 10.36627748 22.02061529
  11.83478867 10.36627762 22.02061433
   9.79589914  2.96131651  7.50000000
   9.79589914  2.96131651 10.05783146
   1.27891573  1.48065826  8.77891573
  11.78228313  1.48065826  8.77891573
   0.00000000  2.96131651 10.76529971
   0.00000000  2.96131651 13.32313117
  11.07481487  1.48065826 12.04421544
   1.98638398  1.48065826 12.04421544
   9.79589914  2.96131651 14.03059943
   9.79589914  2.96131651 16.58843089
   1.27891573  1.48065826 15.30951516
  11.78228313  1.48065826 15.30951516
   0.00000511  2.96191332 17.31518636
   0.00000469  2.96306234 19.88083714
  11.10377995  1.48115661 18.59174418
   1.95743096  1.48115576 18.59174915
   9.80375102  2.96052481 20.57010859
   9.79317873  2.96556902 23.13817048
   1.22596274  1.48324351 22.02069468
  11.83524099  1.48324403 22.02069398
   9.79589914  5.92263302  7.50000000
   9.79589914  5.92263302 10.05783146
   1.27891573  4.44197477  8.77891573
  11.78228313  4.44197477  8.77891573
   0.00000000  5.92263302 10.76529971
   0.00000000  5.92263302 13.32313117
  11.07481487  4.44197477 12.04421544
   1.98638398  4.44197477 12.04421544
   9.79589914  5.92263302 14.03059943
   9.79589914  5.92263302 16.58843089
   1.27891573  4.44197477 15.30951516
  11.78228313  4.44197477 15.30951516
   0.00000505  5.92348142 17.31500382
   0.00000483  5.92403257 19.88018899
  11.10368875  4.44280269 18.59167520
   1.95752220  4.44280370 18.59167996
   9.80353851  5.92518787 20.56929695
   9.77675114  5.92788629 23.13664653
   1.22646113  4.44535092 22.02260164
  11.83474266  4.44535089 22.02260092
   3.26529971  8.88394953  7.50000000
   3.26529971  8.88394953 10.05783146
   7.80951516  7.40329128  8.77891573
   5.25168370  7.40329128  8.77891573
   6.53059943  8.88394953 10.76529971
   6.53059943  8.88394953 13.32313117
   4.54421544  7.40329128 12.04421544
   8.51698341  7.40329128 12.04421544
   3.26529971  8.88394953 14.03059943
   3.26529971  8.88394953 16.58843089
   7.80951516  7.40329128 15.30951516
   5.25168370  7.40329128 15.30951516
   6.53060416  8.87884757 17.31401345
   6.53060432  8.88982506 19.87014314
   4.57064261  7.40414448 18.59505951
   8.49056792  7.40414532 18.59506290
   3.26018922  8.88703990 20.56916101
   3.27099703  8.88406119 23.13825682
   7.75934721  7.41894575 22.00316677
   5.30185638  7.41894605 22.00316582
   3.26529971  0.00000000  7.50000000
   3.26529971  0.00000000 10.05783146
   7.80951516 10.36460779  8.77891573
   5.25168370 10.36460779  8.77891573
   6.53059943  0.00000000 10.76529971
   6.53059943  0.00000000 13.32313117
   4.54421544 10.36460779 12.04421544
   8.51698341 10.36460779 12.04421544
   3.26529971  0.00000000 14.03059943
   3.26529971  0.00000000 16.58843089
   7.80951516 10.36460779 15.30951516
   5.25168370 10.36460779 15.30951516
   6.53060476  0.00067682 17.30934225
   6.53060442  0.00115757 19.87120258
   4.57115192 10.36620347 18.59086548
   8.49005893 10.36620225 18.59086937
   3.26182078  0.00137597 20.57124592
   3.26449565  0.00251303 23.13959886
   7.75891911 10.37096337 22.00920230
   5.30228451 10.37096278 22.00920162
   3.26529971  2.96131651  7.50000000
   3.26529971  2.96131651 10.05783146
   7.80951516  1.48065826  8.77891573
   5.25168370  1.48065826  8.77891573
   6.53059943  2.96131651 10.76529971
   6.53059943  2.96131651 13.32313117
   4.54421544  1.48065826 12.04421544
   8.51698341  1.48065826 12.04421544
   3.26529971  2.96131651 14.03059943
   3.26529971  2.96131651 16.58843089
   7.80951516  1.48065826 15.30951516
   5.25168370  1.48065826 15.30951516
   6.53060406  2.96794797 17.31443996
   6.53060497  2.95496997 19.87161318
   4.57088408  1.48094542 18.59115920
   8.49032694  1.48094487 18.59116403
   3.25745149  2.96052481 20.57010892
   3.26802496  2.96556894 23.13817094
   7.75881510  1.47993132 22.01239630
   5.30238859  1.47993126 22.01239445
   3.26529971  5.92263302  7.50000000
   3.26529971  5.92263302 10.05783146
   7.80951516  4.44197477  8.77891573
   5.25168370  4.44197477  8.77891573
   6.53059943  5.92263302 10.76529971
   6.53059943  5.92263302 13.32313117
   4.54421544  4.44197477 12.04421544
   8.51698341  4.44197477 12.04421544
   3.26529971  5.92263302 14.03059943
   3.26529971  5.92263302 16.58843089
   7.80951516  4.44197477 15.30951516
   5.25168370  4.44197477 15.30951516
   6.53060437  5.92251815 17.31876661
   6.53060325  5.92495329 19.89322931
   4.57076322  4.44266928 18.59708265
   8.49044756  4.44267063 18.59708665
   3.25766557  5.92518753 20.56929660
   3.28445273  5.92788676 23.13664660
   7.76325317  4.43065536 21.98550902
   5.29795092  4.43065550 21.98550836



--------------------------------------------------------------------------------------------------------

--------------------------------------- Iteration      FINAL  ---------------------------------------


--------------------OUTCAR has been truncated-------------------------


--------------------OUTCAR has been truncated-------------------------


--------------------OUTCAR has been truncated-------------------------


--------------------OUTCAR has been truncated-------------------------


--------------------OUTCAR has been truncated-------------------------


--------------------OUTCAR has been truncated-------------------------


--------------------OUTCAR has been truncated-------------------------


--------------------OUTCAR has been truncated-------------------------


--------------------OUTCAR has been truncated-------------------------


--------------------OUTCAR has been truncated-------------------------


  FORCE on cell =-STRESS in cart. coord.  units (eV):
  Direction    XX          YY          ZZ          XY          YZ          ZX
  --------------------------------------------------------------------------------------
  Alpha Z  4617.97161  4617.97161  4617.97161
  Ewald  974430.42492992377.00589************     0.00010    -4.57282     0.00383
  Hartree************************************     0.00006    -2.43961     0.00260
  E(xc)   -9119.79422 -9128.79862 -9117.49759     0.00000    -0.00637    -0.00001
  Local  ************************************    -0.00025     6.98017    -0.00662
  n-local -5179.94167 -5085.86094 -5223.26784     0.00002    -0.12881    -0.00001
  augment  5517.70822  5485.72306  5521.15901     0.00002     0.01230     0.00002
  Kinetic 28628.45901 28154.39382 28676.41974     0.00011    -0.01001    -0.00013
  Fock        0.00000     0.00000     0.00000     0.00000     0.00000     0.00000
  -------------------------------------------------------------------------------------
  Total     -48.09248   -88.10769   -81.26331     0.00007    -0.16515    -0.00031
  in kB     -16.26554   -29.79923   -27.48437     0.00002    -0.05586    -0.00011
  external pressure =      -24.52 kB  Pullay stress =        0.00 kB


 VOLUME and BASIS-vectors are now :
 -----------------------------------------------------------------------------
  energy-cutoff  :      600.00
  volume of cell :     4737.17
      direct lattice vectors                 reciprocal lattice vectors
    13.061198858  0.000000000  0.000000000     0.076562650  0.000000000  0.000000000
     0.000000000 11.845266045  0.000000000     0.000000000  0.084421911  0.000000000
     0.000000000  0.000000000 30.619030317     0.000000000  0.000000000  0.032659427

  length of vectors
    13.061198858 11.845266045 30.619030317     0.076562650  0.084421911  0.032659427


 FORCES acting on ions:
    Electron-Ion                     Ewald-Force                    Non-Local-Force
 -----------------------------------------------------------------------------------------------
   0.741E-02 0.123E-01 0.377E+04   -.776E-02 -.122E-01 -.377E+04   -.275E-04 -.840E-06 0.429E+00
   -.243E-03 0.103E-01 0.395E+04   -.656E-06 -.102E-01 -.394E+04   0.284E-03 -.539E-05 -.402E+01
   0.569E-04 0.361E-01 0.191E+04   0.758E-05 -.359E-01 -.191E+04   -.109E-03 0.409E-04 -.623E-01
   0.187E-01 0.795E-01 0.191E+04   -.202E-01 -.787E-01 -.191E+04   0.513E-03 -.235E-04 0.222E+00
   0.385E+00 0.308E+00 -.193E+02   -.391E+00 -.309E+00 0.201E+02   0.134E-02 0.159E-03 -.128E+00
   -.430E-03 0.120E+00 -.782E+01   0.218E-03 -.114E+00 0.672E+01   0.206E-03 -.206E-02 0.344E+00
   -.886E-02 0.196E+00 -.188E+04   0.886E-02 -.195E+00 0.188E+04   0.554E-04 -.395E-03 0.146E+00
   0.376E+00 0.315E+00 -.195E+04   -.356E+00 -.308E+00 0.195E+04   -.744E-02 -.332E-02 -.181E+00
   -.110E+01 0.220E+01 -.376E+04   0.104E+01 -.220E+01 0.376E+04   0.365E-01 -.720E-03 -.336E+00
   -.242E-03 0.978E+00 -.378E+04   -.284E-04 -.981E+00 0.378E+04   0.263E-03 -.268E-02 0.117E+01
   0.114E-02 0.896E-02 0.377E+04   -.163E-02 -.865E-02 -.377E+04   0.543E-04 -.439E-04 0.429E+00
   -.317E-03 -.240E-02 0.395E+04   -.615E-06 0.247E-02 -.394E+04   0.254E-03 -.226E-05 -.402E+01
   0.588E-04 0.161E-01 0.191E+04   0.770E-05 -.158E-01 -.191E+04   -.120E-03 0.168E-04 -.625E-01
   -.266E-01 -.144E-01 0.191E+04   0.247E-01 0.146E-01 -.191E+04   0.605E-03 0.163E-04 0.221E+00
   -.166E+00 0.159E+00 -.190E+02   0.163E+00 -.143E+00 0.198E+02   0.443E-03 -.105E-02 -.130E+00
   -.589E-03 -.182E-01 -.793E+01   0.349E-03 0.207E-01 0.683E+01   0.223E-03 -.104E-02 0.344E+00
   -.952E-02 -.764E-01 -.189E+04   0.951E-02 0.757E-01 0.188E+04   0.652E-04 0.567E-03 0.148E+00
   -.397E+00 0.682E-01 -.195E+04   0.406E+00 -.717E-01 0.195E+04   0.321E-02 -.960E-04 -.174E+00
   -.543E+00 0.110E+01 -.376E+04   0.559E+00 -.114E+01 0.376E+04   0.122E-01 -.351E-02 -.332E+00
   -.152E-03 -.564E-01 -.378E+04   -.653E-04 0.451E-01 0.378E+04   0.270E-03 0.223E-02 0.118E+01
   0.117E-02 -.124E-01 0.377E+04   -.166E-02 0.122E-01 -.377E+04   0.565E-04 -.252E-04 0.428E+00
   -.306E-03 -.102E-01 0.395E+04   -.495E-06 0.102E-01 -.394E+04   0.270E-03 -.192E-05 -.402E+01
   0.715E-04 -.356E-01 0.191E+04   0.114E-04 0.354E-01 -.191E+04   -.121E-03 0.388E-04 -.625E-01
   0.190E-01 -.795E-01 0.191E+04   -.204E-01 0.787E-01 -.191E+04   0.473E-03 0.365E-04 0.221E+00
   -.154E+00 -.295E+00 -.191E+02   0.151E+00 0.291E+00 0.199E+02   0.331E-03 0.329E-03 -.131E+00
   -.671E-03 -.533E-01 -.796E+01   0.456E-03 0.506E-01 0.686E+01   0.218E-03 -.227E-03 0.345E+00
   -.135E-01 -.279E+00 -.188E+04   0.135E-01 0.276E+00 0.188E+04   0.867E-04 0.236E-02 0.151E+00
   0.184E+00 -.379E+00 -.195E+04   -.157E+00 0.367E+00 0.195E+04   -.855E-02 0.434E-02 -.176E+00
   -.323E-01 0.101E+00 -.376E+04   0.693E-01 -.114E+00 0.376E+04   -.116E-02 -.210E-02 -.325E+00
   -.237E-03 -.175E+01 -.378E+04   -.490E-04 0.175E+01 0.378E+04   0.253E-03 0.471E-02 0.117E+01
   0.743E-02 -.894E-02 0.377E+04   -.777E-02 0.864E-02 -.377E+04   -.166E-05 0.503E-04 0.429E+00
   -.294E-03 0.241E-02 0.395E+04   -.537E-06 -.248E-02 -.394E+04   0.251E-03 0.247E-04 -.402E+01
   0.427E-04 -.169E-01 0.191E+04   0.114E-04 0.164E-01 -.191E+04   -.118E-03 0.530E-04 -.624E-01
   0.632E-01 0.144E-01 0.191E+04   -.642E-01 -.146E-01 -.191E+04   0.330E-03 -.456E-04 0.222E+00
   0.390E+00 -.176E+00 -.194E+02   -.396E+00 0.166E+00 0.203E+02   0.828E-03 0.993E-03 -.129E+00
   -.551E-03 0.999E-01 -.789E+01   0.315E-03 -.101E+00 0.679E+01   0.218E-03 -.734E-03 0.345E+00
   -.127E-01 -.715E-01 -.188E+04   0.126E-01 0.702E-01 0.188E+04   0.827E-04 0.104E-02 0.148E+00
   0.654E+00 0.171E-01 -.195E+04   -.623E+00 -.939E-02 0.195E+04   -.934E-02 -.123E-02 -.186E+00
   -.161E+01 -.165E+01 -.376E+04   0.176E+01 0.169E+01 0.376E+04   -.285E-01 0.778E-02 -.316E+00
   -.294E-03 0.178E+00 -.378E+04   0.819E-04 -.173E+00 0.378E+04   0.259E-03 0.142E-02 0.116E+01
   -.725E-02 0.123E-01 0.377E+04   0.776E-02 -.122E-01 -.377E+04   -.259E-03 0.154E-04 0.429E+00
   -.237E-03 0.200E-01 0.395E+04   0.183E-05 -.197E-01 -.394E+04   0.273E-03 -.465E-04 -.402E+01
   0.571E-04 0.112E+00 0.191E+04   0.187E-04 -.106E+00 -.191E+04   -.125E-03 -.113E-02 -.626E-01
   -.191E-01 0.795E-01 0.191E+04   0.202E-01 -.787E-01 -.191E+04   -.810E-04 -.307E-04 0.222E+00
   -.384E+00 0.308E+00 -.193E+02   0.391E+00 -.309E+00 0.201E+02   -.169E-02 0.142E-03 -.128E+00
   -.502E-03 0.911E+00 -.791E+01   0.298E-03 -.933E+00 0.685E+01   0.218E-03 0.130E-01 0.328E+00
   -.894E-02 0.294E+00 -.189E+04   0.892E-02 -.156E+00 0.189E+04   0.530E-04 -.518E-01 0.145E+00
   -.383E+00 0.315E+00 -.195E+04   0.363E+00 -.308E+00 0.195E+04   0.793E-02 -.330E-02 -.181E+00
   0.110E+01 0.220E+01 -.376E+04   -.104E+01 -.220E+01 0.376E+04   -.366E-01 -.738E-03 -.336E+00
   -.504E-03 0.142E+01 -.378E+04   0.266E-03 -.161E+01 0.378E+04   0.275E-03 0.501E-01 0.118E+01
   -.953E-03 0.893E-02 0.377E+04   0.163E-02 -.865E-02 -.377E+04   -.286E-03 -.759E-04 0.429E+00
   -.265E-03 -.252E-02 0.395E+04   0.195E-05 0.251E-02 -.394E+04   0.246E-03 -.196E-04 -.402E+01
   0.624E-04 0.909E-01 0.191E+04   0.204E-04 -.880E-01 -.191E+04   -.115E-03 -.706E-03 -.629E-01
   0.261E-01 -.143E-01 0.191E+04   -.247E-01 0.146E-01 -.191E+04   -.174E-03 0.159E-04 0.221E+00
   0.167E+00 0.159E+00 -.190E+02   -.163E+00 -.143E+00 0.198E+02   -.800E-03 -.105E-02 -.130E+00
   -.620E-03 -.560E-01 -.592E+01   0.424E-03 0.581E-01 0.481E+01   0.217E-03 -.106E-02 0.329E+00
   -.972E-02 -.129E+01 -.188E+04   0.969E-02 0.130E+01 0.188E+04   0.406E-04 -.863E-03 0.973E-01
   0.385E+00 0.682E-01 -.195E+04   -.394E+00 -.718E-01 0.195E+04   -.267E-02 -.899E-04 -.174E+00
   0.543E+00 0.110E+01 -.376E+04   -.559E+00 -.114E+01 0.376E+04   -.123E-01 -.351E-02 -.332E+00
   0.598E-04 -.631E+00 -.378E+04   -.227E-03 0.601E+00 0.378E+04   0.292E-03 0.112E-01 0.117E+01
   -.101E-02 -.123E-01 0.377E+04   0.166E-02 0.122E-01 -.377E+04   -.306E-03 0.203E-04 0.428E+00
   -.206E-03 -.200E-01 0.395E+04   0.193E-05 0.197E-01 -.394E+04   0.262E-03 0.665E-04 -.402E+01
[...]
      9.79503      1.48359     22.05859         0.035132     -0.014597      0.019081
      0.00000      2.96212     21.69768        -0.000038      0.004131     -0.013286
      9.79590      4.44197      8.77892        -0.000342     -0.000173     -3.671893
      0.00000      5.92263      8.77892        -0.000048      0.000025      3.056408
      0.00000      4.44197     12.04422        -0.000063     -0.000311      0.528345
      9.79590      5.92263     12.04422        -0.000631     -0.000150     -0.734619
      9.79590      4.44197     15.30952        -0.005041     -0.009500      0.690000
      0.00000      5.92263     15.30952        -0.000022     -0.001595     -0.750404
     13.06115      4.44282     18.50841         0.000011     -0.000284      0.043023
      9.79650      5.92340     18.69830         0.021078      0.006455      0.017300
      9.79893      4.44530     22.05641         0.116327      0.043124      0.042313
      0.00000      5.92552     21.69699         0.000043      0.006346     -0.008264
      3.26530      7.40329      8.77892         0.000250      0.000187     -3.671991
      6.53060      8.88395      8.77892         0.000033      0.000331      3.057330
      6.53060      7.40329     12.04422        -0.000048      0.004859      0.529818
      3.26530      8.88395     12.04422         0.000979      0.000877     -0.734593
      3.26530      7.40329     15.30952         0.005113     -0.000724      0.683200
      6.53060      8.88395     15.30952         0.000010     -0.009561     -0.725613
      6.53057      7.39665     18.52088         0.000026      0.084142     -0.018617
      3.26506      8.88537     18.69730        -0.012373      0.003775      0.019744
      3.26388      7.40851     22.04942         0.019927      0.004835      0.099719
      6.53060      8.89232     21.68505         0.000033     -0.136037      0.026147
      3.26530     10.36461      8.77892         0.000391      0.000268     -3.671779
      6.53060      0.00000      8.77892        -0.000021      0.000043      3.057655
      6.53060     10.36461     12.04422        -0.000031      0.002195      0.533174
      3.26530      0.00000     12.04422         0.001257      0.000288     -0.733003
      3.26530     10.36461     15.30952         0.002823      0.014354      0.691652
      6.53060      0.00000     15.30952         0.000017      0.001114     -0.781318
      6.53057     10.36224     18.49874        -0.000012      0.002774      0.036818
      3.26553      0.00095     18.70038        -0.011217     -0.003512      0.017022
      3.26744     10.36812     22.05951        -0.027323     -0.040774      0.034226
      6.53060      0.00161     21.68723         0.000121     -0.019569     -0.049045
      3.26530      1.48066      8.77892         0.000332     -0.000058     -3.671712
      6.53060      2.96132      8.77892         0.000054     -0.000125      3.057177
      6.53060      1.48066     12.04422         0.000000     -0.002494      0.532876
      3.26530      2.96132     12.04422         0.000929     -0.000725     -0.733119
      3.26530      1.48066     15.30952         0.002327     -0.004040      0.698771
      6.53060      2.96132     15.30952         0.000030      0.010144     -0.730054
      6.53054      1.48425     18.49961         0.000031     -0.029434      0.019520
      3.26475      2.96175     18.69985        -0.018827     -0.007202      0.009090
      3.26618      1.48359     22.05859        -0.035128     -0.014655      0.019048
      6.53060      2.95733     21.68745        -0.000124     -0.181074     -0.108637
      3.26530      4.44197      8.77892         0.000257     -0.000172     -3.671847
      6.53060      5.92263      8.77892        -0.000066      0.000071      3.057114
      6.53060      4.44197     12.04422        -0.000023     -0.004288      0.529530
      3.26530      5.92263     12.04422         0.000599     -0.000139     -0.734578
      3.26530      4.44197     15.30952         0.004914     -0.009486      0.689987
      6.53060      5.92263     15.30952         0.000011     -0.001140     -0.738112
      6.53055      4.44915     18.52104         0.000048     -0.054726     -0.039868
      3.26464      5.92340     18.69830        -0.021150      0.006463      0.017379
      3.26227      4.44530     22.05641        -0.116319      0.043162      0.042241
      6.53060      5.90951     21.73256        -0.000023      0.417342     -0.684206
      9.79590      8.88395      7.50000         0.000081     -0.000026      2.335393
      9.79590      8.88395     10.05783         0.000164     -0.000082      1.725475
      1.27892      7.40329      8.77892        -1.969929      0.000076     -0.783081
     11.78228      7.40329      8.77892         1.969985      0.000048     -0.783048
      0.00000      8.88395     10.76530        -0.000011     -0.000045     -1.309483
      0.00000      8.88395     13.32313         0.000010     -0.000046     -0.171063
     11.07481      7.40329     12.04422         0.392863     -0.000025      0.055453
      1.98638      7.40329     12.04422        -0.392786     -0.000018      0.055454
      9.79590      8.88395     14.03060         0.000587     -0.002584     -0.046024
      9.79590      8.88395     16.58843         0.000633     -0.001557     -0.068010
      1.27892      7.40329     15.30952        -0.529871      0.000718      0.098083
     11.78228      7.40329     15.30952         0.529931      0.000712      0.098105
      0.00001      8.88524     17.31496         0.000002     -0.002151      0.019499
      0.00000      8.88490     19.88039        -0.000016      0.001069     -0.080313
     11.10372      7.40476     18.59144        -0.038081     -0.002611      0.003362
      1.95749      7.40476     18.59144         0.038087     -0.002606      0.003380
      9.80102      8.88704     20.56916        -0.006760     -0.000660     -0.008142
      9.79021      8.88406     23.13826         0.019264      0.038867     -0.255407
      1.22638      7.40511     22.02180        -0.091673     -0.002846     -0.068918
     11.83482      7.40511     22.02180         0.091680     -0.002844     -0.068919
      9.79590      0.00000      7.50000         0.000071      0.000105      2.335435
      9.79590      0.00000     10.05783         0.000191      0.000003      1.724946
      1.27892     10.36461      8.77892        -1.970008      0.000007     -0.783092
     11.78228     10.36461      8.77892         1.970005      0.000043     -0.783084
      0.00000      0.00000     10.76530        -0.000014      0.000012     -1.309550
      0.00000      0.00000     13.32313        -0.000005      0.000062     -0.171196
     11.07481     10.36461     12.04422         0.392950     -0.000316      0.055391
      1.98638     10.36461     12.04422        -0.392894     -0.000324      0.055410
      9.79590      0.00000     14.03060         0.000396     -0.001635     -0.049021
      9.79590      0.00000     16.58843         0.002524      0.000483     -0.079250
      1.27892     10.36461     15.30952        -0.531551     -0.000398      0.096856
     11.78228     10.36461     15.30952         0.531608     -0.000392      0.096869
      0.00001      0.00084     17.31517        -0.000017     -0.000446      0.019838
      0.00000      0.00108     19.88066         0.000005      0.001098     -0.078049
     11.10357     10.36551     18.59188        -0.036891      0.002328      0.007073
      1.95764     10.36551     18.59188         0.036935      0.002364      0.007070
      9.79938      0.00138     20.57125        -0.007876      0.007112     -0.003741
      9.79671      0.00251     23.13960        -0.007141      0.015215     -0.208081
      1.22642     10.36628     22.02062        -0.089706      0.002737     -0.067916
     11.83479     10.36628     22.02061         0.089696      0.002726     -0.067909
      9.79590      2.96132      7.50000         0.000098      0.000178      2.335370
      9.79590      2.96132     10.05783         0.000122      0.000232      1.725116
      1.27892      1.48066      8.77892        -1.969994      0.000087     -0.783100
     11.78228      1.48066      8.77892         1.970096      0.000091     -0.783044
      0.00000      2.96132     10.76530        -0.000009      0.000202     -1.309513
      0.00000      2.96132     13.32313        -0.000012      0.000539     -0.170908
     11.07481      1.48066     12.04422         0.392988      0.000194      0.055315
      1.98638      1.48066     12.04422        -0.392943      0.000191      0.055332
      9.79590      2.96132     14.03060         0.000625      0.002865     -0.048911
      9.79590      2.96132     16.58843         0.000328      0.006998     -0.070002
      1.27892      1.48066     15.30952        -0.533357      0.001467      0.096774
     11.78228      1.48066     15.30952         0.533412      0.001463      0.096774
      0.00001      2.96191     17.31519        -0.000021      0.002433      0.020438
      0.00000      2.96306     19.88084        -0.000010     -0.001604     -0.078575
     11.10378      1.48116     18.59174        -0.038148      0.001384      0.009090
      1.95743      1.48116     18.59175         0.038211      0.001386      0.009099
      9.80375      2.96052     20.57011        -0.015441      0.002551      0.002288
      9.79318      2.96557     23.13817        -0.013006     -0.000668     -0.210194
      1.22596      1.48324     22.02069        -0.082385      0.002219     -0.064615
     11.83524      1.48324     22.02069         0.082427      0.002217     -0.064620
      9.79590      5.92263      7.50000         0.000086      0.000079      2.335345
      9.79590      5.92263     10.05783         0.000143      0.000141      1.725482
      1.27892      4.44197      8.77892        -1.969977      0.000103     -0.783058
     11.78228      4.44197      8.77892         1.970026      0.000118     -0.783055
      0.00000      5.92263     10.76530        -0.000017      0.000161     -1.309489
      0.00000      5.92263     13.32313        -0.000007      0.000412     -0.170597
     11.07481      4.44197     12.04422         0.392917      0.000458      0.055380
      1.98638      4.44197     12.04422        -0.392848      0.000449      0.055390
      9.79590      5.92263     14.03060         0.001130      0.002215     -0.046256
      9.79590      5.92263     16.58843        -0.001531      0.002272     -0.063063
      1.27892      4.44197     15.30952        -0.531692      0.002115      0.097654
     11.78228      4.44197     15.30952         0.531767      0.002125      0.097674
      0.00001      5.92348     17.31500        -0.000015     -0.000862      0.018978
      0.00000      5.92403     19.88019         0.000002     -0.000498     -0.081584
     11.10369      4.44280     18.59168        -0.038638     -0.001343      0.004223
      1.95752      4.44280     18.59168         0.038687     -0.001354      0.004245
      9.80354      5.92519     20.56930        -0.002470     -0.012913     -0.011004
      9.77675      5.92789     23.13665         0.018260     -0.060178     -0.270761
      1.22646      4.44535     22.02260        -0.082534     -0.002251     -0.066094
     11.83474      4.44535     22.02260         0.082564     -0.002234     -0.066083
      3.26530      8.88395      7.50000        -0.000138     -0.000052      2.335380
      3.26530      8.88395     10.05783        -0.000156     -0.000066      1.725468
      7.80952      7.40329      8.77892        -1.969624     -0.000050     -0.783110
      5.25168      7.40329      8.77892         1.969645     -0.000097     -0.783134
      6.53060      8.88395     10.76530        -0.000002     -0.001001     -1.311413
      6.53060      8.88395     13.32313        -0.000002     -0.002069     -0.179771
      4.54422      7.40329     12.04422         0.391804     -0.000260      0.055385
      8.51698      7.40329     12.04422        -0.391735     -0.000256      0.055366
      3.26530      8.88395     14.03060        -0.000579     -0.002580     -0.046058
      3.26530      8.88395     16.58843        -0.000617     -0.001558     -0.068013
      7.80952      7.40329     15.30952        -0.525926     -0.011327      0.094258
      5.25168      7.40329     15.30952         0.525980     -0.011315      0.094255
      6.53060      8.87885     17.31401        -0.000015     -0.015462      0.035777
      6.53060      8.88983     19.87014        -0.000010      0.001254     -0.075530
      4.57064      7.40414     18.59506        -0.012067     -0.009160      0.009831
      8.49057      7.40415     18.59506         0.012095     -0.009164      0.009836
      3.26019      8.88704     20.56916         0.006757     -0.000630     -0.008161
      3.27100      8.88406     23.13826        -0.019280      0.038889     -0.255439
      7.75935      7.41895     22.00317        -0.185043     -0.188385      0.007486
      5.30186      7.41895     22.00317         0.185054     -0.188423      0.007479
      3.26530      0.00000      7.50000        -0.000139      0.000090      2.335337
      3.26530      0.00000     10.05783        -0.000180      0.000020      1.724946
      7.80952     10.36461      8.77892        -1.969618     -0.000077     -0.783173
      5.25168     10.36461      8.77892         1.969658     -0.000053     -0.783191
      6.53060      0.00000     10.76530         0.000002      0.000125     -1.312203
      6.53060      0.00000     13.32313         0.000010      0.000197     -0.185590
      4.54422     10.36461     12.04422         0.390878     -0.000398      0.055141
      8.51698     10.36461     12.04422        -0.390814     -0.000387      0.055139
      3.26530      0.00000     14.03060        -0.000384     -0.001622     -0.049018
      3.26530      0.00000     16.58843        -0.002505      0.000478     -0.079237
      7.80952     10.36461     15.30952        -0.525042     -0.004569      0.096594
      5.25168     10.36461     15.30952         0.525126     -0.004584      0.096608
      6.53060      0.00068     17.30934        -0.000016      0.006015      0.031410
      6.53060      0.00116     19.87120        -0.000006      0.005593     -0.058792
      4.57115     10.36620     18.59087        -0.027017     -0.005205      0.005618
      8.49006     10.36620     18.59087         0.027046     -0.005236      0.005610
      3.26182      0.00138     20.57125         0.007869      0.007141     -0.003740
      3.26450      0.00251     23.13960         0.007138      0.015227     -0.208116
      7.75892     10.37096     22.00920        -0.109077      0.008024     -0.053093
      5.30228     10.37096     22.00920         0.109100      0.008021     -0.053078
      3.26530      2.96132      7.50000        -0.000069      0.000188      2.335256
      3.26530      2.96132     10.05783        -0.000138      0.000202      1.725081
      7.80952      1.48066      8.77892        -1.969691      0.000209     -0.783119
      5.25168      1.48066      8.77892         1.969646      0.000184     -0.783169
      6.53060      2.96132     10.76530         0.000047      0.001133     -1.311135
      6.53060      2.96132     13.32313        -0.000001      0.002484     -0.177879
      4.54422      1.48066     12.04422         0.391033      0.000313      0.055107
      8.51698      1.48066     12.04422        -0.390985      0.000291      0.055094
      3.26530      2.96132     14.03060        -0.000619      0.002865     -0.048915
      3.26530      2.96132     16.58843        -0.000316      0.006983     -0.070008
      7.80952      1.48066     15.30952        -0.527398      0.006496      0.096921
      5.25168      1.48066     15.30952         0.527475      0.006489      0.096932
      6.53060      2.96795     17.31444        -0.000006      0.013652      0.044057
      6.53060      2.95497     19.87161        -0.000001      0.012406     -0.014902
      4.57088      1.48095     18.59116        -0.021636      0.008760      0.008174
      8.49033      1.48094     18.59116         0.021677      0.008797      0.008181
      3.25745      2.96052     20.57011         0.015437      0.002555      0.002316
      3.26802      2.96557     23.13817         0.013004     -0.000675     -0.210164
      7.75882      1.47993     22.01240        -0.116686      0.034836     -0.061871
      5.30239      1.47993     22.01239         0.116707      0.034869     -0.061853
      3.26530      5.92263      7.50000        -0.000090      0.000078      2.335313
      3.26530      5.92263     10.05783        -0.000128      0.000117      1.725481
      7.80952      4.44197      8.77892        -1.969680      0.000168     -0.783076
      5.25168      4.44197      8.77892         1.969682      0.000215     -0.783110
      6.53060      5.92263     10.76530         0.000002      0.000095     -1.309818
      6.53060      5.92263     13.32313         0.000014      0.000067     -0.162648
      4.54422      4.44197     12.04422         0.391954      0.000650      0.055329
      8.51698      4.44197     12.04422        -0.391891      0.000663      0.055325
      3.26530      5.92263     14.03060        -0.001124      0.002208     -0.046259
      3.26530      5.92263     16.58843         0.001529      0.002277     -0.063085
      7.80952      4.44197     15.30952        -0.527378      0.011894      0.093358
      5.25168      4.44197     15.30952         0.527426      0.011889      0.093353
      6.53060      5.92252     17.31877        -0.000008     -0.006200      0.058140
      6.53060      5.92495     19.89323         0.000028     -0.031677      0.140936
      4.57076      4.44267     18.59708        -0.007669      0.004671      0.011397
      8.49045      4.44267     18.59709         0.007691      0.004672      0.011390
      3.25767      5.92519     20.56930         0.002430     -0.012899     -0.011002
      3.28445      5.92789     23.13665        -0.018264     -0.060166     -0.270751
      7.76325      4.43066     21.98551        -0.187176      0.112896      0.120979
      5.29795      4.43066     21.98551         0.187192      0.112902      0.120950
 -----------------------------------------------------------------------------------
    total drift:                                0.000145     -0.016860      0.135654


--------------------------------------------------------------------------------------------------------



  FREE ENERGIE OF THE ION-ELECTRON SYSTEM (eV)
  ---------------------------------------------------
  free  energy   TOTEN  =     -2709.95000666 eV

  energy  without entropy=    -2709.95000666  energy(sigma->0) =    -2709.95000666



--------------------------------------------------------------------------------------------------------


    POTLOK:  cpu time      1.7862: real time      1.7868


--------------------------------------------------------------------------------------------------------


     LOOP+:  cpu time   1698.8302: real time   1699.9103
    4ORBIT:  cpu time      0.0000: real time      0.0000

 total amount of memory used by VASP MPI-rank0   170039. kBytes
=======================================================================

   base      :      30000. kBytes
   nonl-proj :      49520. kBytes
   fftplans  :       7949. kBytes
   grid      :      18269. kBytes
   one-center:        233. kBytes
   wavefun   :      64068. kBytes

  
  
 General timing and accounting informations for this job:
 ========================================================
  
                  Total CPU time used (sec):     1784.004
                            User time (sec):     1771.991
                          System time (sec):       12.013
                         Elapsed time (sec):     1799.370
  
                   Maximum memory used (kb):      586748.
                   Average memory used (kb):          N/A
  
                          Minor page faults:      1043718
                          Major page faults:          728
                 Voluntary context switches:        11005
