 vasp.6.3.0 20Jan22 (build Apr  1 2022 16:44:48) gamma-only                      
 executed on        HPECrayEX_GCC date 2023.01.23  22:43:03
 running  512 mpi-ranks, with    1 threads/rank
 distrk:  each k-point on  512 cores,    1 groups
 distr:  one band on NCORE=   8 cores,   64 groups


--------------------------------------------------------------------------------------------------------


 INCAR:
   SYSTEM = MgO-rocksalt
   ISMEAR = 0
   SIGMA = 0.05
   EDIFF = 1E-8
   ALGO = ALL
   ISTART = 0
   IBRION = 5
   POTIM = 0.01
   NFREE = 2
   ISYM = 0
   DIPOL = 0.5 0.5 0.5
   IDIPOL = 4
   LDIPOL = .TRUE.
   GGA = RE
   IVDW = 13
   VDW_S8 = 1.7468
   VDW_A1 = 0.5363
   VDW_A2 = 3.0726
   ENCUT = 600
   PREC = Accurate
   LASPH = .TRUE.
   LREAL = .FALSE.
   ISPIN = 1
   NELM = 200
   NELMIN = 8
   NCORE = 8
   KPAR = 1
   LWAVE = .FALSE.
   LCHARG = .FALSE.

 POTCAR:    PAW_PBE C 08Apr2002                   
 POTCAR:    PAW_PBE O 08Apr2002                   
 POTCAR:    PAW_PBE H 15Jun2001                   
 POTCAR:    PAW_PBE C 08Apr2002                   
   SHA256 =  253f7b50bb8d59471dbedb8285d89021f4a42ed1a2c5d38a03a736e69125dd95 C/POTCAR              
   COPYR  = (c) Copyright 08Apr2002 Georg Kresse                                                    
   COPYR  = This file is part of the software VASP. Any use, copying, and all other rights are regul
   COPYR  = If you do not have a valid VASP license, you may not use, copy or distribute this file. 
   VRHFIN =C: s2p2                                                                                  
   LEXCH  = PE                                                                                      
   EATOM  =   147.1560 eV,   10.8157 Ry                                                             
                                                                                                    
   TITEL  = PAW_PBE C 08Apr2002                                                                     
   LULTRA =        F    use ultrasoft PP ?                                                          
   IUNSCR =        1    unscreen: 0-lin 1-nonlin 2-no                                               
   RPACOR =    1.200    partial core radius                                                         
   POMASS =   12.011; ZVAL   =    4.000    mass and valenz                                          
   RCORE  =    1.500    outmost cutoff radius                                                       
   RWIGS  =    1.630; RWIGS  =    0.863    wigner-seitz radius (au A)                               
   ENMAX  =  400.000; ENMIN  =  300.000 eV                                                          
   ICORE  =        2    local potential                                                             
   LCOR   =        T    correct aug charges                                                         
   LPAW   =        T    paw PP                                                                      
   EAUG   =  644.873                                                                                
   DEXC   =    0.000                                                                                
   RMAX   =    1.529    core radius for proj-oper                                                   
   RAUG   =    1.300    factor for augmentation sphere                                              
   RDEP   =    1.501    radius for radial grids                                                     
   RDEPT  =    1.300    core radius for aug-charge                                                  
                                                                                                    
   Atomic configuration                                                                             
    4 entries                                                                                       
     n  l   j            E        occ.                                                              
     1  0  0.50      -273.3789   2.0000                                                             
     2  0  0.50       -13.7508   2.0000                                                             
     2  1  0.50        -5.2854   2.0000                                                             
     3  2  1.50        -5.4423   0.0000                                                             
   Description                                                                                      
     l       E           TYP  RCUT    TYP  RCUT                                                     
     0    -13.7508458     23  1.200                                                                 
     0     -8.2022199     23  1.200                                                                 
     1     -5.2854383     23  1.500                                                                 
     1     34.0145650     23  1.500                                                                 
     2     -5.4423304      7  1.500                                                                 
  local pseudopotential read in
  partial core-charges read in
  partial kinetic energy density read in
  atomic valenz-charges read in
  non local Contribution for L=           0  read in
    real space projection operators read in
  non local Contribution for L=           0  read in
    real space projection operators read in
  non local Contribution for L=           1  read in
    real space projection operators read in
  non local Contribution for L=           1  read in
    real space projection operators read in
    PAW grid and wavefunctions read in

   number of l-projection  operators is LMAX  =           4
   number of lm-projection operators is LMMAX =           8

 POTCAR:    PAW_PBE O 08Apr2002                   
   SHA256 =  818f92134a0a090dccd8ba1447fa70422a3b330e708bb4f08108d8ae51209ddf O/POTCAR              
   COPYR  = (c) Copyright 08Apr2002 Georg Kresse                                                    
   COPYR  = This file is part of the software VASP. Any use, copying, and all other rights are regul
   COPYR  = If you do not have a valid VASP license, you may not use, copy or distribute this file. 
   VRHFIN =O: s2p4                                                                                  
   LEXCH  = PE                                                                                      
   EATOM  =   432.3788 eV,   31.7789 Ry                                                             
                                                                                                    
   TITEL  = PAW_PBE O 08Apr2002                                                                     
   LULTRA =        F    use ultrasoft PP ?                                                          
   IUNSCR =        1    unscreen: 0-lin 1-nonlin 2-no                                               
   RPACOR =    1.200    partial core radius                                                         
   POMASS =   16.000; ZVAL   =    6.000    mass and valenz                                          
   RCORE  =    1.520    outmost cutoff radius                                                       
   RWIGS  =    1.550; RWIGS  =    0.820    wigner-seitz radius (au A)                               
   ENMAX  =  400.000; ENMIN  =  300.000 eV                                                          
   ICORE  =        2    local potential                                                             
   LCOR   =        T    correct aug charges                                                         
   LPAW   =        T    paw PP                                                                      
   EAUG   =  605.392                                                                                
   DEXC   =    0.000                                                                                
   RMAX   =    1.553    core radius for proj-oper                                                   
   RAUG   =    1.300    factor for augmentation sphere                                              
   RDEP   =    1.550    radius for radial grids                                                     
   RDEPT  =    1.329    core radius for aug-charge                                                  
                                                                                                    
   Atomic configuration                                                                             
    4 entries                                                                                       
     n  l   j            E        occ.                                                              
     1  0  0.50      -514.6923   2.0000                                                             
     2  0  0.50       -23.9615   2.0000                                                             
     2  1  0.50        -9.0305   4.0000                                                             
     3  2  1.50        -9.5241   0.0000                                                             
   Description                                                                                      
     l       E           TYP  RCUT    TYP  RCUT                                                     
     0    -23.9615318     23  1.200                                                                 
     0     -9.5240782     23  1.200                                                                 
     1     -9.0304911     23  1.520                                                                 
     1      8.1634956     23  1.520                                                                 
     2     -9.5240782      7  1.500                                                                 
  local pseudopotential read in
  partial core-charges read in
  partial kinetic energy density read in
  kinetic energy density of atom read in
  atomic valenz-charges read in
  non local Contribution for L=           0  read in
    real space projection operators read in
  non local Contribution for L=           0  read in
    real space projection operators read in
  non local Contribution for L=           1  read in
    real space projection operators read in
  non local Contribution for L=           1  read in
    real space projection operators read in
    PAW grid and wavefunctions read in

   number of l-projection  operators is LMAX  =           4
   number of lm-projection operators is LMMAX =           8

 POTCAR:    PAW_PBE H 15Jun2001                   
   SHA256 =  030f79b5d3ab3cf0e668861823c8fb652ff669f3e15e46930bd03bfd63a607b6 H/POTCAR              
   COPYR  = (c) Copyright 15Jun2001 Georg Kresse                                                    
   COPYR  = This file is part of the software VASP. Any use, copying, and all other rights are regul
   COPYR  = If you do not have a valid VASP license, you may not use, copy or distribute this file. 
   VRHFIN =H: ultrasoft test                                                                        
   LEXCH  = PE                                                                                      
   EATOM  =    12.4884 eV,    0.9179 Ry                                                             
                                                                                                    
   TITEL  = PAW_PBE H 15Jun2001                                                                     
   LULTRA =        F    use ultrasoft PP ?                                                          
   IUNSCR =        0    unscreen: 0-lin 1-nonlin 2-no                                               
   RPACOR =    0.000    partial core radius                                                         
   POMASS =    1.000; ZVAL   =    1.000    mass and valenz                                          
   RCORE  =    1.100    outmost cutoff radius                                                       
   RWIGS  =    0.700; RWIGS  =    0.370    wigner-seitz radius (au A)                               
   ENMAX  =  250.000; ENMIN  =  200.000 eV                                                          
   RCLOC  =    0.701    cutoff for local pot                                                        
   LCOR   =        T    correct aug charges                                                         
   LPAW   =        T    paw PP                                                                      
   EAUG   =  400.000                                                                                
   RMAX   =    1.123    core radius for proj-oper                                                   
   RAUG   =    1.200    factor for augmentation sphere                                              
   RDEP   =    1.112    radius for radial grids                                                     
   RDEPT  =    0.926    core radius for aug-charge                                                  
                                                                                                    
   Atomic configuration                                                                             
    2 entries                                                                                       
     n  l   j            E        occ.                                                              
     1  0  0.50        -6.4927   1.0000                                                             
     2  1  0.50        -3.4015   0.0000                                                             
   Description                                                                                      
     l       E           TYP  RCUT    TYP  RCUT                                                     
     0     -6.4927494     23  1.100                                                                 
     0      6.8029130     23  1.100                                                                 
     1     -4.0817478     23  1.100                                                                 
  local pseudopotential read in
  atomic valenz-charges read in
  non local Contribution for L=           0  read in
    real space projection operators read in
  non local Contribution for L=           0  read in
    real space projection operators read in
  non local Contribution for L=           1  read in
    real space projection operators read in
    PAW grid and wavefunctions read in

   number of l-projection  operators is LMAX  =           3
   number of lm-projection operators is LMMAX =           5

 -----------------------------------------------------------------------------
|                                                                             |
|               ----> ADVICE to this user running VASP <----                  |
|                                                                             |
|     You enforced a specific xc type in the INCAR file but a different       |
|     type was found in the POTCAR file.                                      |
|     I HOPE YOU KNOW WHAT YOU ARE DOING!                                     |
|                                                                             |
 -----------------------------------------------------------------------------

  PAW_PBE C 08Apr2002                   :
 energy of atom  1       EATOM= -147.1560
 kinetic energy error for atom=    0.0057 (will be added to EATOM!!)
  PAW_PBE O 08Apr2002                   :
 energy of atom  2       EATOM= -432.3788
 kinetic energy error for atom=    0.0168 (will be added to EATOM!!)
  PAW_PBE H 15Jun2001                   :
 energy of atom  3       EATOM=  -12.4884
 kinetic energy error for atom=    0.0004 (will be added to EATOM!!)


 POSCAR:  C  O  H
  positions in direct lattice
  No initial velocities read in
 -----------------------------------------------------------------------------
|                                                                             |
|           W    W    AA    RRRRR   N    N  II  N    N   GGGG   !!!           |
|           W    W   A  A   R    R  NN   N  II  NN   N  G    G  !!!           |
|           W    W  A    A  R    R  N N  N  II  N N  N  G       !!!           |
|           W WW W  AAAAAA  RRRRR   N  N N  II  N  N N  G  GGG   !            |
|           WW  WW  A    A  R   R   N   NN  II  N   NN  G    G                |
|           W    W  A    A  R    R  N    N  II  N    N   GGGG   !!!           |
|                                                                             |
|     Specifying the vdW parameters                                           |
|     VDW_S8 = 1.747                                                          |
|     VDW_A1 = 0.536                                                          |
|     VDW_A2 = 3.073                                                          |
|     in the INCAR file will overwrite the defaults for revpbe. Please        |
|     make sure that is what you intended.                                    |
|                                                                             |
 -----------------------------------------------------------------------------

 exchange correlation table for  LEXCH =       40
   RHO(1)=    0.500       N(1)  =     2000
   RHO(2)=  100.500       N(2)  =     4000



--------------------------------------------------------------------------------------------------------


 ion  position               nearest neighbor table
   1  0.503  0.530  0.500-   3 1.10   6 1.10   5 1.10   2 1.44
   2  0.503  0.465  0.500-   4 0.97   1 1.44
   3  0.455  0.543  0.500-   1 1.10
   4  0.545  0.451  0.500-   2 0.97
   5  0.525  0.548  0.541-   1 1.10
   6  0.525  0.548  0.459-   1 1.10


IMPORTANT INFORMATION: All symmetrisations will be switched off!
NOSYMM: (Re-)initialisation of all symmetry stuff for point group C_1.


----------------------------------------------------------------------------------------

                                     Primitive cell                                     

  volume of cell :   10591.2532

  direct lattice vectors                    reciprocal lattice vectors
    21.971529000  0.000000000  0.000000000     0.045513446  0.000000000  0.000000000
     0.000000000 22.128834000  0.000000000     0.000000000  0.045189909  0.000000000
     0.000000000  0.000000000 21.783544000     0.000000000  0.000000000  0.045906213

  length of vectors
    21.971529000 22.128834000 21.783544000     0.045513446  0.045189909  0.045906213

  position of ions in fractional coordinates (direct lattice)
     0.502665467  0.529515909  0.500000000
     0.502936705  0.464536072  0.499999998
     0.454737252  0.543469397  0.500000000
     0.545077127  0.451214955  0.500000001
     0.524803465  0.548385169  0.541266224
     0.524803464  0.548385171  0.458733777

  ion indices of the primitive-cell ions
   primitive index   ion index
                 1           1
                 2           2
                 3           3
                 4           4
                 5           5
                 6           6

----------------------------------------------------------------------------------------



 KPOINTS: pymatgen v2020.8.13 with grid density = 

Automatic generation of k-mesh.
 Grid dimensions read from file:
 generate k-points for:    1    1    1

 Generating k-lattice:

  Cartesian coordinates                     Fractional coordinates (reciprocal lattice)
     0.045513446  0.000000000  0.000000000     1.000000000  0.000000000  0.000000000
     0.000000000  0.045189909  0.000000000     0.000000000  1.000000000  0.000000000
     0.000000000  0.000000000  0.045906213     0.000000000  0.000000000  1.000000000

  Length of vectors
     0.045513446  0.045189909  0.045906213

  Shift w.r.t. Gamma in fractional coordinates (k-lattice)
     0.000000000  0.000000000  0.000000000

 
 Subroutine IBZKPT returns following result:
 ===========================================
 
 Found      1 irreducible k-points:
 
 Following reciprocal coordinates:
            Coordinates               Weight
  0.000000  0.000000  0.000000      1.000000
 
 Following cartesian coordinates:
            Coordinates               Weight
  0.000000  0.000000  0.000000      1.000000
 
 
 Subroutine IBZKPT_HF returns following result:
 ==============================================
 
 Found      1 k-points in 1st BZ
 the following      1 k-points will be used (e.g. in the exchange kernel)
 Following reciprocal coordinates:   # in IRBZ
  0.000000  0.000000  0.000000    1.00000000   1 t-inv F


--------------------------------------------------------------------------------------------------------




 Dimension of arrays:
   k-points           NKPTS =      1   k-points in BZ     NKDIM =      1   number of bands    NBANDS=     64
   number of dos      NEDOS =    301   number of ions     NIONS =      6
   non local maximal  LDIM  =      4   non local SUM 2l+1 LMDIM =      8
   total plane-waves  NPLWV = ******
   max r-space proj   IRMAX =      1   max aug-charges    IRDMAX=   7343
   dimension x,y,z NGX =   180 NGY =  180 NGZ =  180
   dimension x,y,z NGXF=   360 NGYF=  360 NGZF=  360
   support grid    NGXF=   360 NGYF=  360 NGZF=  360
   ions per type =               1   1   4
   NGX,Y,Z   is equivalent  to a cutoff of  13.62, 13.52, 13.74 a.u.
   NGXF,Y,Z  is equivalent  to a cutoff of  27.24, 27.05, 27.47 a.u.

 SYSTEM =  MgO-rocksalt                            
 POSCAR =   C  O  H                                

--------------------------------------------------------------------------------------------------------


  energy-cutoff  :      600.00
  volume of cell :    10591.25
      direct lattice vectors                 reciprocal lattice vectors
    21.971529000  0.000000000  0.000000000     0.045513446  0.000000000  0.000000000
     0.000000000 22.128834000  0.000000000     0.000000000  0.045189909  0.000000000
     0.000000000  0.000000000 21.783544000     0.000000000  0.000000000  0.045906213

  length of vectors
    21.971529000 22.128834000 21.783544000     0.045513446  0.045189909  0.045906213



 k-points in units of 2pi/SCALE and weight: pymatgen v2020.8.13 with grid density = 
   0.00000000  0.00000000  0.00000000       1.000

 k-points in reciprocal lattice and weights: pymatgen v2020.8.13 with grid density = 
   0.00000000  0.00000000  0.00000000       1.000

 position of ions in fractional coordinates (direct lattice) 
   0.50266547  0.52951591  0.50000000
   0.50293671  0.46453607  0.50000000
   0.45473725  0.54346940  0.50000000
   0.54507713  0.45121496  0.50000000
   0.52480346  0.54838517  0.54126622
   0.52480346  0.54838517  0.45873378

 position of ions in cartesian coordinates  (Angst):
  11.04432889 11.71756966 10.89177199
  11.05028840 10.27964163 10.89177197
   9.99127273 12.02634408 10.89177200
  11.97617791  9.98486084 10.89177201
  11.53073454 12.13512438 11.79069661
  11.53073452 12.13512441  9.99284742



--------------------------------------------------------------------------------------------------------


--------------------------------------- Iteration      FINAL  ---------------------------------------


--------------------OUTCAR has been truncated-------------------------


--------------------OUTCAR has been truncated-------------------------


--------------------OUTCAR has been truncated-------------------------


--------------------OUTCAR has been truncated-------------------------


--------------------OUTCAR has been truncated-------------------------


--------------------OUTCAR has been truncated-------------------------


--------------------OUTCAR has been truncated-------------------------


--------------------OUTCAR has been truncated-------------------------


--------------------OUTCAR has been truncated-------------------------


--------------------OUTCAR has been truncated-------------------------



  FORCE on cell =-STRESS in cart. coord.  units (eV):
  Direction    XX          YY          ZZ          XY          YZ          ZX
  --------------------------------------------------------------------------------------
  Alpha Z     0.07064     0.07064     0.07064
  Ewald     125.14173   334.72053    38.43574   -42.07999     0.08712     0.17943
  Hartree   296.81373   451.32582   281.26798   -12.69383    -0.11168    -0.04368
  E(xc)     -57.50907   -57.36830   -57.96458    -0.14734    -0.00060    -0.00069
  Local    -555.46145  -921.38243  -478.76669    46.53955     0.09979    -0.04745
  n-local   -40.52306   -36.88639   -40.68532    -0.34822    -0.00782    -0.01052
  augment     6.27583     5.98985     8.05524     0.51981    -0.00073    -0.00074
  Kinetic   225.04989   223.43253   249.29059     8.18903     0.00297     0.01719
  Fock        0.00000     0.00000     0.00000     0.00000     0.00000     0.00000
  vdW         0.00098    -0.04314    -0.00539     0.00290     0.00003    -0.00007
  -------------------------------------------------------------------------------------
  Total      -0.14078    -0.14087    -0.30179    -0.01809     0.06909     0.09349
  in kB      -0.02130    -0.02131    -0.04565    -0.00274     0.01045     0.01414
  external pressure =       -0.03 kB  Pullay stress =        0.00 kB


 VOLUME and BASIS-vectors are now :
 -----------------------------------------------------------------------------
  energy-cutoff  :      600.00
  volume of cell :    10591.25
      direct lattice vectors                 reciprocal lattice vectors
    21.971529000  0.000000000  0.000000000     0.045513446  0.000000000  0.000000000
     0.000000000 22.128834000  0.000000000     0.000000000  0.045189909  0.000000000
     0.000000000  0.000000000 21.783544000     0.000000000  0.000000000  0.045906213

  length of vectors
    21.971529000 22.128834000 21.783544000     0.045513446  0.045189909  0.045906213


 FORCES acting on ions:
    Electron-Ion                     Ewald-Force                    Non-Local-Force
 -----------------------------------------------------------------------------------------------
   0.282E+01 -.126E+03 0.315E+00   -.300E+01 0.131E+03 -.422E+00   0.269E+00 -.551E+01 -.955E-01
   0.452E+02 0.165E+03 -.585E-01   -.845E+02 -.190E+03 0.409E-01   0.393E+02 0.255E+02 0.247E-01
   0.600E+02 -.302E+02 -.681E-02   -.655E+02 0.318E+02 0.582E-02   0.548E+01 -.162E+01 0.131E-02
   -.885E+02 0.438E+02 -.589E-02   0.964E+02 -.467E+02 0.603E-02   -.784E+01 0.283E+01 0.378E-03
   -.262E+02 -.351E+02 -.497E+02   0.286E+02 0.373E+02 0.542E+02   -.239E+01 -.212E+01 -.452E+01
   -.258E+02 -.348E+02 0.496E+02   0.281E+02 0.368E+02 -.539E+02   -.232E+01 -.205E+01 0.443E+01
 -----------------------------------------------------------------------------------------------
   -.325E+02 -.170E+02 0.151E+00   0.711E-14 0.142E-13 0.000E+00   0.325E+02 0.170E+02 -.151E+00


 POSITION                                       TOTAL-FORCE (eV/Angst)
 -----------------------------------------------------------------------------------
     11.04433     11.71757     10.89177         0.082111      0.062719     -0.200113
     11.05029     10.27964     10.89177        -0.002672      0.008642      0.007098
      9.99127     12.02634     10.89177        -0.002450     -0.009454      0.000332
     11.97618      9.98486     10.89177        -0.003530     -0.002290      0.000512
     11.53073     12.13512     11.79070         0.014881      0.008333     -0.019292
     11.53073     12.13512      9.98285        -0.088342     -0.067951      0.211463
 -----------------------------------------------------------------------------------
    total drift:                                0.000541      0.000785     -0.000091


--------------------------------------------------------------------------------------------------------



  FREE ENERGIE OF THE ION-ELECTRON SYSTEM (eV)
  ---------------------------------------------------
  free  energy   TOTEN  =       -30.18462737 eV

  energy  without entropy=      -30.18462737  energy(sigma->0) =      -30.18462737

 d Force = 0.9330081E-04[-0.423E-02, 0.442E-02]  d Energy = 0.3643996E-04 0.569E-04
 d Force = 0.1085606E+01[ 0.108E+01, 0.109E+01]  d Ewald  = 0.1085592E+01 0.144E-04


--------------------------------------------------------------------------------------------------------


    POTLOK:  cpu time      0.2302: real time      0.2302


--------------------------------------------------------------------------------------------------------


 Finite differences progress:
  Degree of freedom:  18/ 18
  Displacement:        2/  2
  Total:              36/ 36

 SECOND DERIVATIVES (NOT SYMMETRIZED)
 ------------------------------------
               1X          1Y          1Z          2X          2Y          2Z          3X          3Y          3Z          4X          4Y          4Z          5X          5Y          5Z          6X          6Y          6Z 
  1X   -54.932494    0.807176    0.000002    8.139847    2.169475   -0.000002   27.863504   -5.024091    0.000001    0.163524   -4.147941    0.000001    9.382809    3.097689    8.599287    9.382810    3.097691   -8.599288
  1Y     0.802908  -40.781036    0.000000   -2.263149   20.299578   -0.000002   -6.184023    5.421524    0.000001    0.898521    1.941242    0.000001    3.372871    6.559345    6.084148    3.372872    6.559346   -6.084149
  1Z     0.000282    0.001800  -50.759417   -0.000261   -0.000174    5.285321    0.000894   -0.000295    4.517200   -0.001246    0.000305    0.132378    8.492090    5.902632   20.411772   -8.491759   -5.904269   20.412746
  2X     8.123887   -2.265957   -0.003624  -51.256829   12.459930    0.000690   -0.288504   -3.591570    0.000957   44.329899   -9.301544    0.000380   -0.454262    1.349874   -0.291228   -0.454190    1.349266    0.292825
  2Y     2.166929   20.295613   -0.000001   12.434526  -35.518613   -0.000002   -0.371764    2.080844    0.000001  -14.454050    7.071071    0.000000    0.112179    3.035543    0.419545    0.112179    3.035543   -0.419543
  2Z     0.000906   -0.008776    5.268969    0.001697    0.004571   -3.834130    0.001100    0.000167   -0.173063   -0.005041    0.003763    0.207263   -0.195214    2.548097   -0.734817    0.196551   -2.547822   -0.734223
  3X    27.863542   -6.191560   -0.003828   -0.274907   -0.373624    0.002448  -29.669933    6.886934   -0.000433   -0.247381    0.122415    0.001791    1.164497   -0.222209   -0.089365    1.164182   -0.221956    0.089386
  3Y    -5.013137    5.423086   -0.000002   -3.591794    2.085171    0.000000    6.879891   -7.455663   -0.000001   -0.076162    0.740814    0.000001    0.900601   -0.396704   -0.085809    0.900601   -0.396704    0.085811
  3Z     0.004514    0.002212    4.516469    0.001061   -0.000467   -0.159418   -0.001636   -0.001531   -4.245387   -0.001891   -0.000243   -0.026371    2.454631   -0.593334   -0.043351   -2.456679    0.593363   -0.041942
  4X     0.171690    0.903306   -0.000294   44.336974  -14.478042   -0.000473   -0.247761   -0.075033   -0.001212  -44.129232   13.348127    0.000981   -0.064974    0.150696   -0.022347   -0.066695    0.150945    0.023344
  4Y    -4.148161    1.937004    0.000001   -9.282872    7.075830   -0.000005    0.121246    0.739588    0.000001   13.331005   -9.520519    0.000001   -0.010609   -0.115951    0.089982   -0.010609   -0.115952   -0.089979
  4Z     0.000306    0.001164    0.133726   -0.000713   -0.001965    0.223069   -0.000421    0.000434   -0.026049    0.000887   -0.000802   -0.231726   -0.128620    0.020889   -0.049442    0.128560   -0.019719   -0.049578
  5X     9.385043    3.372103    8.485832   -0.440047    0.112512   -0.188314    1.163540    0.900801    2.454921   -0.067719   -0.011076   -0.131797   -9.396147   -3.950309   -9.408066   -0.644668   -0.424030   -1.212577
  5Y     3.094345    6.560859    5.888897    1.350085    3.040313    2.548455   -0.221175   -0.396194   -0.590799    0.150528   -0.115299    0.022775   -3.949859   -8.531674   -7.190257   -0.423924   -0.558005   -0.679071
  5Z     8.606369    6.092067   20.411560   -0.290427    0.421797   -0.718415   -0.088690   -0.085404   -0.042045   -0.023833    0.089766   -0.049833   -9.413647   -7.198510  -21.613291    1.210227    0.680284    2.012023
  6X     9.384668    3.367632   -8.486369   -0.438628    0.114579    0.194455    1.164468    0.900649   -2.455726   -0.071490   -0.009098    0.129604   -0.644668   -0.423734    1.210937   -9.394349   -3.950028    9.407100
  6Y     3.094919    6.561957   -5.889621    1.350968    3.041765   -2.547329   -0.220211   -0.396900    0.590757    0.150216   -0.115655   -0.022927   -0.424938   -0.558873    0.677405   -3.950954   -8.532294    7.191715
  6Z    -8.606372   -6.091623   20.412750    0.289721   -0.421185   -0.718034    0.089082    0.084911   -0.042276    0.023212   -0.090199   -0.050790   -1.209335   -0.680553    2.011198    9.413691    7.198648  -21.612848


 Eigenvectors and eigenvalues of the dynamical matrix
 ----------------------------------------------------


   1 f  =  112.348271 THz   705.905008 2PiTHz 3747.534946 cm-1   464.634907 meV
             X         Y         Z           dx          dy          dz
     11.044329 11.717570 10.891772     0.008977    0.003960   -0.000013  
     11.050288 10.279642 10.891772     0.226494   -0.082184   -0.000015  
      9.991273 12.026344 10.891772    -0.014944    0.001415   -0.000035  
     11.976178  9.984861 10.891772    -0.920311    0.307616    0.000019  
     11.530735 12.135124 11.790697    -0.000996    0.002998   -0.001526  
     11.530735 12.135124  9.992847    -0.001079    0.002984    0.001569  

   2 f  =   91.451005 THz   574.603608 2PiTHz 3050.477160 cm-1   378.210795 meV
             X         Y         Z           dx          dy          dz
     11.044329 11.717570 10.891772    -0.293979    0.035593    0.000017  
     11.050288 10.279642 10.891772     0.006324    0.000381   -0.000013  
      9.991273 12.026344 10.891772     0.887414   -0.247302    0.000035  
     11.976178  9.984861 10.891772    -0.017134   -0.002686   -0.000017  
     11.530735 12.135124 11.790697     0.061729    0.062536    0.154691  
     11.530735 12.135124  9.992847     0.061728    0.062533   -0.154710  

   3 f  =   89.163423 THz   560.230306 2PiTHz 2974.171636 cm-1   368.750120 meV
             X         Y         Z           dx          dy          dz
     11.044329 11.717570 10.891772    -0.000011   -0.000014   -0.308320  
     11.050288 10.279642 10.891772    -0.000022    0.000010    0.001177  
      9.991273 12.026344 10.891772    -0.000001   -0.000002   -0.028522  
     11.976178  9.984861 10.891772     0.000051   -0.000016    0.004219  
     11.530735 12.135124 11.790697     0.313454    0.240164    0.544221  
     11.530735 12.135124  9.992847    -0.313393   -0.240138    0.544165  

   4 f  =   87.689157 THz   550.967221 2PiTHz 2924.995422 cm-1   362.653049 meV
             X         Y         Z           dx          dy          dz
     11.044329 11.717570 10.891772     0.091187    0.141392   -0.000022  
     11.050288 10.279642 10.891772    -0.001466    0.010769    0.000004  
      9.991273 12.026344 10.891772     0.271207   -0.071810   -0.000021  
     11.976178  9.984861 10.891772    -0.001912    0.004249   -0.000003  
     11.530735 12.135124 11.790697    -0.289745   -0.232807   -0.555176  
     11.530735 12.135124  9.992847    -0.289761   -0.232897    0.555220  

   5 f  =   43.871062 THz   275.650009 2PiTHz 1463.381096 cm-1   181.436050 meV
             X         Y         Z           dx          dy          dz
     11.044329 11.717570 10.891772    -0.141651   -0.074544    0.000223  
     11.050288 10.279642 10.891772    -0.077298   -0.026499   -0.000032  
      9.991273 12.026344 10.891772    -0.105083   -0.329186   -0.000700  
     11.976178  9.984861 10.891772     0.025284    0.120607    0.000108  
     11.530735 12.135124 11.790697     0.440667    0.286130   -0.375211  
     11.530735 12.135124  9.992847     0.439797    0.286712    0.375024  

   6 f  =   43.494522 THz   273.284145 2PiTHz 1450.821104 cm-1   179.878810 meV
             X         Y         Z           dx          dy          dz
     11.044329 11.717570 10.891772     0.000206    0.000391    0.201311  
     11.050288 10.279642 10.891772     0.000001    0.000144    0.033343  
      9.991273 12.026344 10.891772    -0.000074   -0.000390   -0.710887  
     11.976178  9.984861 10.891772    -0.000010   -0.000145    0.010283  
     11.530735 12.135124 11.790697     0.386416   -0.270090   -0.065009  
     11.530735 12.135124  9.992847    -0.387096    0.268687   -0.066083  

   7 f  =   42.829987 THz   269.108745 2PiTHz 1428.654587 cm-1   177.130514 meV
             X         Y         Z           dx          dy          dz
     11.044329 11.717570 10.891772    -0.040728    0.330165   -0.000240  
     11.050288 10.279642 10.891772    -0.011660    0.079429   -0.000021  
      9.991273 12.026344 10.891772    -0.189223   -0.566277    0.000697  
     11.976178  9.984861 10.891772    -0.002717    0.023499    0.000073  
     11.530735 12.135124 11.790697     0.189574   -0.459647    0.123784  
     11.530735 12.135124  9.992847     0.190386   -0.460192   -0.123665  

   8 f  =   39.921385 THz   250.833459 2PiTHz 1331.634063 cm-1   165.101507 meV
             X         Y         Z           dx          dy          dz
     11.044329 11.717570 10.891772    -0.377788    0.082809    0.000021  
     11.050288 10.279642 10.891772     0.277565    0.078642    0.000016  
      9.991273 12.026344 10.891772    -0.015590    0.343723   -0.000064  
     11.976178  9.984861 10.891772    -0.176537   -0.701200    0.000033  
     11.530735 12.135124 11.790697     0.195555   -0.122094   -0.099351  
     11.530735 12.135124  9.992847     0.195426   -0.121984    0.099329  

   9 f  =   33.901743 THz   213.010935 2PiTHz 1130.840433 cm-1   140.206281 meV
             X         Y         Z           dx          dy          dz
     11.044329 11.717570 10.891772    -0.000143    0.000023   -0.417572  
     11.050288 10.279642 10.891772    -0.000011   -0.000123    0.214257  
      9.991273 12.026344 10.891772     0.000074    0.000324    0.246236  
     11.976178  9.984861 10.891772     0.000116    0.000368    0.009078  
     11.530735 12.135124 11.790697    -0.045614   -0.574051    0.167448  
     11.530735 12.135124  9.992847     0.045852    0.573747    0.167541  

  10 f  =   31.448422 THz   197.596261 2PiTHz 1049.006433 cm-1   130.060163 meV
             X         Y         Z           dx          dy          dz
     11.044329 11.717570 10.891772    -0.223848   -0.380030    0.000324  
     11.050288 10.279642 10.891772     0.033736    0.246254   -0.000234  
      9.991273 12.026344 10.891772     0.094077    0.425304   -0.000045  
     11.976178  9.984861 10.891772     0.151069    0.513761    0.000125  
     11.530735 12.135124 11.790697     0.198655   -0.303659   -0.043507  
     11.530735 12.135124  9.992847     0.198233   -0.304059    0.043249  

  11 f  =   29.867100 THz   187.660526 2PiTHz  996.259227 cm-1   123.520346 meV
             X         Y         Z           dx          dy          dz
     11.044329 11.717570 10.891772    -0.112690    0.580763    0.000238  
     11.050288 10.279642 10.891772     0.000602   -0.647199   -0.000052  
      9.991273 12.026344 10.891772     0.029026    0.346428   -0.000160  
     11.976178  9.984861 10.891772     0.144758    0.256263   -0.000074  
     11.530735 12.135124 11.790697     0.107857   -0.012758   -0.007042  
     11.530735 12.135124  9.992847     0.107720   -0.013094    0.006950  

  12 f  =    8.680619 THz    54.541939 2PiTHz  289.554287 cm-1    35.900140 meV
             X         Y         Z           dx          dy          dz
     11.044329 11.717570 10.891772    -0.000898   -0.000187   -0.020517  
     11.050288 10.279642 10.891772     0.000836    0.000045    0.246466  
      9.991273 12.026344 10.891772    -0.000334   -0.000311   -0.279506  
     11.976178  9.984861 10.891772     0.000300    0.000381   -0.865947  
     11.530735 12.135124 11.790697    -0.211983    0.032127    0.097708  
     11.530735 12.135124  9.992847     0.211512   -0.032003    0.097807  

  13 f  =    0.431525 THz     2.711355 2PiTHz   14.394141 cm-1     1.784645 meV
             X         Y         Z           dx          dy          dz
     11.044329 11.717570 10.891772     0.346530    0.001493    0.697067  
     11.050288 10.279642 10.891772     0.208379    0.001041    0.366405  
      9.991273 12.026344 10.891772     0.110217    0.035419    0.212862  
     11.976178  9.984861 10.891772     0.042219   -0.030668    0.072383  
     11.530735 12.135124 11.790697     0.103909   -0.084352    0.238364  
     11.530735 12.135124  9.992847     0.123775    0.052863    0.238366  

  14 f  =    0.383992 THz     2.412695 2PiTHz   12.808604 cm-1     1.588064 meV
             X         Y         Z           dx          dy          dz
     11.044329 11.717570 10.891772     0.690930   -0.019716   -0.326393  
     11.050288 10.279642 10.891772     0.364230   -0.024450   -0.258069  
      9.991273 12.026344 10.891772     0.222558    0.073602   -0.072174  
     11.976178  9.984861 10.891772     0.068801   -0.075952   -0.079648  
     11.530735 12.135124 11.790697     0.254930   -0.023620   -0.115917  
     11.530735 12.135124  9.992847     0.206597   -0.060990   -0.115945  

  15 f/i=    0.007768 THz     0.048805 2PiTHz    0.259097 cm-1     0.032124 meV
             X         Y         Z           dx          dy          dz
     11.044329 11.717570 10.891772     0.026945    0.611739   -0.011544  
     11.050288 10.279642 10.891772     0.031402    0.706287   -0.014070  
      9.991273 12.026344 10.891772     0.007761    0.176414   -0.002542  
     11.976178  9.984861 10.891772     0.007859    0.176609   -0.004106  
     11.530735 12.135124 11.790697     0.008419    0.176356   -0.003630  
     11.530735 12.135124  9.992847     0.007147    0.176589   -0.003612  

  16 f/i=    0.916198 THz     5.756641 2PiTHz   30.561072 cm-1     3.789088 meV
             X         Y         Z           dx          dy          dz
     11.044329 11.717570 10.891772    -0.187195   -0.024321   -0.175780  
     11.050288 10.279642 10.891772     0.708047   -0.024191    0.370300  
      9.991273 12.026344 10.891772    -0.103581   -0.176216   -0.212378  
     11.976178  9.984861 10.891772     0.224291    0.142586    0.233461  
     11.530735 12.135124 11.790697    -0.233061    0.160276   -0.031522  
     11.530735 12.135124  9.992847    -0.009444   -0.017812   -0.031592  

  17 f/i=    0.983817 THz     6.181507 2PiTHz   32.816616 cm-1     4.068740 meV
             X         Y         Z           dx          dy          dz
     11.044329 11.717570 10.891772    -0.211361   -0.019668    0.232205  
     11.050288 10.279642 10.891772     0.430986   -0.020003   -0.582586  
      9.991273 12.026344 10.891772    -0.097270   -0.129428    0.293530  
     11.976178  9.984861 10.891772     0.142255    0.103459   -0.340410  
     11.530735 12.135124 11.790697     0.044319   -0.080736    0.044823  
     11.530735 12.135124  9.992847    -0.264668    0.183657    0.044748  

  18 f/i=    1.491612 THz     9.372073 2PiTHz   49.754814 cm-1     6.168808 meV
             X         Y         Z           dx          dy          dz
     11.044329 11.717570 10.891772    -0.004140    0.001063   -0.110633  
     11.050288 10.279642 10.891772     0.014644    0.001260    0.463311  
      9.991273 12.026344 10.891772    -0.002279   -0.003334    0.416268  
     11.976178  9.984861 10.891772     0.004644    0.003411   -0.260665  
     11.530735 12.135124 11.790697     0.407486    0.096344   -0.297776  
     11.530735 12.135124  9.992847    -0.412768   -0.092420   -0.297788  

 Finite differences POTIM=   1.0000000000000000E-002
     LOOP+:  cpu time     10.5039: real time     10.6744
    4ORBIT:  cpu time      0.0000: real time      0.0000

 total amount of memory used by VASP MPI-rank0    95505. kBytes
=======================================================================

   base      :      30000. kBytes
   nonl-proj :       6377. kBytes
   fftplans  :      19862. kBytes
   grid      :      38203. kBytes
   one-center:          1. kBytes
   wavefun   :       1062. kBytes

  
  
 General timing and accounting informations for this job:
 ========================================================
  
                  Total CPU time used (sec):      454.651
                            User time (sec):      451.329
                          System time (sec):        3.322
                         Elapsed time (sec):      472.776
  
                   Maximum memory used (kb):      216876.
                   Average memory used (kb):          N/A
  
                          Minor page faults:        32058
                          Major page faults:            0
                 Voluntary context switches:        31154
