 **********************************************************************
                          MRCC program system
 **********************************************************************
 
                              Written by
     Mihaly Kallay, Peter R. Nagy, David Mester, Laszlo Gyevi-Nagy,
        Jozsef Csoka, P. Bernat Szabo, Zoltan Rolik, Gyula Samu,
     Jozsef Csontos, Bence Hegely, Adam Ganyecz, Istvan Ladjanszki,
       Lorant Szegedy, Bence Ladoczki, Klara Petrov, Mate Farkas,
                    Pal D. Mezei, and Reka A. Horvath
 
        Department of Physical Chemistry and Materials Science
            Budapest University of Technology and Economics
                  Budapest P.O.Box 91, H-1521 Hungary
 
                              www.mrcc.hu
 
                      Release date: March 18, 2022

 ************************ 2023-02-05 13:13:07 *************************
 Executing minp...

 Reading input from MINP...
 
 Input file:
 
calc=FNO-CCSD(T)
verbosity=3
mem=220GB
unit=angs
scfiguess=small
scfalg=locfit1
ccmaxit=400
ccsdalg=dfdirect
ccsdthreads=4
ccsdmkl=thr
ptthreads=4
lnoepsv=1e-5
naf_cor=1e-2
basis=aug-cc-pVTZ
basis_sm=def2-SVP
dfbasis_scf=def2-QZVPP-RI-JK
dfbasis_cor=aug-cc-pVTZ-RI
unit=angs
geom=xyz
16

C    34.41670262    34.07107264    10.41543014
C    33.11117461    33.45680459    10.91530835
H    34.24160149    35.00442132     9.86225048
H    34.94674030    33.36940783     9.75379242
H    35.10002891    34.30603621    11.24227357
H    32.42643037    33.26105434    10.07939442
H    32.59136835    34.12756100    11.61262818
H    33.28915165    32.50678735    11.43686767
C    37.30146851    48.84299654    10.40841099
C    38.60118650    48.22916242    10.92356869
H    36.77622810    48.13879085     9.74571409
H    37.48350439    49.77393588     9.85291346
H    36.61044119    49.08363081    11.22702485
H    39.29502691    48.03252119    10.09551480
H    38.41694628    47.27964286    11.44396498
H    39.11330594    48.90070429    11.62587494

--------------------Output has been truncated-------------------------


--------------------Output has been truncated-------------------------


--------------------Output has been truncated-------------------------


--------------------Output has been truncated-------------------------


--------------------Output has been truncated-------------------------


--------------------Output has been truncated-------------------------


--------------------Output has been truncated-------------------------


--------------------Output has been truncated-------------------------


--------------------Output has been truncated-------------------------


--------------------Output has been truncated-------------------------


 
 Reference energy [au]:                      -158.519089252274
 DF-MP2 singlet pair energy [au]:              -0.600509923216
 DF-MP2 triplet pair energy [au]:              -0.150063697318
 DF-SCS-MP2 correlation energy [au]:           -0.770633140299
 DF-SCS-MP2 energy [au]:                     -159.289722392573
 DF-SOS-MP2 correlation energy [au]:           -0.780662900181
 DF-SOS-MP2 energy [au]:                     -159.299752152455
 DF-MP2 correlation energy [au]:               -0.750573620534
 DF-MP2 energy [au]:                         -159.269662872808

 Results in FNO basis:
 
 
 Reference energy [au]:                      -158.519089252274
 DF-MP2 singlet pair energy [au]:              -0.598169463486
 DF-MP2 triplet pair energy [au]:              -0.149851139254
 DF-SCS-MP2 correlation energy [au]:           -0.767753735935
 DF-SCS-MP2 energy [au]:                     -159.286842988209
 DF-SOS-MP2 correlation energy [au]:           -0.777620302532
 DF-SOS-MP2 energy [au]:                     -159.296709554806
 DF-MP2 correlation energy [au]:               -0.748020602740
 DF-MP2 energy [au]:                         -159.267109855014

 Results in NAF basis:
 
 
 Reference energy [au]:                      -158.519089252274
 DF-MP2 singlet pair energy [au]:              -0.598048076715
 DF-MP2 triplet pair energy [au]:              -0.149929256680
 DF-SCS-MP2 correlation energy [au]:           -0.767634110952
 DF-SCS-MP2 energy [au]:                     -159.286723363226
 DF-SOS-MP2 correlation energy [au]:           -0.777462499730
 DF-SOS-MP2 energy [au]:                     -159.296551752004
 DF-MP2 correlation energy [au]:               -0.747977333395
 DF-MP2 energy [au]:                         -159.267066585669

 ************************ 2023-02-05 13:13:51 *************************
 Executing ccsd...

 Allocation of 220.0 Gbytes of memory...

 Direct DF-CCSD(T) calculation
 
 Convergence criterion:  1.0E-06
 
 Number of occupied/virtual/auxiliary orbitals:    14   278   756
   3422.71 MB is the minimal memory requirement for (T)
    780.99 MB is the minimal memory requirement for CCSD
 
 Reference energy [au]:            -158.519089252274
 T1 contribution [au]:                0.000000000000
 Same spin MP2 energy [au]:          -0.149890079759
 Opposite spin MP2 energy [au]:      -0.598108428913
 MP2 correlation energy [au]:        -0.747998508672
 Total MP2 energy [au]:            -159.267087760946
 MP2 correction [au]:                -0.002575111862
 
 
 CPU time [min]:     0.903                   Wall time [min]:     0.132
 
 Starting CCSD iterations...
 
                     Residual norm          Energy
 Iteration  1        0.241423276863     -159.308944551039
 Iteration  2        0.060038563548     -159.328074560478
 Iteration  3        0.015975948385     -159.329986721416
 Iteration  4        0.003604225518     -159.330003356962
 Iteration  5        0.000758967475     -159.330013772808
 Iteration  6        0.000215375827     -159.330019927553
 Iteration  7        0.000051277187     -159.330019496793
 Iteration  8        0.000013080844     -159.330020080061
 Iteration  9        0.000002622740     -159.330020028010
 
 CCSD iteration has converged in  9 steps.
    23656.02 MB memory was utilized by CCSD
 
 T1 diagnostic:      7.817E-03            D1 diagnostic:      1.354E-02
 
 T1 contribution [au]:                                  0.000000000000
 PPL energy contribution [au]:                          0.205823691372
 Scaled PPL energy contribution [au]:                   0.206541118221

 OS-PPL energy contribution [au]:                       0.179923260657
 Scaled OS-PPL energy contribution [au]:                0.180665434962
 SS-PPL energy contribution [au]:                       0.025900430715
 Scaled SS-PPL energy contribution [au]:                0.025924084074

 Opposite spin CCSD energy [au]:                       -0.668569430917
 Same spin CCSD energy [au]:                           -0.142398666671
 CCSD correlation energy [au]:                         -0.810968097589
 CCSD correlation energy + MP2 correction [au]:        -0.813543209451
 CCSD correlation energy + MP2 + PPL corr. [au]:       -0.812825782601
 Total CCSD energy [au]:                             -159.330057349863
 Total CCSD energy + MP2 correction [au]:            -159.332632461725
 Total CCSD energy + MP2 + PPL corr. [au]:           -159.331915034875
 
 CPU time [min]:    53.812                   Wall time [min]:     1.793
 
 Calculation of (T) correction...
 
 
     4429.83 MB memory is utilized for (T)

 0%       25%       50%       75%       100%
 |---------|---------|---------|---------| 
 
 (T) correction [au]:                                    -0.027917968306
 (T*) correction [au]:                                   -0.028014080652
 (T+) correction [au]:                                   -0.028012915102
 CCSD(T) correlation energy [au]:                        -0.838886065895
 CCSD(T) correlation energy + MP2 correction [au]:       -0.841461177757
 CCSD(T+) correlation en. + MP2 + PPL corr. [au]:        -0.840838697704
 Total CCSD(T) energy [au]:                            -159.357975318169
 Total CCSD(T) energy + MP2 correction [au]:           -159.360550430031
 Total CCSD(T+) energy + MP2 + PPL corr. [au]:         -159.359927949978
 
 CPU time [min]:   111.866                   Wall time [min]:     3.496
 
 ************************ 2023-02-05 13:17:21 *************************
                      Normal termination of mrcc.
 **********************************************************************
