 vasp.6.3.0 20Jan22 (build Apr  1 2022 16:44:48) complex                         
 executed on        HPECrayEX_GCC date 2022.11.13  00:40:54
 running  512 mpi-ranks, with    1 threads/rank
 distrk:  each k-point on  512 cores,    1 groups
 distr:  one band on NCORE=   8 cores,   64 groups


--------------------------------------------------------------------------------------------------------


 INCAR:
   SYSTEM = MgO-rocksalt
   ISMEAR = 0
   SIGMA = 0.05
   EDIFF = 1E-6
   ALGO = ALL
   ISTART = 0
   IBRION = -1
   NSW = 0
   ISYM = 0
   DIPOL = 0.5 0.5 0.5
   IDIPOL = 3
   LDIPOL = .TRUE.
   GGA = RE
   IVDW = 13
   VDW_S8 = 1.7468
   VDW_A1 = 0.5363
   VDW_A2 = 3.0726
   ENCUT = 600
   PREC = Accurate
   LASPH = .TRUE.
   LREAL = .FALSE.
   ISPIN = 1
   NELM = 200
   NELMIN = 8
   NCORE = 8
   KPAR = 1
   LWAVE = .FALSE.
   LCHARG = .FALSE.

 POTCAR:    PAW_PBE C 08Apr2002                   
 POTCAR:    PAW_PBE O 08Apr2002                   
 POTCAR:    PAW_PBE Mg_pv 13Apr2007               
 POTCAR:    PAW_PBE O 08Apr2002                   
 POTCAR:    PAW_PBE C 08Apr2002                   
   SHA256 =  253f7b50bb8d59471dbedb8285d89021f4a42ed1a2c5d38a03a736e69125dd95 C/POTCAR              
   COPYR  = (c) Copyright 08Apr2002 Georg Kresse                                                    
   COPYR  = This file is part of the software VASP. Any use, copying, and all other rights are regul
   COPYR  = If you do not have a valid VASP license, you may not use, copy or distribute this file. 
   VRHFIN =C: s2p2                                                                                  
   LEXCH  = PE                                                                                      
   EATOM  =   147.1560 eV,   10.8157 Ry                                                             
                                                                                                    
   TITEL  = PAW_PBE C 08Apr2002                                                                     
   LULTRA =        F    use ultrasoft PP ?                                                          
   IUNSCR =        1    unscreen: 0-lin 1-nonlin 2-no                                               
   RPACOR =    1.200    partial core radius                                                         
   POMASS =   12.011; ZVAL   =    4.000    mass and valenz                                          
   RCORE  =    1.500    outmost cutoff radius                                                       
   RWIGS  =    1.630; RWIGS  =    0.863    wigner-seitz radius (au A)                               
   ENMAX  =  400.000; ENMIN  =  300.000 eV                                                          
   ICORE  =        2    local potential                                                             
   LCOR   =        T    correct aug charges                                                         
   LPAW   =        T    paw PP                                                                      
   EAUG   =  644.873                                                                                
   DEXC   =    0.000                                                                                
   RMAX   =    1.529    core radius for proj-oper                                                   
   RAUG   =    1.300    factor for augmentation sphere                                              
   RDEP   =    1.501    radius for radial grids                                                     
   RDEPT  =    1.300    core radius for aug-charge                                                  
                                                                                                    
   Atomic configuration                                                                             
    4 entries                                                                                       
     n  l   j            E        occ.                                                              
     1  0  0.50      -273.3789   2.0000                                                             
     2  0  0.50       -13.7508   2.0000                                                             
     2  1  0.50        -5.2854   2.0000                                                             
     3  2  1.50        -5.4423   0.0000                                                             
   Description                                                                                      
     l       E           TYP  RCUT    TYP  RCUT                                                     
     0    -13.7508458     23  1.200                                                                 
     0     -8.2022199     23  1.200                                                                 
     1     -5.2854383     23  1.500                                                                 
     1     34.0145650     23  1.500                                                                 
     2     -5.4423304      7  1.500                                                                 
  local pseudopotential read in
  partial core-charges read in
  partial kinetic energy density read in
  atomic valenz-charges read in
  non local Contribution for L=           0  read in
    real space projection operators read in
  non local Contribution for L=           0  read in
    real space projection operators read in
  non local Contribution for L=           1  read in
    real space projection operators read in
  non local Contribution for L=           1  read in
    real space projection operators read in
    PAW grid and wavefunctions read in

   number of l-projection  operators is LMAX  =           4
   number of lm-projection operators is LMMAX =           8

 POTCAR:    PAW_PBE O 08Apr2002                   
   SHA256 =  818f92134a0a090dccd8ba1447fa70422a3b330e708bb4f08108d8ae51209ddf O/POTCAR              
   COPYR  = (c) Copyright 08Apr2002 Georg Kresse                                                    
   COPYR  = This file is part of the software VASP. Any use, copying, and all other rights are regul
   COPYR  = If you do not have a valid VASP license, you may not use, copy or distribute this file. 
   VRHFIN =O: s2p4                                                                                  
   LEXCH  = PE                                                                                      
   EATOM  =   432.3788 eV,   31.7789 Ry                                                             
                                                                                                    
   TITEL  = PAW_PBE O 08Apr2002                                                                     
   LULTRA =        F    use ultrasoft PP ?                                                          
   IUNSCR =        1    unscreen: 0-lin 1-nonlin 2-no                                               
   RPACOR =    1.200    partial core radius                                                         
   POMASS =   16.000; ZVAL   =    6.000    mass and valenz                                          
   RCORE  =    1.520    outmost cutoff radius                                                       
   RWIGS  =    1.550; RWIGS  =    0.820    wigner-seitz radius (au A)                               
   ENMAX  =  400.000; ENMIN  =  300.000 eV                                                          
   ICORE  =        2    local potential                                                             
   LCOR   =        T    correct aug charges                                                         
   LPAW   =        T    paw PP                                                                      
   EAUG   =  605.392                                                                                
   DEXC   =    0.000                                                                                
   RMAX   =    1.553    core radius for proj-oper                                                   
   RAUG   =    1.300    factor for augmentation sphere                                              
   RDEP   =    1.550    radius for radial grids                                                     
   RDEPT  =    1.329    core radius for aug-charge                                                  
                                                                                                    
   Atomic configuration                                                                             
    4 entries                                                                                       
     n  l   j            E        occ.                                                              
     1  0  0.50      -514.6923   2.0000                                                             
     2  0  0.50       -23.9615   2.0000                                                             
     2  1  0.50        -9.0305   4.0000                                                             
     3  2  1.50        -9.5241   0.0000                                                             
   Description                                                                                      
     l       E           TYP  RCUT    TYP  RCUT                                                     
     0    -23.9615318     23  1.200                                                                 
     0     -9.5240782     23  1.200                                                                 
     1     -9.0304911     23  1.520                                                                 
     1      8.1634956     23  1.520                                                                 
     2     -9.5240782      7  1.500                                                                 
  local pseudopotential read in
  partial core-charges read in
  partial kinetic energy density read in
  kinetic energy density of atom read in
  atomic valenz-charges read in
  non local Contribution for L=           0  read in
    real space projection operators read in
  non local Contribution for L=           0  read in
    real space projection operators read in
  non local Contribution for L=           1  read in
    real space projection operators read in
  non local Contribution for L=           1  read in
    real space projection operators read in
    PAW grid and wavefunctions read in

   number of l-projection  operators is LMAX  =           4
   number of lm-projection operators is LMMAX =           8

 POTCAR:    PAW_PBE Mg_pv 13Apr2007               
   SHA256 =  f474ac0dd33840b9ae76c01d57fea79fdf77cdfbb07d5ade72c65f83c709b62b Mg_pv/POTCAR          
   COPYR  = (c) Copyright 13Apr2007 Georg Kresse                                                    
   COPYR  = This file is part of the software VASP. Any use, copying, and all other rights are regul
   COPYR  = If you do not have a valid VASP license, you may not use, copy or distribute this file. 
   VRHFIN =Mg: p6s2                                                                                 
   LEXCH  = PE                                                                                      
   EATOM  =  1056.7344 eV,   77.6678 Ry                                                             
                                                                                                    
   TITEL  = PAW_PBE Mg_pv 13Apr2007                                                                 
   LULTRA =        F    use ultrasoft PP ?                                                          
   IUNSCR =        1    unscreen: 0-lin 1-nonlin 2-no                                               
   RPACOR =    1.500    partial core radius                                                         
   POMASS =   24.305; ZVAL   =    8.000    mass and valenz                                          
   RCORE  =    2.000    outmost cutoff radius                                                       
   RWIGS  =    2.000; RWIGS  =    1.058    wigner-seitz radius (au A)                               
   ENMAX  =  403.929; ENMIN  =  302.947 eV                                                          
   RCLOC  =    1.506    cutoff for local pot                                                        
   LCOR   =        T    correct aug charges                                                         
   LPAW   =        T    paw PP                                                                      
   EAUG   =  758.780                                                                                
   DEXC   =    0.000                                                                                
   RMAX   =    2.045    core radius for proj-oper                                                   
   RAUG   =    1.300    factor for augmentation sphere                                              
   RDEP   =    2.025    radius for radial grids                                                     
   RDEPT  =    1.557    core radius for aug-charge                                                  
                                                                                                    
   Atomic configuration                                                                             
    5 entries                                                                                       
     n  l   j            E        occ.                                                              
     1  0  0.50     -1259.6230   2.0000                                                             
     2  0  0.50       -79.8442   2.0000                                                             
     2  1  1.50       -46.6121   6.0000                                                             
     3  0  0.50        -4.7055   2.0000                                                             
     3  2  1.50        -1.3606   0.0000                                                             
   Description                                                                                      
     l       E           TYP  RCUT    TYP  RCUT                                                     
     1    -46.6121073     23  1.600                                                                 
     1      2.7211652     23  1.600                                                                 
     0     -4.7054661     23  2.000                                                                 
     0     61.2262170     23  2.000                                                                 
     2     -1.3605826     23  2.000                                                                 
  local pseudopotential read in
  partial core-charges read in
  partial kinetic energy density read in
  atomic valenz-charges read in
  non local Contribution for L=           1  read in
    real space projection operators read in
  non local Contribution for L=           1  read in
    real space projection operators read in
  non local Contribution for L=           0  read in
    real space projection operators read in
  non local Contribution for L=           0  read in
    real space projection operators read in
  non local Contribution for L=           2  read in
    real space projection operators read in
    PAW grid and wavefunctions read in

   number of l-projection  operators is LMAX  =           5
   number of lm-projection operators is LMMAX =          13

 POTCAR:    PAW_PBE O 08Apr2002                   
   SHA256 =  818f92134a0a090dccd8ba1447fa70422a3b330e708bb4f08108d8ae51209ddf O/POTCAR              
   COPYR  = (c) Copyright 08Apr2002 Georg Kresse                                                    
   COPYR  = This file is part of the software VASP. Any use, copying, and all other rights are regul
   COPYR  = If you do not have a valid VASP license, you may not use, copy or distribute this file. 
   VRHFIN =O: s2p4                                                                                  
   LEXCH  = PE                                                                                      
   EATOM  =   432.3788 eV,   31.7789 Ry                                                             
                                                                                                    
   TITEL  = PAW_PBE O 08Apr2002                                                                     
   LULTRA =        F    use ultrasoft PP ?                                                          
   IUNSCR =        1    unscreen: 0-lin 1-nonlin 2-no                                               
   RPACOR =    1.200    partial core radius                                                         
   POMASS =   16.000; ZVAL   =    6.000    mass and valenz                                          
   RCORE  =    1.520    outmost cutoff radius                                                       
   RWIGS  =    1.550; RWIGS  =    0.820    wigner-seitz radius (au A)                               
   ENMAX  =  400.000; ENMIN  =  300.000 eV                                                          
   ICORE  =        2    local potential                                                             
   LCOR   =        T    correct aug charges                                                         
   LPAW   =        T    paw PP                                                                      
   EAUG   =  605.392                                                                                
   DEXC   =    0.000                                                                                
   RMAX   =    1.553    core radius for proj-oper                                                   
   RAUG   =    1.300    factor for augmentation sphere                                              
   RDEP   =    1.550    radius for radial grids                                                     
   RDEPT  =    1.329    core radius for aug-charge                                                  
                                                                                                    
   Atomic configuration                                                                             
    4 entries                                                                                       
     n  l   j            E        occ.                                                              
     1  0  0.50      -514.6923   2.0000                                                             
     2  0  0.50       -23.9615   2.0000                                                             
     2  1  0.50        -9.0305   4.0000                                                             
     3  2  1.50        -9.5241   0.0000                                                             
   Description                                                                                      
     l       E           TYP  RCUT    TYP  RCUT                                                     
     0    -23.9615318     23  1.200                                                                 
     0     -9.5240782     23  1.200                                                                 
     1     -9.0304911     23  1.520                                                                 
     1      8.1634956     23  1.520                                                                 
     2     -9.5240782      7  1.500                                                                 
  local pseudopotential read in
  partial core-charges read in
  partial kinetic energy density read in
  kinetic energy density of atom read in
  atomic valenz-charges read in
  non local Contribution for L=           0  read in
    real space projection operators read in
  non local Contribution for L=           0  read in
    real space projection operators read in
  non local Contribution for L=           1  read in
    real space projection operators read in
  non local Contribution for L=           1  read in
    real space projection operators read in
    PAW grid and wavefunctions read in

   number of l-projection  operators is LMAX  =           4
   number of lm-projection operators is LMMAX =           8

 -----------------------------------------------------------------------------
|                                                                             |
|               ----> ADVICE to this user running VASP <----                  |
|                                                                             |
|     You have a (more or less) 'large supercell' and for larger cells it     |
|     might be more efficient to use real-space projection operators.         |
|     Therefore, try LREAL= Auto in the INCAR file.                           |
|     Mind: For very accurate calculation, you might also keep the            |
|     reciprocal projection scheme (i.e. LREAL=.FALSE.).                      |
|                                                                             |
 -----------------------------------------------------------------------------

 -----------------------------------------------------------------------------
|                                                                             |
|               ----> ADVICE to this user running VASP <----                  |
|                                                                             |
|     You enforced a specific xc type in the INCAR file but a different       |
|     type was found in the POTCAR file.                                      |
|     I HOPE YOU KNOW WHAT YOU ARE DOING!                                     |
|                                                                             |
 -----------------------------------------------------------------------------

  PAW_PBE C 08Apr2002                   :
 energy of atom  1       EATOM= -147.1560
 kinetic energy error for atom=    0.0057 (will be added to EATOM!!)
  PAW_PBE O 08Apr2002                   :
 energy of atom  2       EATOM= -432.3788
 kinetic energy error for atom=    0.0168 (will be added to EATOM!!)
  PAW_PBE Mg_pv 13Apr2007               :
 energy of atom  3       EATOM=-1056.7344
 kinetic energy error for atom=    0.0221 (will be added to EATOM!!)
  PAW_PBE O 08Apr2002                   :
 energy of atom  4       EATOM= -432.3788
 kinetic energy error for atom=    0.0168 (will be added to EATOM!!)


 POSCAR:  C  O Mg  O
  positions in direct lattice
  No initial velocities read in
 -----------------------------------------------------------------------------
|                                                                             |
|           W    W    AA    RRRRR   N    N  II  N    N   GGGG   !!!           |
|           W    W   A  A   R    R  NN   N  II  NN   N  G    G  !!!           |
|           W    W  A    A  R    R  N N  N  II  N N  N  G       !!!           |
|           W WW W  AAAAAA  RRRRR   N  N N  II  N  N N  G  GGG   !            |
|           WW  WW  A    A  R   R   N   NN  II  N   NN  G    G                |
|           W    W  A    A  R    R  N    N  II  N    N   GGGG   !!!           |
|                                                                             |
|     Specifying the vdW parameters                                           |
|     VDW_S8 = 1.747                                                          |
|     VDW_A1 = 0.536                                                          |
|     VDW_A2 = 3.073                                                          |
|     in the INCAR file will overwrite the defaults for revpbe. Please        |
|     make sure that is what you intended.                                    |
|                                                                             |
 -----------------------------------------------------------------------------

 exchange correlation table for  LEXCH =       40
   RHO(1)=    0.500       N(1)  =     2000
   RHO(2)=  100.500       N(2)  =     4000



--------------------------------------------------------------------------------------------------------


 ion  position               nearest neighbor table
   1  0.500  0.250  0.723-   3 1.25   2 1.25  41 1.44
   2  0.500  0.386  0.746-   1 1.25  19 2.15
   3  0.500  0.114  0.746-   1 1.25  11 2.15
   4  0.250  0.000  0.352-  38 2.10  39 2.10  46 2.10  55 2.10  36 2.10
   5  0.500  0.250  0.352-  38 2.10  39 2.10  47 2.10  54 2.10  37 2.10
   6  0.250  0.250  0.451-  36 2.10  37 2.10  44 2.10  53 2.10  38 2.10  42 2.11
   7  0.500  0.000  0.451-  36 2.10  37 2.10  45 2.10  52 2.10  39 2.10  43 2.13
   8  0.252  0.999  0.551-  43 2.08  40 2.09  50 2.09  42 2.11  59 2.12  36 2.13
   9  0.500  0.250  0.547-  37 2.06  58 2.08  42 2.08  43 2.08  51 2.08
  10  0.236  0.250  0.646-  57 1.98  42 2.05  40 2.09  48 2.09  41 2.23
  11  0.500  0.988  0.658-  49 2.00  40 2.13  56 2.13   3 2.15  41 2.21
  12  0.250  0.500  0.352-  38 2.10  46 2.10  47 2.10  63 2.10  44 2.10
  13  0.500  0.750  0.352-  39 2.10  46 2.10  47 2.10  62 2.10  45 2.10
  14  0.250  0.750  0.451-  36 2.10  44 2.10  45 2.10  61 2.10  46 2.10  50 2.11
  15  0.500  0.500  0.451-  37 2.10  44 2.10  45 2.10  60 2.10  47 2.10  51 2.13
  16  0.252  0.501  0.551-  51 2.08  48 2.09  50 2.09  42 2.11  67 2.12  44 2.13
  17  0.500  0.750  0.551-  50 2.10  66 2.10  43 2.12  51 2.12  49 2.13  45 2.13
  18  0.247  0.750  0.648-  65 2.08  50 2.09  48 2.11  40 2.11  49 2.13
  19  0.500  0.512  0.658-  49 2.00  64 2.13  48 2.13   2 2.15  41 2.21
  20  0.750  0.000  0.352-  39 2.10  54 2.10  55 2.10  62 2.10  52 2.10
  21  0.000  0.250  0.352-  38 2.10  54 2.10  55 2.10  63 2.10  53 2.10
  22  0.750  0.250  0.451-  37 2.10  52 2.10  53 2.10  60 2.10  54 2.10  58 2.11
  23  0.000  0.000  0.451-  59 2.09  52 2.10  53 2.10  36 2.10  61 2.10  55 2.10
  24  0.748  0.999  0.551-  43 2.08  56 2.09  66 2.09  58 2.11  59 2.12  52 2.13
  25  1.000  0.250  0.548-  53 2.08  59 2.10  67 2.10  58 2.12  42 2.12  57 2.12
  26  0.764  0.250  0.646-  57 1.98  58 2.05  56 2.09  64 2.09  41 2.23
  27  0.000  0.997  0.647-  65 2.08  40 2.08  56 2.08  59 2.10  57 2.12
  28  0.750  0.500  0.352-  47 2.10  54 2.10  62 2.10  63 2.10  60 2.10
  29  0.000  0.750  0.352-  46 2.10  55 2.10  62 2.10  63 2.10  61 2.10
  30  0.750  0.750  0.451-  45 2.10  52 2.10  60 2.10  61 2.10  62 2.10  66 2.11
  31  0.000  0.500  0.451-  67 2.09  53 2.10  60 2.10  61 2.10  44 2.10  63 2.10
  32  0.748  0.501  0.551-  51 2.08  64 2.09  66 2.09  58 2.11  67 2.12  60 2.13
  33  0.000  0.750  0.549-  61 2.10  59 2.11  67 2.11  50 2.11  66 2.11  65 2.12
  34  0.753  0.750  0.648-  65 2.08  66 2.09  64 2.11  56 2.11  49 2.13
  35  0.000  0.503  0.647-  65 2.08  64 2.08  48 2.08  67 2.10  57 2.12
  36  0.250  0.000  0.451-   6 2.10   7 2.10  14 2.10  23 2.10   4 2.10   8 2.13
  37  0.500  0.250  0.451-   9 2.06   7 2.10   6 2.10  15 2.10  22 2.10   5 2.10
  38  0.250  0.250  0.352-   4 2.10   5 2.10  12 2.10  21 2.10   6 2.10
  39  0.500  0.000  0.352-   4 2.10   5 2.10  13 2.10  20 2.10   7 2.10
  40  0.248  0.001  0.649-  27 2.08   8 2.09  10 2.09  18 2.11  11 2.13
  41  0.500  0.250  0.655-   1 1.44  19 2.21  11 2.21  10 2.23  26 2.23
  42  0.252  0.250  0.550-  10 2.05   9 2.08   8 2.11  16 2.11   6 2.11  25 2.12
  43  0.500  0.002  0.551-  24 2.08   8 2.08   9 2.08  17 2.12   7 2.13
  44  0.250  0.500  0.451-   6 2.10  14 2.10  15 2.10  31 2.10  12 2.10  16 2.13
  45  0.500  0.750  0.451-   7 2.10  14 2.10  15 2.10  30 2.10  13 2.10  17 2.13
  46  0.250  0.750  0.352-   4 2.10  12 2.10  13 2.10  29 2.10  14 2.10
  47  0.500  0.500  0.352-   5 2.10  12 2.10  13 2.10  28 2.10  15 2.10
  48  0.248  0.499  0.649-  35 2.08  16 2.09  10 2.09  18 2.11  19 2.13
  49  0.500  0.750  0.651-  11 2.00  19 2.00  34 2.13  18 2.13  17 2.13
  50  0.251  0.750  0.550-  18 2.09   8 2.09  16 2.09  17 2.10  33 2.11  14 2.11
  51  0.500  0.498  0.551-  32 2.08  16 2.08   9 2.08  17 2.12  15 2.13
  52  0.750  0.000  0.451-   7 2.10  22 2.10  23 2.10  30 2.10  20 2.10  24 2.13
  53  0.000  0.250  0.451-  25 2.08  22 2.10  23 2.10   6 2.10  31 2.10  21 2.10
  54  0.750  0.250  0.352-   5 2.10  20 2.10  21 2.10  28 2.10  22 2.10
  55  0.000  0.000  0.352-   4 2.10  20 2.10  21 2.10  29 2.10  23 2.10
  56  0.752  0.001  0.649-  27 2.08  24 2.09  26 2.09  34 2.11  11 2.13
  57  0.000  0.250  0.648-  26 1.98  10 1.98  25 2.12  27 2.12  35 2.12
  58  0.748  0.250  0.550-  26 2.05   9 2.08  24 2.11  32 2.11  22 2.11  25 2.12
  59  1.000  0.001  0.549-  23 2.09  25 2.10  27 2.10  33 2.11  24 2.12   8 2.12
  60  0.750  0.500  0.451-  15 2.10  22 2.10  30 2.10  31 2.10  28 2.10  32 2.13
  61  0.000  0.750  0.451-  33 2.10  23 2.10  30 2.10  31 2.10  14 2.10  29 2.10
  62  0.750  0.750  0.352-  13 2.10  20 2.10  28 2.10  29 2.10  30 2.10
  63  0.000  0.500  0.352-  12 2.10  21 2.10  28 2.10  29 2.10  31 2.10
  64  0.752  0.499  0.649-  35 2.08  32 2.09  26 2.09  34 2.11  19 2.13
  65  0.000  0.750  0.649-  18 2.08  34 2.08  27 2.08  35 2.08  33 2.12
  66  0.749  0.750  0.550-  34 2.09  24 2.09  32 2.09  17 2.10  33 2.11  30 2.11
  67  1.000  0.499  0.549-  31 2.09  25 2.10  35 2.10  33 2.11  32 2.12  16 2.12


IMPORTANT INFORMATION: All symmetrisations will be switched off!
NOSYMM: (Re-)initialisation of all symmetry stuff for point group C_1.


----------------------------------------------------------------------------------------

                                     Primitive cell                                     

  volume of cell :    1504.9259

  direct lattice vectors                    reciprocal lattice vectors
     8.404861995  0.000000000  0.000000000     0.118978753  0.000000000  0.000000000
     0.000000000  8.404861995  0.000000000     0.000000000  0.118978753  0.000000000
     0.000000000  0.000000000 21.303646496     0.000000000  0.000000000  0.046940321

  length of vectors
     8.404861995  8.404861995 21.303646496     0.118978753  0.118978753  0.046940321

  position of ions in fractional coordinates (direct lattice)
     0.500000096  0.249998689  0.722550211
     0.500000460  0.386173691  0.745649525
     0.499999998  0.113837232  0.745649584
     0.250000000  0.000000000  0.352052406
     0.500000000  0.250000000  0.352052406
     0.250000000  0.250000000  0.450684135
     0.500000000  0.000000000  0.450684135
     0.252436962  0.999143173  0.550526956
     0.500000024  0.249999955  0.547286935
     0.235931399  0.250000306  0.646083805
     0.499999969  0.987561980  0.658111968
     0.250000000  0.500000000  0.352052406
     0.500000000  0.750000000  0.352052406
     0.250000000  0.750000000  0.450684135
     0.500000000  0.500000000  0.450684135
     0.252436458  0.500856964  0.550526685
     0.499999962  0.750001050  0.550892628
     0.247170124  0.750000480  0.647918459
     0.500000024  0.512440090  0.658110199
     0.750000000  0.000000000  0.352052406
     0.000000000  0.250000000  0.352052406
     0.750000000  0.250000000  0.450684135
     0.000000000  0.000000000  0.450684135
     0.747563017  0.999143227  0.550527002
     0.999999966  0.249999757  0.548363647
     0.764068625  0.250000323  0.646083817
     0.000000017  0.997361687  0.647425839
     0.750000000  0.500000000  0.352052406
     0.000000000  0.750000000  0.352052406
     0.750000000  0.750000000  0.450684135
     0.000000000  0.500000000  0.450684135
     0.747563548  0.500856944  0.550526736
     0.000000018  0.750000117  0.549212118
     0.752829860  0.750000505  0.647918423
     0.000000016  0.502638624  0.647425610
     0.250000000  0.000000000  0.450684135
     0.500000000  0.250000000  0.450684135
     0.250000000  0.250000000  0.352052406
     0.500000000  0.000000000  0.352052406
     0.247904139  0.001419505  0.648674144
     0.499999978  0.250001216  0.654977897
     0.252446265  0.250000060  0.549933682
     0.500000000  0.002338425  0.550609854
     0.250000000  0.500000000  0.450684135
     0.500000000  0.750000000  0.450684135
     0.250000000  0.750000000  0.352052406
     0.500000000  0.500000000  0.352052406
     0.247903610  0.498581504  0.648673634
     0.500000029  0.750001271  0.650803883
     0.250659434  0.750000198  0.549652645
     0.500000013  0.497662390  0.550610081
     0.750000000  0.000000000  0.450684135
     0.000000000  0.250000000  0.450684135
     0.750000000  0.250000000  0.352052406
     0.000000000  0.000000000  0.352052406
     0.752095838  0.001419555  0.648674126
     0.000000001  0.249999999  0.647998526
     0.747553721  0.250000073  0.549933714
     0.999999982  0.000525421  0.548996737
     0.750000000  0.500000000  0.450684135
     0.000000000  0.750000000  0.450684135
     0.750000000  0.750000000  0.352052406
     0.000000000  0.500000000  0.352052406
     0.752096438  0.498581505  0.648673647
     0.000000006  0.750000431  0.648867972
     0.749340560  0.750000196  0.549652666
     0.999999983  0.499474467  0.548996530

  ion indices of the primitive-cell ions
   primitive index   ion index
                 1           1
                 2           2
                 3           3
                 4           4
                 5           5
                 6           6
                 7           7
                 8           8
                 9           9
                10          10
                11          11
                12          12
                13          13
                14          14
                15          15
                16          16
                17          17
                18          18
                19          19
                20          20
                21          21
                22          22
                23          23
                24          24
                25          25
                26          26
                27          27
                28          28
                29          29
                30          30
                31          31
                32          32
                33          33
                34          34
                35          35
                36          36
                37          37
                38          38
                39          39
                40          40
                41          41
                42          42
                43          43
                44          44
                45          45
                46          46
                47          47
                48          48
                49          49
                50          50
                51          51
                52          52
                53          53
                54          54
                55          55
                56          56
                57          57
                58          58
                59          59
                60          60
                61          61
                62          62
                63          63
                64          64
                65          65
                66          66
                67          67

----------------------------------------------------------------------------------------



 KPOINTS: pymatgen v2020.8.13 with grid density = 

Automatic generation of k-mesh.
 Grid dimensions read from file:
 generate k-points for:    2    2    1

 Generating k-lattice:

  Cartesian coordinates                     Fractional coordinates (reciprocal lattice)
     0.059489377  0.000000000  0.000000000     0.500000000  0.000000000  0.000000000
     0.000000000  0.059489377  0.000000000     0.000000000  0.500000000  0.000000000
     0.000000000  0.000000000  0.046940321     0.000000000  0.000000000  1.000000000

  Length of vectors
     0.059489377  0.059489377  0.046940321

  Shift w.r.t. Gamma in fractional coordinates (k-lattice)
     0.000000000  0.000000000  0.000000000

 
 Subroutine IBZKPT returns following result:
 ===========================================
 
 Found      4 irreducible k-points:
 
 Following reciprocal coordinates:
            Coordinates               Weight
  0.000000  0.000000  0.000000      1.000000
  0.500000  0.000000  0.000000      1.000000
  0.000000  0.500000  0.000000      1.000000
  0.500000  0.500000  0.000000      1.000000
 
 Following cartesian coordinates:
            Coordinates               Weight
  0.000000  0.000000  0.000000      1.000000
  0.059489  0.000000  0.000000      1.000000
  0.000000  0.059489  0.000000      1.000000
  0.059489  0.059489  0.000000      1.000000
 


--------------------------------------------------------------------------------------------------------




 Dimension of arrays:
   k-points           NKPTS =      4   k-points in BZ     NKDIM =      4   number of bands    NBANDS=    320
   number of dos      NEDOS =    301   number of ions     NIONS =     67
   non local maximal  LDIM  =      5   non local SUM 2l+1 LMDIM =     13
   total plane-waves  NPLWV = 882000
   max r-space proj   IRMAX =      1   max aug-charges    IRDMAX=  11749
   dimension x,y,z NGX =    70 NGY =   70 NGZ =  180
   dimension x,y,z NGXF=   140 NGYF=  140 NGZF=  360
   support grid    NGXF=   140 NGYF=  140 NGZF=  360
   ions per type =               1   2  32  32
   NGX,Y,Z   is equivalent  to a cutoff of  13.85, 13.85, 14.05 a.u.
   NGXF,Y,Z  is equivalent  to a cutoff of  27.69, 27.69, 28.09 a.u.

 SYSTEM =  MgO-rocksalt                            
 POSCAR =   C  O Mg  O                             

--------------------------------------------------------------------------------------------------------


  energy-cutoff  :      600.00
  volume of cell :     1504.93
      direct lattice vectors                 reciprocal lattice vectors
     8.404861995  0.000000000  0.000000000     0.118978753  0.000000000  0.000000000
     0.000000000  8.404861995  0.000000000     0.000000000  0.118978753  0.000000000
     0.000000000  0.000000000 21.303646496     0.000000000  0.000000000  0.046940321

  length of vectors
     8.404861995  8.404861995 21.303646496     0.118978753  0.118978753  0.046940321



 k-points in units of 2pi/SCALE and weight: pymatgen v2020.8.13 with grid density = 
   0.00000000  0.00000000  0.00000000       0.250
   0.05948938  0.00000000  0.00000000       0.250
   0.00000000  0.05948938  0.00000000       0.250
   0.05948938  0.05948938  0.00000000       0.250

 k-points in reciprocal lattice and weights: pymatgen v2020.8.13 with grid density = 
   0.00000000  0.00000000  0.00000000       0.250
   0.50000000  0.00000000  0.00000000       0.250
   0.00000000  0.50000000  0.00000000       0.250
   0.50000000  0.50000000  0.00000000       0.250

 position of ions in fractional coordinates (direct lattice) 
   0.50000010  0.24999869  0.72255021
   0.50000046  0.38617369  0.74564953
   0.50000000  0.11383723  0.74564958
   0.25000000  0.00000000  0.35205241
   0.50000000  0.25000000  0.35205241
   0.25000000  0.25000000  0.45068414
   0.50000000  0.00000000  0.45068414
   0.25243696  0.99914317  0.55052696
   0.50000002  0.24999996  0.54728694
   0.23593140  0.25000031  0.64608381
   0.49999997  0.98756198  0.65811197
   0.25000000  0.50000000  0.35205241
   0.50000000  0.75000000  0.35205241
   0.25000000  0.75000000  0.45068414
   0.50000000  0.50000000  0.45068414
   0.25243646  0.50085696  0.55052668
   0.49999996  0.75000105  0.55089263
   0.24717012  0.75000048  0.64791846
   0.50000002  0.51244009  0.65811020
   0.75000000  0.00000000  0.35205241
   0.00000000  0.25000000  0.35205241
   0.75000000  0.25000000  0.45068414
   0.00000000  0.00000000  0.45068414
   0.74756302  0.99914323  0.55052700
   0.99999997  0.24999976  0.54836365
   0.76406863  0.25000032  0.64608382
   0.00000002  0.99736169  0.64742584
   0.75000000  0.50000000  0.35205241
   0.00000000  0.75000000  0.35205241
   0.75000000  0.75000000  0.45068414
   0.00000000  0.50000000  0.45068414
   0.74756355  0.50085694  0.55052674
   0.00000002  0.75000012  0.54921212
   0.75282986  0.75000051  0.64791842
   0.00000002  0.50263862  0.64742561
   0.25000000  0.00000000  0.45068414
   0.50000000  0.25000000  0.45068414
   0.25000000  0.25000000  0.35205241
   0.50000000  0.00000000  0.35205241
   0.24790414  0.00141951  0.64867414
   0.49999998  0.25000122  0.65497790
   0.25244627  0.25000006  0.54993368
   0.50000000  0.00233842  0.55060985
   0.25000000  0.50000000  0.45068414
   0.50000000  0.75000000  0.45068414
   0.25000000  0.75000000  0.35205241
   0.50000000  0.50000000  0.35205241
   0.24790361  0.49858150  0.64867363
   0.50000003  0.75000127  0.65080388
   0.25065943  0.75000020  0.54965265
   0.50000001  0.49766239  0.55061008
   0.75000000  0.00000000  0.45068414
   0.00000000  0.25000000  0.45068414
   0.75000000  0.25000000  0.35205241
   0.00000000  0.00000000  0.35205241
   0.75209584  0.00141956  0.64867413
   0.00000000  0.25000000  0.64799853
   0.74755372  0.25000007  0.54993371
   0.99999998  0.00052542  0.54899674
   0.75000000  0.50000000  0.45068414
   0.00000000  0.75000000  0.45068414
   0.75000000  0.75000000  0.35205241
   0.00000000  0.50000000  0.35205241
   0.75209644  0.49858150  0.64867365
   0.00000001  0.75000043  0.64886797
   0.74934056  0.75000020  0.54965267
   0.99999998  0.49947447  0.54899653

 position of ions in cartesian coordinates  (Angst):
   4.20243181  2.10120448 15.39295426
   4.20243487  3.24573658 15.88505390
   4.20243098  0.95678623 15.88505514
   2.10121550  0.00000000  7.50000000
   4.20243100  2.10121550  7.50000000
   2.10121550  2.10121550  9.60121550
   4.20243100  0.00000000  9.60121550
   2.12169783  8.39766048 11.72823165
   4.20243120  2.10121512 11.65920741
   1.98297085  2.10121807 13.76394100
   4.20243073  8.30032216 14.02018473
   2.10121550  4.20243100  7.50000000
   4.20243100  6.30364650  7.50000000
   2.10121550  6.30364650  9.60121550
   4.20243100  4.20243100  9.60121550
   2.12169359  4.20963366 11.72822588
   4.20243068  6.30365532 11.73602180
   2.07743078  6.30365053 13.80302581
   4.20243120  4.30698824 14.02014704
   6.30364650  0.00000000  7.50000000
   0.00000000  2.10121550  7.50000000
   6.30364650  2.10121550  9.60121550
   0.00000000  0.00000000  9.60121550
   6.28316399  8.39766094 11.72823264
   8.40486171  2.10121345 11.68214528
   6.42189135  2.10121821 13.76394124
   0.00000014  8.38268734 13.79253121
   6.30364650  4.20243100  7.50000000
   0.00000000  6.30364650  7.50000000
   6.30364650  6.30364650  9.60121550
   0.00000000  4.20243100  9.60121550
   6.28316845  4.20963349 11.72822696
   0.00000015  6.30364748 11.70022080
   6.32743108  6.30365074 13.80302505
   0.00000014  4.22460827 13.79252633
   2.10121550  0.00000000  9.60121550
   4.20243100  2.10121550  9.60121550
   2.10121550  2.10121550  7.50000000
   4.20243100  0.00000000  7.50000000
   2.08360008  0.01193075 13.81912465
   4.20243082  2.10122572 13.95341757
   2.12177602  2.10121600 11.71559276
   4.20243100  0.01965414 11.72999768
   2.10121550  4.20243100  9.60121550
   4.20243100  6.30364650  9.60121550
   2.10121550  6.30364650  7.50000000
   4.20243100  4.20243100  7.50000000
   2.08359563  4.19050873 13.81911380
   4.20243124  6.30365718 13.86449586
   2.10675795  6.30364816 11.70960565
   4.20243111  4.18278371 11.73000252
   6.30364650  0.00000000  9.60121550
   0.00000000  2.10121550  9.60121550
   6.30364650  2.10121550  7.50000000
   0.00000000  0.00000000  7.50000000
   6.32126173  0.01193116 13.81912426
   0.00000001  2.10121549 13.80473153
   6.28308586  2.10121612 11.71559344
   8.40486184  0.00441609 11.69563241
   6.30364650  4.20243100  9.60121550
   0.00000000  6.30364650  9.60121550
   6.30364650  6.30364650  7.50000000
   0.00000000  4.20243100  7.50000000
   6.32126677  4.19050874 13.81911407
   0.00000005  6.30365012 13.82325391
   6.29810399  6.30364814 11.70960609
   8.40486185  4.19801396 11.69562800



--------------------------------------------------------------------------------------------------------

--------------------------------------- Iteration      FINAL  ---------------------------------------


--------------------OUTCAR has been truncated-------------------------


--------------------OUTCAR has been truncated-------------------------


--------------------OUTCAR has been truncated-------------------------


--------------------OUTCAR has been truncated-------------------------


--------------------OUTCAR has been truncated-------------------------


--------------------OUTCAR has been truncated-------------------------


--------------------OUTCAR has been truncated-------------------------


--------------------OUTCAR has been truncated-------------------------


--------------------OUTCAR has been truncated-------------------------


--------------------OUTCAR has been truncated-------------------------



  FORCE on cell =-STRESS in cart. coord.  units (eV):
  Direction    XX          YY          ZZ          XY          YZ          ZX
  --------------------------------------------------------------------------------------
  Alpha Z   936.10291   936.10291   936.10291
  Ewald  162161.65108163062.53870************     0.00109    -0.01177     0.00043
  Hartree172649.76309173173.68795************     0.00059     0.00157     0.00014
  E(xc)   -2544.83929 -2542.57294 -2550.97946     0.00000    -0.00005     0.00000
  Local  ************************344943.85832    -0.00161     0.00628    -0.00055
  n-local -2843.26746 -2847.74289 -2867.62084    -0.00001     0.00062    -0.00000
  augment  1059.19554  1058.00281  1051.01493    -0.00000     0.00005     0.00000
  Kinetic  7664.36434  7625.85809  7692.94132    -0.00004     0.00055    -0.00003
  Fock        0.00000     0.00000     0.00000     0.00000     0.00000     0.00000
  vdW       -22.48713   -22.51875   -17.28647    -0.00000    -0.00000     0.00000
  -------------------------------------------------------------------------------------
  Total     -14.05503   -13.87637     6.92222     0.00001    -0.00276    -0.00001
  in kB     -14.96330   -14.77309     7.36955     0.00001    -0.00294    -0.00001
  external pressure =       -7.46 kB  Pullay stress =        0.00 kB


 VOLUME and BASIS-vectors are now :
 -----------------------------------------------------------------------------
  energy-cutoff  :      600.00
  volume of cell :     1504.93
      direct lattice vectors                 reciprocal lattice vectors
     8.404861995  0.000000000  0.000000000     0.118978753  0.000000000  0.000000000
     0.000000000  8.404861995  0.000000000     0.000000000  0.118978753  0.000000000
     0.000000000  0.000000000 21.303646496     0.000000000  0.000000000  0.046940321

  length of vectors
     8.404861995  8.404861995 21.303646496     0.118978753  0.118978753  0.046940321


 FORCES acting on ions:
    Electron-Ion                     Ewald-Force                    Non-Local-Force
 -----------------------------------------------------------------------------------------------
   0.340E-03 -.264E-01 -.112E+04   -.339E-03 0.322E-01 0.112E+04   0.692E-05 -.245E-03 -.253E+01
   -.646E-03 -.226E+03 -.182E+04   0.790E-03 0.269E+03 0.185E+04   -.149E-03 -.425E+02 -.274E+02
   0.266E-03 0.226E+03 -.182E+04   -.292E-03 -.269E+03 0.185E+04   0.237E-04 0.425E+02 -.274E+02
   0.188E-01 0.801E+00 0.212E+04   -.159E-01 -.839E+00 -.212E+04   -.260E-02 0.273E-01 -.723E+01
   -.141E-04 -.559E-06 0.213E+04   0.948E-05 -.238E-05 -.212E+04   -.200E-05 -.262E-05 -.705E+01
   0.252E+01 0.257E-03 0.760E+03   -.255E+01 -.281E-03 -.761E+03   0.100E-01 0.175E-04 0.790E+00
   -.516E-04 0.635E+01 0.756E+03   0.560E-04 -.665E+01 -.757E+03   -.199E-05 0.201E+00 0.555E+00
   0.478E+01 0.799E+01 -.598E+03   -.412E+01 -.823E+01 0.599E+03   -.676E+00 0.245E+00 -.133E+01
   0.149E-03 -.563E-03 -.582E+03   -.146E-03 0.456E-03 0.577E+03   -.604E-05 0.125E-03 0.502E+01
   0.441E+02 -.468E-03 -.190E+04   -.498E+02 0.670E-03 0.190E+04   0.581E+01 -.118E-03 0.719E+01
   0.749E-04 0.850E+02 -.192E+04   -.786E-04 -.881E+02 0.192E+04   0.465E-05 0.321E+01 0.131E+01
   0.187E-01 -.801E+00 0.212E+04   -.158E-01 0.839E+00 -.212E+04   -.259E-02 -.273E-01 -.723E+01
   -.141E-04 0.706E-05 0.212E+04   0.146E-04 -.330E-05 -.212E+04   -.192E-05 -.334E-05 -.724E+01
   -.120E+01 -.165E-03 0.756E+03   0.131E+01 0.197E-03 -.757E+03   -.796E-01 -.228E-04 0.447E+00
   -.508E-04 -.635E+01 0.756E+03   0.568E-04 0.665E+01 -.757E+03   -.586E-05 -.201E+00 0.555E+00
   0.478E+01 -.799E+01 -.598E+03   -.412E+01 0.823E+01 0.599E+03   -.676E+00 -.245E+00 -.133E+01
   -.598E-04 0.824E-03 -.606E+03   0.649E-04 -.752E-03 0.607E+03   0.116E-05 -.112E-03 -.447E+00
   0.280E+02 -.119E-03 -.199E+04   -.289E+02 -.926E-04 0.198E+04   0.981E+00 0.156E-03 0.656E+01
   0.339E-03 -.850E+02 -.192E+04   -.327E-03 0.881E+02 0.192E+04   -.835E-05 -.321E+01 0.131E+01
   -.188E-01 0.801E+00 0.212E+04   0.159E-01 -.839E+00 -.212E+04   0.259E-02 0.273E-01 -.723E+01
   0.897E-05 0.816E-04 0.213E+04   -.937E-05 -.818E-04 -.212E+04   -.381E-06 0.160E-05 -.709E+01
   -.252E+01 0.257E-03 0.760E+03   0.255E+01 -.280E-03 -.761E+03   -.100E-01 0.147E-04 0.790E+00
   0.486E-04 0.263E+01 0.760E+03   -.540E-04 -.279E+01 -.760E+03   0.366E-05 0.114E+00 0.102E+00
   -.478E+01 0.799E+01 -.598E+03   0.412E+01 -.823E+01 0.599E+03   0.676E+00 0.245E+00 -.133E+01
   -.144E-03 0.376E-03 -.574E+03   0.146E-03 -.368E-03 0.574E+03   0.151E-05 0.112E-04 0.702E-01
   -.441E+02 -.351E-03 -.190E+04   0.498E+02 0.556E-03 0.190E+04   -.581E+01 -.118E-03 0.719E+01
   -.820E-05 0.173E+02 -.200E+04   0.140E-04 -.181E+02 0.199E+04   -.758E-05 0.841E+00 0.643E+01
   -.187E-01 -.801E+00 0.212E+04   0.158E-01 0.839E+00 -.212E+04   0.259E-02 -.273E-01 -.723E+01
   0.151E-04 -.801E-04 0.212E+04   -.143E-04 0.813E-04 -.212E+04   0.386E-05 -.278E-05 -.720E+01
   0.120E+01 -.171E-03 0.756E+03   -.131E+01 0.204E-03 -.757E+03   0.796E-01 -.228E-04 0.447E+00
   0.453E-04 -.263E+01 0.760E+03   -.490E-04 0.279E+01 -.760E+03   0.274E-05 -.114E+00 0.102E+00
   -.478E+01 -.799E+01 -.598E+03   0.412E+01 0.823E+01 0.599E+03   0.676E+00 -.245E+00 -.133E+01
   0.469E-04 -.173E-03 -.599E+03   -.497E-04 0.215E-03 0.599E+03   0.120E-05 -.455E-04 -.197E+00
   -.280E+02 -.231E-03 -.199E+04   0.289E+02 0.156E-04 0.198E+04   -.981E+00 0.159E-03 0.656E+01
   -.187E-03 -.173E+02 -.200E+04   0.178E-03 0.181E+02 0.199E+04   0.710E-05 -.841E+00 0.643E+01
   0.335E+00 0.219E+01 0.567E+03   -.449E+00 -.228E+01 -.566E+03   0.148E+00 0.134E+00 -.333E+00
   -.152E-04 -.196E-03 0.578E+03   0.133E-04 0.166E-03 -.579E+03   0.152E-05 0.387E-04 0.548E+00
   0.182E+00 0.326E-04 0.160E+04   -.188E+00 -.365E-04 -.160E+04   0.887E-02 0.534E-05 0.345E+01
   -.922E-05 0.788E+00 0.160E+04   0.934E-05 -.838E+00 -.160E+04   -.450E-06 0.699E-01 0.339E+01
   0.362E+02 0.281E+02 -.147E+04   -.352E+02 -.281E+02 0.148E+04   -.944E+00 0.398E-02 -.504E+01
   0.278E-03 -.148E-02 -.124E+04   -.291E-03 0.240E-02 0.122E+04   0.864E-05 -.112E-02 0.239E+02
   0.216E+01 0.349E-03 -.436E+03   -.244E+01 -.312E-03 0.435E+03   0.268E+00 -.518E-04 0.927E+00
   0.485E-04 0.768E+01 -.465E+03   -.472E-04 -.807E+01 0.467E+03   -.122E-05 0.378E+00 -.192E+01
   0.334E+00 -.219E+01 0.567E+03   -.448E+00 0.228E+01 -.566E+03   0.148E+00 -.134E+00 -.332E+00
   -.553E-04 0.337E-03 0.564E+03   0.580E-04 -.365E-03 -.563E+03   -.285E-05 0.330E-04 -.293E+00
   -.140E+00 -.326E-04 0.160E+04   0.148E+00 0.343E-04 -.160E+04   -.115E-01 -.508E-05 0.336E+01
   -.736E-05 -.788E+00 0.160E+04   0.934E-05 0.838E+00 -.160E+04   -.133E-05 -.699E-01 0.339E+01
   0.362E+02 -.281E+02 -.147E+04   -.352E+02 0.281E+02 0.148E+04   -.944E+00 -.387E-02 -.504E+01
   0.101E-03 -.456E-03 -.148E+04   -.101E-03 0.361E-03 0.148E+04   -.290E-05 0.120E-03 -.375E+01
   0.254E+01 0.596E-05 -.445E+03   -.268E+01 -.111E-03 0.444E+03   0.137E+00 0.128E-03 0.368E+00
   0.556E-04 -.768E+01 -.465E+03   -.508E-04 0.807E+01 0.467E+03   -.288E-05 -.378E+00 -.192E+01
   -.335E+00 0.219E+01 0.567E+03   0.449E+00 -.228E+01 -.566E+03   -.148E+00 0.134E+00 -.333E+00
   0.107E-04 0.296E-03 0.573E+03   -.111E-04 -.283E-03 -.574E+03   -.149E-05 -.208E-04 0.382E+00
   -.182E+00 0.325E-04 0.160E+04   0.188E+00 -.364E-04 -.160E+04   -.888E-02 0.392E-05 0.345E+01
   0.661E-05 0.467E+00 0.160E+04   -.929E-05 -.502E+00 -.160E+04   0.160E-05 0.495E-01 0.339E+01
   -.362E+02 0.281E+02 -.147E+04   0.352E+02 -.281E+02 0.148E+04   0.944E+00 0.399E-02 -.504E+01
   -.170E-03 -.275E-03 -.150E+04   0.165E-03 0.347E-03 0.151E+04   0.280E-05 -.856E-04 -.502E+01
   -.216E+01 0.341E-03 -.436E+03   0.244E+01 -.302E-03 0.435E+03   -.268E+00 -.539E-04 0.927E+00
   -.246E-04 0.607E+01 -.441E+03   0.228E-04 -.613E+01 0.441E+03   0.404E-05 0.605E-01 0.954E-01
   -.334E+00 -.219E+01 0.567E+03   0.448E+00 0.228E+01 -.566E+03   -.148E+00 -.134E+00 -.333E+00
   0.512E-04 -.299E-03 0.569E+03   -.518E-04 0.299E-03 -.569E+03   0.206E-05 0.602E-05 -.241E-01
   0.140E+00 -.270E-04 0.160E+04   -.148E+00 0.345E-04 -.160E+04   0.115E-01 -.636E-05 0.336E+01
   0.833E-05 -.467E+00 0.160E+04   -.912E-05 0.502E+00 -.160E+04   0.390E-05 -.495E-01 0.339E+01
   -.362E+02 -.281E+02 -.147E+04   0.352E+02 0.281E+02 0.148E+04   0.944E+00 -.387E-02 -.504E+01
   0.590E-05 0.584E-03 -.152E+04   -.123E-04 -.742E-03 0.152E+04   0.664E-05 0.180E-03 -.488E+01
   -.254E+01 -.425E-04 -.445E+03   0.268E+01 -.592E-04 0.444E+03   -.137E+00 0.127E-03 0.368E+00
   -.699E-04 -.607E+01 -.441E+03   0.659E-04 0.613E+01 0.441E+03   0.445E-05 -.605E-01 0.953E-01
 -----------------------------------------------------------------------------------------------
   0.917E-04 -.525E-02 0.535E+02   -.241E-12 0.377E-12 -.176E-11   -.975E-04 0.526E-02 -.535E+02


 POSITION                                       TOTAL-FORCE (eV/Angst)
 -----------------------------------------------------------------------------------
      4.20243      2.10120     15.39295         0.000008      0.005565     -0.337762
      4.20243      3.24574     15.88505        -0.000005      0.890562      0.542683
      4.20243      0.95679     15.88506        -0.000002     -0.895951      0.545072
      2.10122      0.00000      7.50000         0.000289     -0.010542      0.282938
      4.20243      2.10122      7.50000        -0.000007     -0.000006      0.244236
      2.10122      2.10122      9.60122        -0.022150     -0.000007      0.024512
      4.20243      0.00000      9.60122         0.000003     -0.098980      0.118713
      2.12170      8.39766     11.72823        -0.013039      0.004387     -0.047284
      4.20243      2.10122     11.65921        -0.000003      0.000017      0.098995
      1.98297      2.10122     13.76394         0.169908      0.000083      0.139994
      4.20243      8.30032     14.02018         0.000001      0.139237     -0.036568
      2.10122      4.20243      7.50000         0.000290      0.010537      0.282939
      4.20243      6.30365      7.50000        -0.000001      0.000000      0.288106
      2.10122      6.30365      9.60122         0.029984      0.000009      0.104076
      4.20243      4.20243      9.60122         0.000000      0.098998      0.118737
      2.12169      4.20963     11.72823        -0.013016     -0.004363     -0.047233
      4.20243      6.30366     11.73602         0.000006     -0.000038     -0.034870
      2.07743      6.30365     13.80303         0.017222     -0.000055      0.079493
      4.20243      4.30699     14.02015         0.000004     -0.139465     -0.036136
      6.30365      0.00000      7.50000        -0.000292     -0.010540      0.282941
      0.00000      2.10122      7.50000        -0.000001      0.000001      0.254833
      6.30365      2.10122      9.60122         0.022153     -0.000008      0.024515
      0.00000      0.00000      9.60122        -0.000002     -0.046692      0.104222
      6.28316      8.39766     11.72823         0.013035      0.004380     -0.047289
      8.40486      2.10121     11.68215         0.000003      0.000019     -0.025279
      6.42189      2.10122     13.76394        -0.169906      0.000085      0.139999
      0.00000      8.38269     13.79253        -0.000002      0.018967      0.081286
      6.30365      4.20243      7.50000        -0.000288      0.010544      0.282935
      0.00000      6.30365      7.50000         0.000005     -0.000002      0.281095
      6.30365      6.30365      9.60122        -0.029986      0.000011      0.104082
      0.00000      4.20243      9.60122        -0.000001      0.046689      0.104209
      6.28317      4.20963     11.72823         0.013013     -0.004360     -0.047233
      0.00000      6.30365     11.70022        -0.000001     -0.000003     -0.029166
      6.32743      6.30365     13.80303        -0.017219     -0.000056      0.079497
      0.00000      4.22461     13.79253        -0.000001     -0.018941      0.081297
      2.10122      0.00000      9.60122         0.033256      0.041908      0.071215
      4.20243      2.10122      9.60122        -0.000000      0.000009     -0.059527
      2.10122      2.10122      7.50000         0.002657      0.000001     -0.541651
      4.20243      0.00000      7.50000        -0.000000      0.020168     -0.558018
      2.08360      0.01193     13.81912         0.018736     -0.011252      0.117810
      4.20243      2.10123     13.95342        -0.000004     -0.000193     -0.685706
      2.12178      2.10122     11.71559        -0.006603     -0.000014     -0.040199
      4.20243      0.01965     11.73000         0.000000     -0.010947      0.048073
      2.10122      4.20243      9.60122         0.033264     -0.041903      0.071205
      4.20243      6.30365      9.60122        -0.000000      0.000005      0.124175
      2.10122      6.30365      7.50000        -0.003471     -0.000004     -0.566841
      4.20243      4.20243      7.50000         0.000001     -0.020163     -0.558013
      2.08360      4.19051     13.81911         0.018672      0.011273      0.117735
      4.20243      6.30366     13.86450        -0.000002      0.000025      0.096296
      2.10676      6.30365     11.70961        -0.005927      0.000022     -0.027562
      4.20243      4.18278     11.73000         0.000002      0.010930      0.048038
      6.30365      0.00000      9.60122        -0.033258      0.041911      0.071214
      0.00000      2.10122      9.60122        -0.000002     -0.000008      0.044198
      6.30365      2.10122      7.50000        -0.002656     -0.000000     -0.541649
      0.00000      0.00000      7.50000        -0.000001      0.014036     -0.559354
      6.32126      0.01193     13.81912        -0.018734     -0.011259      0.117818
      0.00000      2.10122     13.80473        -0.000002     -0.000013      0.118021
      6.28309      2.10122     11.71559         0.006601     -0.000015     -0.040202
      8.40486      0.00442     11.69563         0.000002     -0.002102     -0.022434
      6.30365      4.20243      9.60122        -0.033264     -0.041911      0.071208
      0.00000      6.30365      9.60122         0.000002      0.000005      0.020937
      6.30365      6.30365      7.50000         0.003471      0.000001     -0.566837
      0.00000      4.20243      7.50000         0.000003     -0.014038     -0.559354
      6.32127      4.19051     13.81911        -0.018672      0.011273      0.117733
      0.00000      6.30365     13.82325         0.000000      0.000022      0.119094
      6.29810      6.30365     11.70961         0.005926      0.000025     -0.027563
      8.40486      4.19801     11.69563         0.000000      0.002126     -0.022441
 -----------------------------------------------------------------------------------
    total drift:                               -0.000006      0.000011     -0.010570


--------------------------------------------------------------------------------------------------------



  FREE ENERGIE OF THE ION-ELECTRON SYSTEM (eV)
  ---------------------------------------------------
  free  energy   TOTEN  =      -394.37133158 eV

  energy  without entropy=     -394.37133158  energy(sigma->0) =     -394.37133158



--------------------------------------------------------------------------------------------------------


    POTLOK:  cpu time      0.2298: real time      0.2298


--------------------------------------------------------------------------------------------------------


     LOOP+:  cpu time     69.2419: real time     69.3928
    4ORBIT:  cpu time      0.0000: real time      0.0000

 total amount of memory used by VASP MPI-rank0    66725. kBytes
=======================================================================

   base      :      30000. kBytes
   nonl-proj :      17335. kBytes
   fftplans  :       4923. kBytes
   grid      :       8190. kBytes
   one-center:         73. kBytes
   wavefun   :       6204. kBytes

  
  
 General timing and accounting informations for this job:
 ========================================================
  
                  Total CPU time used (sec):      102.582
                            User time (sec):      101.026
                          System time (sec):        1.556
                         Elapsed time (sec):      111.784
  
                   Maximum memory used (kb):      163536.
                   Average memory used (kb):          N/A
  
                          Minor page faults:        34520
                          Major page faults:            0
                 Voluntary context switches:        12346
