 **********************************************************************
                          MRCC program system
 **********************************************************************
 
                              Written by
     Mihaly Kallay, Peter R. Nagy, David Mester, Laszlo Gyevi-Nagy,
        Jozsef Csoka, P. Bernat Szabo, Zoltan Rolik, Gyula Samu,
     Jozsef Csontos, Bence Hegely, Adam Ganyecz, Istvan Ladjanszki,
       Lorant Szegedy, Bence Ladoczki, Klara Petrov, Mate Farkas,
                    Pal D. Mezei, and Reka A. Horvath
 
        Department of Physical Chemistry and Materials Science
            Budapest University of Technology and Economics
                  Budapest P.O.Box 91, H-1521 Hungary
 
                              www.mrcc.hu
 
                      Release date: March 18, 2022

 ************************ 2023-02-05 13:17:25 *************************
 Executing minp...

 Reading input from MINP...
 
 Input file:
 
calc=FNO-CCSD(T)
verbosity=3
mem=220GB
unit=angs
scfiguess=small
scfalg=locfit1
ccmaxit=400
ccsdalg=dfdirect
ccsdthreads=4
ccsdmkl=thr
ptthreads=4
lnoepsv=1e-5
naf_cor=1e-2
basis=aug-cc-pVQZ
basis_sm=def2-SVP
dfbasis_scf=def2-QZVPP-RI-JK
dfbasis_cor=aug-cc-pVQZ-RI
unit=angs
geom=xyz
16

C    34.41670262    34.07107264    10.41543014
C    33.11117461    33.45680459    10.91530835
H    34.24160149    35.00442132     9.86225048
H    34.94674030    33.36940783     9.75379242
H    35.10002891    34.30603621    11.24227357
H    32.42643037    33.26105434    10.07939442
H    32.59136835    34.12756100    11.61262818
H    33.28915165    32.50678735    11.43686767
C    45.74245091    44.62250599    10.40840413
C    47.04216650    44.00866602    10.92356358
H    45.21716670    43.91831109     9.74574003
H    45.92449924    45.55346314     9.85293887
H    45.05140676    44.86310997    11.22701403
H    47.73607526    43.81200646    10.09557036
H    46.85792277    43.05914398    11.44395536
H    47.55426425    44.68025716    11.62583355

--------------------Output has been truncated-------------------------


--------------------Output has been truncated-------------------------


--------------------Output has been truncated-------------------------


--------------------Output has been truncated-------------------------


--------------------Output has been truncated-------------------------


--------------------Output has been truncated-------------------------


--------------------Output has been truncated-------------------------


--------------------Output has been truncated-------------------------


--------------------Output has been truncated-------------------------


--------------------Output has been truncated-------------------------


 
 Reference energy [au]:                      -158.528862284757
 DF-MP2 singlet pair energy [au]:              -0.635445851466
 DF-MP2 triplet pair energy [au]:              -0.153813381136
 DF-SCS-MP2 correlation energy [au]:           -0.813806148805
 DF-SCS-MP2 energy [au]:                     -159.342668433562
 DF-SOS-MP2 correlation energy [au]:           -0.826079606906
 DF-SOS-MP2 energy [au]:                     -159.354941891663
 DF-MP2 correlation energy [au]:               -0.789259232602
 DF-MP2 energy [au]:                         -159.318121517360

 Results in FNO basis:
 
 
 Reference energy [au]:                      -158.528862284757
 DF-MP2 singlet pair energy [au]:              -0.625098628258
 DF-MP2 triplet pair energy [au]:              -0.153241599945
 DF-SCS-MP2 correlation energy [au]:           -0.801198887225
 DF-SCS-MP2 energy [au]:                     -159.330061171982
 DF-SOS-MP2 correlation energy [au]:           -0.812628216735
 DF-SOS-MP2 energy [au]:                     -159.341490501493
 DF-MP2 correlation energy [au]:               -0.778340228203
 DF-MP2 energy [au]:                         -159.307202512961

 Results in NAF basis:
 
 
 Reference energy [au]:                      -158.528862284757
 DF-MP2 singlet pair energy [au]:              -0.625056683919
 DF-MP2 triplet pair energy [au]:              -0.153257606232
 DF-SCS-MP2 correlation energy [au]:           -0.801153889447
 DF-SCS-MP2 energy [au]:                     -159.330016174205
 DF-SOS-MP2 correlation energy [au]:           -0.812573689095
 DF-SOS-MP2 energy [au]:                     -159.341435973853
 DF-MP2 correlation energy [au]:               -0.778314290151
 DF-MP2 energy [au]:                         -159.307176574908

 ************************ 2023-02-05 13:19:39 *************************
 Executing ccsd...

 Allocation of 220.0 Gbytes of memory...

 Direct DF-CCSD(T) calculation
 
 Convergence criterion:  1.0E-06
 
 Number of occupied/virtual/auxiliary orbitals:    14   350  1102
   6895.51 MB is the minimal memory requirement for (T)
   1574.97 MB is the minimal memory requirement for CCSD
 
 Reference energy [au]:            -158.528862284757
 T1 contribution [au]:                0.000000000000
 Same spin MP2 energy [au]:          -0.153249597963
 Opposite spin MP2 energy [au]:      -0.625077646676
 MP2 correlation energy [au]:        -0.778327244639
 Total MP2 energy [au]:            -159.307189529396
 MP2 correction [au]:                -0.010931987964
 
 
 CPU time [min]:     1.532                   Wall time [min]:     0.455
 
 Starting CCSD iterations...
 
                     Residual norm          Energy
 Iteration  1        0.253998792380     -159.343015253888
 Iteration  2        0.062948780545     -159.362179754940
 Iteration  3        0.018512009488     -159.364451275986
 Iteration  4        0.003748118661     -159.364465716154
 Iteration  5        0.000793338117     -159.364477448629
 Iteration  6        0.000221937424     -159.364481549854
 Iteration  7        0.000052463045     -159.364481099655
 Iteration  8        0.000014140985     -159.364481827427
 Iteration  9        0.000002817605     -159.364481784609
 
 CCSD iteration has converged in  9 steps.
    59039.49 MB memory was utilized by CCSD
 
 T1 diagnostic:      8.231E-03            D1 diagnostic:      1.428E-02
 
 T1 contribution [au]:                                  0.000000000000
 PPL energy contribution [au]:                          0.217871530572
 Scaled PPL energy contribution [au]:                   0.220951018361

 OS-PPL energy contribution [au]:                       0.191085055866
 Scaled OS-PPL energy contribution [au]:                0.194274906765
 SS-PPL energy contribution [au]:                       0.026786474706
 Scaled SS-PPL energy contribution [au]:                0.026882633121

 Opposite spin CCSD energy [au]:                       -0.690281552657
 Same spin CCSD energy [au]:                           -0.145353465781
 CCSD correlation energy [au]:                         -0.835635018438
 CCSD correlation energy + MP2 correction [au]:        -0.846567006401
 CCSD correlation energy + MP2 + PPL corr. [au]:       -0.843487518612
 Total CCSD energy [au]:                             -159.364497303195
 Total CCSD energy + MP2 correction [au]:            -159.375429291158
 Total CCSD energy + MP2 + PPL corr. [au]:           -159.372349803370
 
 CPU time [min]:   154.511                   Wall time [min]:     5.329
 
 Calculation of (T) correction...
 
 
     8828.31 MB memory is utilized for (T)

 0%       25%       50%       75%       100%
 |---------|---------|---------|---------| 
 
 (T) correction [au]:                                    -0.029525496017
 (T*) correction [au]:                                   -0.029940196093
 (T+) correction [au]:                                   -0.029933134897
 CCSD(T) correlation energy [au]:                        -0.865160514455
 CCSD(T) correlation energy + MP2 correction [au]:       -0.876092502418
 CCSD(T+) correlation en. + MP2 + PPL corr. [au]:        -0.873420653510
 Total CCSD(T) energy [au]:                            -159.394022799212
 Total CCSD(T) energy + MP2 correction [au]:           -159.404954787176
 Total CCSD(T+) energy + MP2 + PPL corr. [au]:         -159.402282938267
 
 CPU time [min]:   275.825                   Wall time [min]:     8.956
 
 ************************ 2023-02-05 13:28:37 *************************
                      Normal termination of mrcc.
 **********************************************************************
