 vasp.6.3.0 20Jan22 (build Apr  1 2022 16:44:48) complex                         
 executed on        HPECrayEX_GCC date 2022.11.06  19:18:26
 running  512 mpi-ranks, with    1 threads/rank
 distrk:  each k-point on  512 cores,    1 groups
 distr:  one band on NCORE=   8 cores,   64 groups


--------------------------------------------------------------------------------------------------------


 INCAR:
   SYSTEM = MgO-rocksalt
   ISMEAR = 0
   SIGMA = 0.05
   EDIFF = 1E-6
   ALGO = ALL
   ISTART = 0
   IBRION = -1
   NSW = 0
   ISYM = 0
   DIPOL = 0.5 0.5 0.5
   IDIPOL = 3
   LDIPOL = .TRUE.
   GGA = RE
   AGGAC = 0.0
   LUSE_VDW = .TRUE.
   LASPH = .TRUE.
   ENCUT = 600
   PREC = Accurate
   LASPH = .TRUE.
   LREAL = .FALSE.
   ISPIN = 1
   NELM = 200
   NELMIN = 8
   NCORE = 8
   KPAR = 1
   LWAVE = .FALSE.
   LCHARG = .FALSE.

 POTCAR:    PAW_PBE Mg_pv 13Apr2007               
 POTCAR:    PAW_PBE O 08Apr2002                   
 -----------------------------------------------------------------------------
|                                                                             |
|               ----> ADVICE to this user running VASP <----                  |
|                                                                             |
|     You have switched on vdW-DFT.                                           |
|     This routine was written and supplied by Jiri Klimes. We recommend      |
|     that you carefully read and cite the following publications:            |
|       J. Klimes, D.R. Bowler, A. Michelides                                 |
|          J. Phys.: Cond Matt. 22 022201 (2010)                              |
|       J. Klimes, D.R. Bowler, A. Michelides                                 |
|          Phys. Rev. B. 83, 195131 (2011)                                    |
|     and references therein.                                                 |
|                                                                             |
 -----------------------------------------------------------------------------

 POTCAR:    PAW_PBE Mg_pv 13Apr2007               
   SHA256 =  f474ac0dd33840b9ae76c01d57fea79fdf77cdfbb07d5ade72c65f83c709b62b Mg_pv/POTCAR          
   COPYR  = (c) Copyright 13Apr2007 Georg Kresse                                                    
   COPYR  = This file is part of the software VASP. Any use, copying, and all other rights are regul
   COPYR  = If you do not have a valid VASP license, you may not use, copy or distribute this file. 
   VRHFIN =Mg: p6s2                                                                                 
   LEXCH  = PE                                                                                      
   EATOM  =  1056.7344 eV,   77.6678 Ry                                                             
                                                                                                    
   TITEL  = PAW_PBE Mg_pv 13Apr2007                                                                 
   LULTRA =        F    use ultrasoft PP ?                                                          
   IUNSCR =        1    unscreen: 0-lin 1-nonlin 2-no                                               
   RPACOR =    1.500    partial core radius                                                         
   POMASS =   24.305; ZVAL   =    8.000    mass and valenz                                          
   RCORE  =    2.000    outmost cutoff radius                                                       
   RWIGS  =    2.000; RWIGS  =    1.058    wigner-seitz radius (au A)                               
   ENMAX  =  403.929; ENMIN  =  302.947 eV                                                          
   RCLOC  =    1.506    cutoff for local pot                                                        
   LCOR   =        T    correct aug charges                                                         
   LPAW   =        T    paw PP                                                                      
   EAUG   =  758.780                                                                                
   DEXC   =    0.000                                                                                
   RMAX   =    2.045    core radius for proj-oper                                                   
   RAUG   =    1.300    factor for augmentation sphere                                              
   RDEP   =    2.025    radius for radial grids                                                     
   RDEPT  =    1.557    core radius for aug-charge                                                  
                                                                                                    
   Atomic configuration                                                                             
    5 entries                                                                                       
     n  l   j            E        occ.                                                              
     1  0  0.50     -1259.6230   2.0000                                                             
     2  0  0.50       -79.8442   2.0000                                                             
     2  1  1.50       -46.6121   6.0000                                                             
     3  0  0.50        -4.7055   2.0000                                                             
     3  2  1.50        -1.3606   0.0000                                                             
   Description                                                                                      
     l       E           TYP  RCUT    TYP  RCUT                                                     
     1    -46.6121073     23  1.600                                                                 
     1      2.7211652     23  1.600                                                                 
     0     -4.7054661     23  2.000                                                                 
     0     61.2262170     23  2.000                                                                 
     2     -1.3605826     23  2.000                                                                 
  local pseudopotential read in
  partial core-charges read in
  partial kinetic energy density read in
  atomic valenz-charges read in
  non local Contribution for L=           1  read in
    real space projection operators read in
  non local Contribution for L=           1  read in
    real space projection operators read in
  non local Contribution for L=           0  read in
    real space projection operators read in
  non local Contribution for L=           0  read in
    real space projection operators read in
  non local Contribution for L=           2  read in
    real space projection operators read in
    PAW grid and wavefunctions read in

   number of l-projection  operators is LMAX  =           5
   number of lm-projection operators is LMMAX =          13

 POTCAR:    PAW_PBE O 08Apr2002                   
   SHA256 =  818f92134a0a090dccd8ba1447fa70422a3b330e708bb4f08108d8ae51209ddf O/POTCAR              
   COPYR  = (c) Copyright 08Apr2002 Georg Kresse                                                    
   COPYR  = This file is part of the software VASP. Any use, copying, and all other rights are regul
   COPYR  = If you do not have a valid VASP license, you may not use, copy or distribute this file. 
   VRHFIN =O: s2p4                                                                                  
   LEXCH  = PE                                                                                      
   EATOM  =   432.3788 eV,   31.7789 Ry                                                             
                                                                                                    
   TITEL  = PAW_PBE O 08Apr2002                                                                     
   LULTRA =        F    use ultrasoft PP ?                                                          
   IUNSCR =        1    unscreen: 0-lin 1-nonlin 2-no                                               
   RPACOR =    1.200    partial core radius                                                         
   POMASS =   16.000; ZVAL   =    6.000    mass and valenz                                          
   RCORE  =    1.520    outmost cutoff radius                                                       
   RWIGS  =    1.550; RWIGS  =    0.820    wigner-seitz radius (au A)                               
   ENMAX  =  400.000; ENMIN  =  300.000 eV                                                          
   ICORE  =        2    local potential                                                             
   LCOR   =        T    correct aug charges                                                         
   LPAW   =        T    paw PP                                                                      
   EAUG   =  605.392                                                                                
   DEXC   =    0.000                                                                                
   RMAX   =    1.553    core radius for proj-oper                                                   
   RAUG   =    1.300    factor for augmentation sphere                                              
   RDEP   =    1.550    radius for radial grids                                                     
   RDEPT  =    1.329    core radius for aug-charge                                                  
                                                                                                    
   Atomic configuration                                                                             
    4 entries                                                                                       
     n  l   j            E        occ.                                                              
     1  0  0.50      -514.6923   2.0000                                                             
     2  0  0.50       -23.9615   2.0000                                                             
     2  1  0.50        -9.0305   4.0000                                                             
     3  2  1.50        -9.5241   0.0000                                                             
   Description                                                                                      
     l       E           TYP  RCUT    TYP  RCUT                                                     
     0    -23.9615318     23  1.200                                                                 
     0     -9.5240782     23  1.200                                                                 
     1     -9.0304911     23  1.520                                                                 
     1      8.1634956     23  1.520                                                                 
     2     -9.5240782      7  1.500                                                                 
  local pseudopotential read in
  partial core-charges read in
  partial kinetic energy density read in
  kinetic energy density of atom read in
  atomic valenz-charges read in
  non local Contribution for L=           0  read in
    real space projection operators read in
  non local Contribution for L=           0  read in
    real space projection operators read in
  non local Contribution for L=           1  read in
    real space projection operators read in
  non local Contribution for L=           1  read in
    real space projection operators read in
    PAW grid and wavefunctions read in

   number of l-projection  operators is LMAX  =           4
   number of lm-projection operators is LMMAX =           8

 -----------------------------------------------------------------------------
|                                                                             |
|               ----> ADVICE to this user running VASP <----                  |
|                                                                             |
|     You have a (more or less) 'large supercell' and for larger cells it     |
|     might be more efficient to use real-space projection operators.         |
|     Therefore, try LREAL= Auto in the INCAR file.                           |
|     Mind: For very accurate calculation, you might also keep the            |
|     reciprocal projection scheme (i.e. LREAL=.FALSE.).                      |
|                                                                             |
 -----------------------------------------------------------------------------

 -----------------------------------------------------------------------------
|                                                                             |
|               ----> ADVICE to this user running VASP <----                  |
|                                                                             |
|     You enforced a specific xc type in the INCAR file but a different       |
|     type was found in the POTCAR file.                                      |
|     I HOPE YOU KNOW WHAT YOU ARE DOING!                                     |
|                                                                             |
 -----------------------------------------------------------------------------

  PAW_PBE Mg_pv 13Apr2007               :
 energy of atom  1       EATOM=-1056.7344
 kinetic energy error for atom=    0.0221 (will be added to EATOM!!)
  PAW_PBE O 08Apr2002                   :
 energy of atom  2       EATOM= -432.3788
 kinetic energy error for atom=    0.0168 (will be added to EATOM!!)


 POSCAR: Mg  O
  positions in direct lattice
  No initial velocities read in
 exchange correlation table for  LEXCH =       40
   RHO(1)=    0.500       N(1)  =     2000
   RHO(2)=  100.500       N(2)  =     4000



--------------------------------------------------------------------------------------------------------


 ion  position               nearest neighbor table
   1  0.250  0.000  0.352-  35 2.10  36 2.10  43 2.10  52 2.10  33 2.10
   2  0.500  0.250  0.352-  35 2.10  36 2.10  44 2.10  51 2.10  34 2.10
   3  0.250  0.250  0.451-  33 2.10  34 2.10  41 2.10  50 2.10  35 2.10  39 2.10
   4  0.500  0.000  0.451-  33 2.10  34 2.10  42 2.10  49 2.10  36 2.10  40 2.11
   5  0.250  1.000  0.550-  56 2.10  40 2.10  47 2.10  39 2.10  33 2.11  37 2.13
   6  0.500  0.250  0.550-  55 2.10  39 2.10  48 2.10  40 2.10  34 2.11  38 2.13
   7  0.250  0.250  0.647-  39 2.08  37 2.10  54 2.10  38 2.10  45 2.10
   8  0.500  1.000  0.648-  40 2.10  46 2.10  38 2.10  37 2.10  53 2.10
   9  0.250  0.500  0.352-  35 2.10  43 2.10  44 2.10  60 2.10  41 2.10
  10  0.500  0.750  0.352-  36 2.10  43 2.10  44 2.10  59 2.10  42 2.10
  11  0.250  0.750  0.451-  33 2.10  41 2.10  42 2.10  58 2.10  43 2.10  47 2.10
  12  0.500  0.500  0.451-  34 2.10  41 2.10  42 2.10  57 2.10  44 2.10  48 2.11
  13  0.250  0.500  0.550-  47 2.10  39 2.10  64 2.10  48 2.10  41 2.11  45 2.13
  14  0.500  0.750  0.550-  47 2.10  63 2.10  48 2.10  40 2.10  42 2.11  46 2.13
  15  0.250  0.750  0.647-  47 2.08  37 2.10  62 2.10  46 2.10  45 2.10
  16  0.500  0.500  0.648-  48 2.10  61 2.10  45 2.10  46 2.10  38 2.10
  17  0.750  0.000  0.352-  36 2.10  51 2.10  52 2.10  59 2.10  49 2.10
  18  0.000  0.250  0.352-  35 2.10  51 2.10  52 2.10  60 2.10  50 2.10
  19  0.750  0.250  0.451-  34 2.10  49 2.10  50 2.10  57 2.10  51 2.10  55 2.10
  20  0.000  0.000  0.451-  33 2.10  49 2.10  50 2.10  58 2.10  52 2.10  56 2.11
  21  0.750  1.000  0.550-  56 2.10  40 2.10  55 2.10  63 2.10  49 2.11  53 2.13
  22  0.000  0.250  0.550-  64 2.10  39 2.10  55 2.10  56 2.10  50 2.11  54 2.13
  23  0.750  0.250  0.647-  55 2.08  53 2.10  54 2.10  38 2.10  61 2.10
  24  0.000  1.000  0.648-  56 2.10  37 2.10  53 2.10  54 2.10  62 2.10
  25  0.750  0.500  0.352-  44 2.10  51 2.10  59 2.10  60 2.10  57 2.10
  26  0.000  0.750  0.352-  43 2.10  52 2.10  59 2.10  60 2.10  58 2.10
  27  0.750  0.750  0.451-  42 2.10  49 2.10  57 2.10  58 2.10  59 2.10  63 2.10
  28  0.000  0.500  0.451-  41 2.10  50 2.10  57 2.10  58 2.10  60 2.10  64 2.11
  29  0.750  0.500  0.550-  55 2.10  63 2.10  64 2.10  48 2.10  57 2.11  61 2.13
  30  0.000  0.750  0.550-  64 2.10  47 2.10  63 2.10  56 2.10  58 2.11  62 2.13
  31  0.750  0.750  0.647-  63 2.08  53 2.10  62 2.10  46 2.10  61 2.10
  32  0.000  0.500  0.648-  64 2.10  54 2.10  62 2.10  61 2.10  45 2.10
  33  0.250  0.000  0.451-   3 2.10   4 2.10  11 2.10  20 2.10   1 2.10   5 2.11
  34  0.500  0.250  0.451-   3 2.10   4 2.10  12 2.10  19 2.10   2 2.10   6 2.11
  35  0.250  0.250  0.352-   1 2.10   2 2.10   9 2.10  18 2.10   3 2.10
  36  0.500  0.000  0.352-   1 2.10   2 2.10  10 2.10  17 2.10   4 2.10
  37  0.250  1.000  0.650-  24 2.10  15 2.10   7 2.10   8 2.10   5 2.13
  38  0.500  0.250  0.650-   8 2.10   7 2.10  23 2.10  16 2.10   6 2.13
  39  0.250  0.250  0.549-   7 2.08   6 2.10  13 2.10   5 2.10  22 2.10   3 2.10
  40  0.500  1.000  0.550-   8 2.10  21 2.10   5 2.10   6 2.10  14 2.10   4 2.11
  41  0.250  0.500  0.451-   3 2.10  11 2.10  12 2.10  28 2.10   9 2.10  13 2.11
  42  0.500  0.750  0.451-   4 2.10  11 2.10  12 2.10  27 2.10  10 2.10  14 2.11
  43  0.250  0.750  0.352-   1 2.10   9 2.10  10 2.10  26 2.10  11 2.10
  44  0.500  0.500  0.352-   2 2.10   9 2.10  10 2.10  25 2.10  12 2.10
  45  0.250  0.500  0.650-  16 2.10  32 2.10   7 2.10  15 2.10  13 2.13
  46  0.500  0.750  0.650-   8 2.10  31 2.10  15 2.10  16 2.10  14 2.13
  47  0.250  0.750  0.549-  15 2.08  14 2.10  13 2.10   5 2.10  30 2.10  11 2.10
  48  0.500  0.500  0.550-  16 2.10   6 2.10  14 2.10  13 2.10  29 2.10  12 2.11
  49  0.750  0.000  0.451-   4 2.10  19 2.10  20 2.10  27 2.10  17 2.10  21 2.11
  50  0.000  0.250  0.451-   3 2.10  19 2.10  20 2.10  28 2.10  18 2.10  22 2.11
  51  0.750  0.250  0.352-   2 2.10  17 2.10  18 2.10  25 2.10  19 2.10
  52  0.000  0.000  0.352-   1 2.10  17 2.10  18 2.10  26 2.10  20 2.10
  53  0.750  1.000  0.650-  24 2.10  23 2.10  31 2.10   8 2.10  21 2.13
  54  0.000  0.250  0.650-  32 2.10  24 2.10  23 2.10   7 2.10  22 2.13
  55  0.750  0.250  0.549-  23 2.08   6 2.10  29 2.10  21 2.10  22 2.10  19 2.10
  56  0.000  1.000  0.550-  24 2.10  21 2.10   5 2.10  30 2.10  22 2.10  20 2.11
  57  0.750  0.500  0.451-  12 2.10  19 2.10  27 2.10  28 2.10  25 2.10  29 2.11
  58  0.000  0.750  0.451-  11 2.10  20 2.10  27 2.10  28 2.10  26 2.10  30 2.11
  59  0.750  0.750  0.352-  10 2.10  17 2.10  25 2.10  26 2.10  27 2.10
  60  0.000  0.500  0.352-   9 2.10  18 2.10  25 2.10  26 2.10  28 2.10
  61  0.750  0.500  0.650-  16 2.10  32 2.10  31 2.10  23 2.10  29 2.13
  62  0.000  0.750  0.650-  32 2.10  24 2.10  15 2.10  31 2.10  30 2.13
  63  0.750  0.750  0.549-  31 2.08  14 2.10  29 2.10  21 2.10  30 2.10  27 2.10
  64  0.000  0.500  0.550-  32 2.10  30 2.10  22 2.10  13 2.10  29 2.10  28 2.11


IMPORTANT INFORMATION: All symmetrisations will be switched off!
NOSYMM: (Re-)initialisation of all symmetry stuff for point group C_1.


----------------------------------------------------------------------------------------

                                     Primitive cell                                     

  volume of cell :    1504.9259

  direct lattice vectors                    reciprocal lattice vectors
     8.404861995  0.000000000  0.000000000     0.118978753  0.000000000  0.000000000
     0.000000000  8.404861995  0.000000000     0.000000000  0.118978753  0.000000000
     0.000000000  0.000000000 21.303646496     0.000000000  0.000000000  0.046940321

  length of vectors
     8.404861995  8.404861995 21.303646496     0.118978753  0.118978753  0.046940321

  position of ions in fractional coordinates (direct lattice)
     0.250000000  0.000000000  0.352052406
     0.500000000  0.250000000  0.352052406
     0.250000000  0.250000000  0.450684135
     0.500000000  0.000000000  0.450684135
     0.249981383  0.999999883  0.549785611
     0.500000092  0.250021738  0.549809574
     0.249987197  0.249982572  0.647130316
     0.500000018  0.999999757  0.648084753
     0.250000000  0.500000000  0.352052406
     0.500000000  0.750000000  0.352052406
     0.250000000  0.750000000  0.450684135
     0.500000000  0.500000000  0.450684135
     0.249993345  0.499999893  0.549829400
     0.500000082  0.749978009  0.549809581
     0.249986874  0.750017140  0.647130392
     0.500000123  0.499999853  0.648163177
     0.750000000  0.000000000  0.352052406
     0.000000000  0.250000000  0.352052406
     0.750000000  0.250000000  0.450684135
     0.000000000  0.000000000  0.450684135
     0.750018865  0.999999893  0.549785611
     0.000000111  0.250035704  0.549797598
     0.750013088  0.249982562  0.647130333
     0.000000119  0.999999839  0.648066009
     0.750000000  0.500000000  0.352052406
     0.000000000  0.750000000  0.352052406
     0.750000000  0.750000000  0.450684135
     0.000000000  0.500000000  0.450684135
     0.750006795  0.499999878  0.549829409
     0.000000108  0.749964043  0.549797590
     0.750013031  0.750016940  0.647130255
     0.000000014  0.499999763  0.648144849
     0.250000000  0.000000000  0.450684135
     0.500000000  0.250000000  0.450684135
     0.250000000  0.250000000  0.352052406
     0.500000000  0.000000000  0.352052406
     0.249948740  0.999999798  0.649680437
     0.500000079  0.249921046  0.649732577
     0.250028174  0.250023778  0.549466341
     0.500000135  0.999999917  0.549572534
     0.250000000  0.500000000  0.450684135
     0.500000000  0.750000000  0.450684135
     0.250000000  0.750000000  0.352052406
     0.500000000  0.500000000  0.352052406
     0.250044018  0.499999823  0.649765006
     0.500000064  0.750078536  0.649732421
     0.250028115  0.749976005  0.549466345
     0.500000049  0.499999848  0.549604738
     0.750000000  0.000000000  0.450684135
     0.000000000  0.250000000  0.450684135
     0.750000000  0.250000000  0.352052406
     0.000000000  0.000000000  0.352052406
     0.750051312  0.999999812  0.649680535
     0.000000062  0.250034065  0.649705208
     0.749972007  0.250023702  0.549466349
     0.000000036  0.999999867  0.549551894
     0.750000000  0.500000000  0.450684135
     0.000000000  0.750000000  0.450684135
     0.750000000  0.750000000  0.352052406
     0.000000000  0.500000000  0.352052406
     0.749956175  0.499999812  0.649764883
     0.000000063  0.749965502  0.649705357
     0.749972061  0.749976066  0.549466340
     0.000000090  0.499999906  0.549598101

  ion indices of the primitive-cell ions
   primitive index   ion index
                 1           1
                 2           2
                 3           3
                 4           4
                 5           5
                 6           6
                 7           7
                 8           8
                 9           9
                10          10
                11          11
                12          12
                13          13
                14          14
                15          15
                16          16
                17          17
                18          18
                19          19
                20          20
                21          21
                22          22
                23          23
                24          24
                25          25
                26          26
                27          27
                28          28
                29          29
                30          30
                31          31
                32          32
                33          33
                34          34
                35          35
                36          36
                37          37
                38          38
                39          39
                40          40
                41          41
                42          42
                43          43
                44          44
                45          45
                46          46
                47          47
                48          48
                49          49
                50          50
                51          51
                52          52
                53          53
                54          54
                55          55
                56          56
                57          57
                58          58
                59          59
                60          60
                61          61
                62          62
                63          63
                64          64

----------------------------------------------------------------------------------------



 KPOINTS: pymatgen v2020.8.13 with grid density = 

Automatic generation of k-mesh.
 Grid dimensions read from file:
 generate k-points for:    2    2    1

 Generating k-lattice:

  Cartesian coordinates                     Fractional coordinates (reciprocal lattice)
     0.059489377  0.000000000  0.000000000     0.500000000  0.000000000  0.000000000
     0.000000000  0.059489377  0.000000000     0.000000000  0.500000000  0.000000000
     0.000000000  0.000000000  0.046940321     0.000000000  0.000000000  1.000000000

  Length of vectors
     0.059489377  0.059489377  0.046940321

  Shift w.r.t. Gamma in fractional coordinates (k-lattice)
     0.000000000  0.000000000  0.000000000

 
 Subroutine IBZKPT returns following result:
 ===========================================
 
 Found      4 irreducible k-points:
 
 Following reciprocal coordinates:
            Coordinates               Weight
  0.000000  0.000000  0.000000      1.000000
  0.500000  0.000000  0.000000      1.000000
  0.000000  0.500000  0.000000      1.000000
  0.500000  0.500000  0.000000      1.000000
 
 Following cartesian coordinates:
            Coordinates               Weight
  0.000000  0.000000  0.000000      1.000000
  0.059489  0.000000  0.000000      1.000000
  0.000000  0.059489  0.000000      1.000000
  0.059489  0.059489  0.000000      1.000000
 


--------------------------------------------------------------------------------------------------------




 Dimension of arrays:
   k-points           NKPTS =      4   k-points in BZ     NKDIM =      4   number of bands    NBANDS=    320
   number of dos      NEDOS =    301   number of ions     NIONS =     64
   non local maximal  LDIM  =      5   non local SUM 2l+1 LMDIM =     13
   total plane-waves  NPLWV = 882000
   max r-space proj   IRMAX =      1   max aug-charges    IRDMAX=  11749
   dimension x,y,z NGX =    70 NGY =   70 NGZ =  180
   dimension x,y,z NGXF=   140 NGYF=  140 NGZF=  360
   support grid    NGXF=   140 NGYF=  140 NGZF=  360
   ions per type =              32  32
   NGX,Y,Z   is equivalent  to a cutoff of  13.85, 13.85, 14.05 a.u.
   NGXF,Y,Z  is equivalent  to a cutoff of  27.69, 27.69, 28.09 a.u.

 SYSTEM =  MgO-rocksalt                            
 POSCAR =  Mg  O                                   

--------------------------------------------------------------------------------------------------------


  energy-cutoff  :      600.00
  volume of cell :     1504.93
      direct lattice vectors                 reciprocal lattice vectors
     8.404861995  0.000000000  0.000000000     0.118978753  0.000000000  0.000000000
     0.000000000  8.404861995  0.000000000     0.000000000  0.118978753  0.000000000
     0.000000000  0.000000000 21.303646496     0.000000000  0.000000000  0.046940321

  length of vectors
     8.404861995  8.404861995 21.303646496     0.118978753  0.118978753  0.046940321



 k-points in units of 2pi/SCALE and weight: pymatgen v2020.8.13 with grid density = 
   0.00000000  0.00000000  0.00000000       0.250
   0.05948938  0.00000000  0.00000000       0.250
   0.00000000  0.05948938  0.00000000       0.250
   0.05948938  0.05948938  0.00000000       0.250

 k-points in reciprocal lattice and weights: pymatgen v2020.8.13 with grid density = 
   0.00000000  0.00000000  0.00000000       0.250
   0.50000000  0.00000000  0.00000000       0.250
   0.00000000  0.50000000  0.00000000       0.250
   0.50000000  0.50000000  0.00000000       0.250

 position of ions in fractional coordinates (direct lattice) 
   0.25000000  0.00000000  0.35205241
   0.50000000  0.25000000  0.35205241
   0.25000000  0.25000000  0.45068414
   0.50000000  0.00000000  0.45068414
   0.24998138  0.99999988  0.54978561
   0.50000009  0.25002174  0.54980957
   0.24998720  0.24998257  0.64713032
   0.50000002  0.99999976  0.64808475
   0.25000000  0.50000000  0.35205241
   0.50000000  0.75000000  0.35205241
   0.25000000  0.75000000  0.45068414
   0.50000000  0.50000000  0.45068414
   0.24999334  0.49999989  0.54982940
   0.50000008  0.74997801  0.54980958
   0.24998687  0.75001714  0.64713039
   0.50000012  0.49999985  0.64816318
   0.75000000  0.00000000  0.35205241
   0.00000000  0.25000000  0.35205241
   0.75000000  0.25000000  0.45068414
   0.00000000  0.00000000  0.45068414
   0.75001887  0.99999989  0.54978561
   0.00000011  0.25003570  0.54979760
   0.75001309  0.24998256  0.64713033
   0.00000012  0.99999984  0.64806601
   0.75000000  0.50000000  0.35205241
   0.00000000  0.75000000  0.35205241
   0.75000000  0.75000000  0.45068414
   0.00000000  0.50000000  0.45068414
   0.75000679  0.49999988  0.54982941
   0.00000011  0.74996404  0.54979759
   0.75001303  0.75001694  0.64713026
   0.00000001  0.49999976  0.64814485
   0.25000000  0.00000000  0.45068414
   0.50000000  0.25000000  0.45068414
   0.25000000  0.25000000  0.35205241
   0.50000000  0.00000000  0.35205241
   0.24994874  0.99999980  0.64968044
   0.50000008  0.24992105  0.64973258
   0.25002817  0.25002378  0.54946634
   0.50000013  0.99999992  0.54957253
   0.25000000  0.50000000  0.45068414
   0.50000000  0.75000000  0.45068414
   0.25000000  0.75000000  0.35205241
   0.50000000  0.50000000  0.35205241
   0.25004402  0.49999982  0.64976501
   0.50000006  0.75007854  0.64973242
   0.25002811  0.74997600  0.54946634
   0.50000005  0.49999985  0.54960474
   0.75000000  0.00000000  0.45068414
   0.00000000  0.25000000  0.45068414
   0.75000000  0.25000000  0.35205241
   0.00000000  0.00000000  0.35205241
   0.75005131  0.99999981  0.64968053
   0.00000006  0.25003407  0.64970521
   0.74997201  0.25002370  0.54946635
   0.00000004  0.99999987  0.54955189
   0.75000000  0.50000000  0.45068414
   0.00000000  0.75000000  0.45068414
   0.75000000  0.75000000  0.35205241
   0.00000000  0.50000000  0.35205241
   0.74995618  0.49999981  0.64976488
   0.00000006  0.74996550  0.64970536
   0.74997206  0.74997607  0.54946634
   0.00000009  0.49999991  0.54959810

 position of ions in cartesian coordinates  (Angst):
   2.10121550  0.00000000  7.50000000
   4.20243100  2.10121550  7.50000000
   2.10121550  2.10121550  9.60121550
   4.20243100  0.00000000  9.60121550
   2.10105902  8.40486101 11.71243830
   4.20243177  2.10139820 11.71294880
   2.10110789  2.10106902 13.78623549
   4.20243115  8.40485995 13.80656848
   2.10121550  4.20243100  7.50000000
   4.20243100  6.30364650  7.50000000
   2.10121550  6.30364650  9.60121550
   4.20243100  4.20243100  9.60121550
   2.10115956  4.20243009 11.71337117
   4.20243169  6.30346166 11.71294896
   2.10110517  6.30379056 13.78623710
   4.20243203  4.20242976 13.80823920
   6.30364650  0.00000000  7.50000000
   0.00000000  2.10121550  7.50000000
   6.30364650  2.10121550  9.60121550
   0.00000000  0.00000000  9.60121550
   6.30380505  8.40486109 11.71243831
   0.00000093  2.10151559 11.71269368
   6.30375650  2.10106893 13.78623584
   0.00000100  8.40486064 13.80616916
   6.30364650  4.20243100  7.50000000
   0.00000000  6.30364650  7.50000000
   6.30364650  6.30364650  9.60121550
   0.00000000  4.20243100  9.60121550
   6.30370361  4.20242997 11.71337137
   0.00000091  6.30334428 11.71269350
   6.30375602  6.30378887 13.78623420
   0.00000012  4.20242901 13.80784874
   2.10121550  0.00000000  9.60121550
   4.20243100  2.10121550  9.60121550
   2.10121550  2.10121550  7.50000000
   4.20243100  0.00000000  7.50000000
   2.10078466  8.40486030 13.84056236
   4.20243166  2.10055190 13.84167313
   2.10145230  2.10141535 11.70563670
   4.20243213  8.40486130 11.70789899
   2.10121550  4.20243100  9.60121550
   4.20243100  6.30364650  9.60121550
   2.10121550  6.30364650  7.50000000
   4.20243100  4.20243100  7.50000000
   2.10158546  4.20242951 13.84236398
   4.20243154  6.30430658 13.84166982
   2.10145180  6.30344482 11.70563677
   4.20243141  4.20242972 11.70858505
   6.30364650  0.00000000  9.60121550
   0.00000000  2.10121550  9.60121550
   6.30364650  2.10121550  7.50000000
   0.00000000  0.00000000  7.50000000
   6.30407777  8.40486041 13.84056445
   0.00000052  2.10150181 13.84109009
   6.30341122  2.10141471 11.70563686
   0.00000031  8.40486088 11.70745928
   6.30364650  4.20243100  9.60121550
   0.00000000  6.30364650  9.60121550
   6.30364650  6.30364650  7.50000000
   0.00000000  4.20243100  7.50000000
   6.30327815  4.20242941 13.84236137
   0.00000053  6.30335655 13.84109326
   6.30341168  6.30344534 11.70563666
   0.00000076  4.20243021 11.70844365



--------------------------------------------------------------------------------------------------------

--------------------------------------- Iteration      FINAL  ---------------------------------------


--------------------OUTCAR has been truncated-------------------------


--------------------OUTCAR has been truncated-------------------------


--------------------OUTCAR has been truncated-------------------------


--------------------OUTCAR has been truncated-------------------------


--------------------OUTCAR has been truncated-------------------------


--------------------OUTCAR has been truncated-------------------------


--------------------OUTCAR has been truncated-------------------------


--------------------OUTCAR has been truncated-------------------------


--------------------OUTCAR has been truncated-------------------------


--------------------OUTCAR has been truncated-------------------------


  FORCE on cell =-STRESS in cart. coord.  units (eV):
  Direction    XX          YY          ZZ          XY          YZ          ZX
  --------------------------------------------------------------------------------------
  Alpha Z   883.92154   883.92154   883.92154
  Ewald  163493.81342163493.81002************    -0.00000    -0.00063     0.00020
  Hartree173502.27719173502.27489************    -0.00000    -0.00036     0.00011
  E(xc)   -2524.35915 -2524.35916 -2526.97815     0.00000    -0.00000     0.00000
  Local  ************************347359.14159     0.00001     0.00100    -0.00030
  n-local -2812.70144 -2812.70146 -2831.89207    -0.00000    -0.00002     0.00001
  augment  1077.29198  1077.29196  1068.46462    -0.00000    -0.00000     0.00000
  Kinetic  7336.55115  7336.55123  7369.94468    -0.00001     0.00014    -0.00005
  Fock        0.00000     0.00000     0.00000     0.00000     0.00000     0.00000
  -------------------------------------------------------------------------------------
  Total      -0.65491    -0.65480    20.50651    -0.00000     0.00011    -0.00004
  in kB      -0.69724    -0.69711    21.83168    -0.00000     0.00012    -0.00004
  external pressure =        6.81 kB  Pullay stress =        0.00 kB


 VOLUME and BASIS-vectors are now :
 -----------------------------------------------------------------------------
  energy-cutoff  :      600.00
  volume of cell :     1504.93
      direct lattice vectors                 reciprocal lattice vectors
     8.404861995  0.000000000  0.000000000     0.118978753  0.000000000  0.000000000
     0.000000000  8.404861995  0.000000000     0.000000000  0.118978753  0.000000000
     0.000000000  0.000000000 21.303646496     0.000000000  0.000000000  0.046940321

  length of vectors
     8.404861995  8.404861995 21.303646496     0.118978753  0.118978753  0.046940321


 FORCES acting on ions:
    Electron-Ion                     Ewald-Force                    Non-Local-Force
 -----------------------------------------------------------------------------------------------
   -.610E-02 -.260E-05 0.209E+04   0.648E-02 -.108E-05 -.208E+04   -.267E-03 0.521E-05 -.649E+01
   0.573E-05 -.147E-01 0.209E+04   -.999E-06 0.151E-01 -.208E+04   -.126E-05 -.309E-03 -.649E+01
   -.149E-01 -.621E-01 0.693E+03   0.184E-01 0.664E-01 -.693E+03   -.259E-02 -.316E-02 0.419E+00
   0.335E-04 0.256E-04 0.692E+03   -.281E-04 -.261E-04 -.693E+03   -.595E-05 0.555E-06 0.412E+00
   -.651E-01 0.305E-04 -.697E+03   0.690E-01 -.385E-04 0.697E+03   -.973E-03 0.710E-05 -.282E+00
   -.998E-05 -.538E-01 -.697E+03   0.139E-04 0.566E-01 0.698E+03   -.425E-05 -.376E-02 -.276E+00
   -.190E-01 0.188E-02 -.207E+04   0.208E-01 -.821E-02 0.207E+04   -.101E-03 0.612E-02 0.555E+01
   -.519E-04 0.156E-04 -.208E+04   0.842E-04 -.126E-04 0.208E+04   -.198E-04 0.175E-05 0.561E+01
   -.506E-02 0.102E-06 0.209E+04   0.541E-02 0.106E-05 -.208E+04   -.245E-03 0.841E-06 -.649E+01
   0.362E-05 0.147E-01 0.209E+04   -.308E-05 -.151E-01 -.208E+04   0.112E-05 0.309E-03 -.649E+01
   -.149E-01 0.620E-01 0.693E+03   0.185E-01 -.664E-01 -.693E+03   -.259E-02 0.316E-02 0.419E+00
   -.482E-05 -.367E-04 0.692E+03   0.434E-05 0.295E-04 -.693E+03   0.103E-05 0.387E-05 0.423E+00
   -.315E-01 -.618E-04 -.698E+03   0.395E-01 0.666E-04 0.698E+03   -.527E-02 -.573E-05 -.273E+00
   0.147E-03 0.538E-01 -.697E+03   -.168E-03 -.565E-01 0.698E+03   0.167E-04 0.376E-02 -.276E+00
   -.198E-01 -.165E-02 -.207E+04   0.215E-01 0.799E-02 0.207E+04   -.346E-04 -.614E-02 0.555E+01
   0.171E-03 0.999E-04 -.208E+04   -.197E-03 -.893E-04 0.208E+04   0.163E-04 -.180E-04 0.561E+01
   0.610E-02 0.148E-05 0.209E+04   -.648E-02 0.895E-06 -.208E+04   0.272E-03 -.108E-05 -.649E+01
   0.138E-05 -.157E-01 0.209E+04   0.972E-06 0.162E-01 -.208E+04   -.305E-05 -.347E-03 -.649E+01
   0.149E-01 -.621E-01 0.693E+03   -.184E-01 0.665E-01 -.693E+03   0.258E-02 -.315E-02 0.419E+00
   -.480E-04 -.302E-04 0.693E+03   0.458E-04 0.226E-04 -.693E+03   0.377E-05 0.451E-05 0.409E+00
   0.652E-01 0.663E-05 -.697E+03   -.691E-01 -.861E-06 0.697E+03   0.964E-03 -.705E-05 -.282E+00
   -.393E-04 0.805E-02 -.697E+03   0.315E-04 0.240E-04 0.698E+03   0.573E-05 -.924E-02 -.278E+00
   0.193E-01 0.199E-02 -.207E+04   -.211E-01 -.837E-02 0.207E+04   0.681E-04 0.616E-02 0.555E+01
   0.303E-03 0.757E-04 -.208E+04   -.314E-03 -.633E-04 0.208E+04   -.301E-05 -.140E-04 0.560E+01
   0.506E-02 0.429E-05 0.209E+04   -.541E-02 -.108E-05 -.208E+04   0.243E-03 -.236E-05 -.649E+01
   -.513E-05 0.157E-01 0.209E+04   0.303E-05 -.162E-01 -.208E+04   -.162E-05 0.351E-03 -.649E+01
   0.150E-01 0.621E-01 0.693E+03   -.185E-01 -.665E-01 -.693E+03   0.258E-02 0.316E-02 0.419E+00
   0.218E-04 0.203E-04 0.692E+03   -.165E-04 -.222E-04 -.693E+03   -.454E-05 0.301E-05 0.425E+00
   0.315E-01 0.790E-04 -.698E+03   -.395E-01 -.884E-04 0.698E+03   0.527E-02 0.655E-05 -.273E+00
   -.652E-04 -.812E-02 -.697E+03   0.726E-04 0.516E-04 0.698E+03   -.739E-05 0.924E-02 -.278E+00
   0.192E-01 -.234E-02 -.207E+04   -.209E-01 0.871E-02 0.207E+04   0.773E-04 -.613E-02 0.555E+01
   -.297E-03 0.659E-04 -.208E+04   0.301E-03 -.613E-04 0.208E+04   0.399E-05 0.940E-06 0.561E+01
   -.261E-01 -.266E-05 0.519E+03   0.273E-01 0.857E-05 -.519E+03   -.150E-02 -.684E-05 -.626E-01
   0.566E-05 -.422E-01 0.519E+03   -.124E-04 0.412E-01 -.519E+03   0.607E-05 0.147E-02 -.695E-01
   -.382E-02 -.115E-01 0.157E+04   0.430E-02 0.120E-01 -.157E+04   -.674E-03 -.716E-03 0.354E+01
   -.176E-05 0.516E-06 0.157E+04   -.291E-05 -.218E-05 -.157E+04   0.335E-05 -.923E-06 0.354E+01
   -.658E-01 -.146E-03 -.158E+04   0.773E-01 0.157E-03 0.158E+04   -.105E-01 -.719E-05 -.510E+01
   -.125E-03 -.941E-01 -.158E+04   0.139E-03 0.102E+00 0.158E+04   -.178E-04 -.328E-02 -.511E+01
   0.146E-01 -.216E-01 -.515E+03   -.125E-01 0.172E-01 0.515E+03   -.562E-02 0.375E-02 0.415E+00
   -.945E-05 0.526E-04 -.519E+03   0.251E-04 -.571E-04 0.519E+03   -.267E-04 0.551E-05 0.156E+00
   -.168E-01 -.125E-04 0.519E+03   0.183E-01 0.204E-04 -.519E+03   -.201E-02 -.891E-05 -.718E-01
   0.155E-04 0.422E-01 0.519E+03   -.256E-04 -.411E-01 -.519E+03   0.828E-05 -.149E-02 -.695E-01
   -.383E-02 0.115E-01 0.157E+04   0.431E-02 -.120E-01 -.157E+04   -.668E-03 0.721E-03 0.354E+01
   -.159E-05 -.144E-05 0.157E+04   0.879E-07 0.182E-05 -.157E+04   0.670E-06 -.208E-06 0.354E+01
   0.494E-01 -.445E-04 -.158E+04   -.530E-01 0.470E-04 0.158E+04   0.398E-03 -.725E-05 -.512E+01
   0.256E-03 0.941E-01 -.158E+04   -.277E-03 -.102E+00 0.158E+04   0.210E-04 0.329E-02 -.511E+01
   0.145E-01 0.217E-01 -.515E+03   -.123E-01 -.173E-01 0.515E+03   -.564E-02 -.374E-02 0.415E+00
   0.555E-04 0.650E-05 -.519E+03   -.630E-04 -.114E-04 0.519E+03   0.567E-05 0.317E-05 0.150E+00
   0.261E-01 -.138E-04 0.519E+03   -.273E-01 0.181E-04 -.519E+03   0.151E-02 -.100E-04 -.626E-01
   0.163E-04 -.460E-01 0.519E+03   -.143E-04 0.441E-01 -.519E+03   0.509E-05 0.265E-02 -.630E-01
   0.382E-02 -.115E-01 0.157E+04   -.430E-02 0.120E-01 -.157E+04   0.671E-03 -.720E-03 0.354E+01
   -.168E-05 -.995E-06 0.157E+04   0.359E-05 0.164E-05 -.157E+04   -.169E-06 0.234E-05 0.354E+01
   0.657E-01 0.176E-03 -.158E+04   -.771E-01 -.194E-03 0.158E+04   0.105E-01 0.147E-04 -.510E+01
   -.206E-03 0.101E+00 -.158E+04   0.221E-03 -.106E+00 0.158E+04   -.119E-04 0.258E-02 -.511E+01
   -.146E-01 -.217E-01 -.515E+03   0.125E-01 0.173E-01 0.515E+03   0.561E-02 0.376E-02 0.415E+00
   -.147E-03 0.384E-04 -.519E+03   0.162E-03 -.435E-04 0.518E+03   -.644E-05 0.974E-06 0.162E+00
   0.168E-01 0.530E-06 0.519E+03   -.183E-01 0.727E-05 -.519E+03   0.202E-02 -.704E-05 -.718E-01
   0.134E-05 0.460E-01 0.519E+03   -.897E-06 -.440E-01 -.519E+03   0.621E-05 -.267E-02 -.630E-01
   0.384E-02 0.115E-01 0.157E+04   -.431E-02 -.120E-01 -.157E+04   0.667E-03 0.717E-03 0.354E+01
   -.482E-05 0.445E-05 0.157E+04   -.184E-06 -.206E-05 -.157E+04   0.801E-06 0.160E-05 0.354E+01
   -.493E-01 0.144E-03 -.158E+04   0.529E-01 -.157E-03 0.158E+04   -.402E-03 0.152E-04 -.512E+01
   0.288E-03 -.101E+00 -.158E+04   -.322E-03 0.106E+00 0.158E+04   0.291E-04 -.257E-02 -.511E+01
   -.146E-01 0.216E-01 -.515E+03   0.125E-01 -.172E-01 0.515E+03   0.562E-02 -.376E-02 0.415E+00
   -.601E-04 0.305E-04 -.519E+03   0.646E-04 -.399E-04 0.519E+03   -.413E-05 0.680E-05 0.150E+00
 -----------------------------------------------------------------------------------------------
   0.119E-04 0.299E-05 0.170E+02   -.587E-12 -.821E-13 -.500E-11   -.123E-04 0.380E-05 -.170E+02


 POSITION                                       TOTAL-FORCE (eV/Angst)
 -----------------------------------------------------------------------------------
      2.10122      0.00000      7.50000         0.000110      0.000001      0.084382
      4.20243      2.10122      7.50000         0.000003      0.000116      0.084761
      2.10122      2.10122      9.60122         0.000947      0.001200      0.024016
      4.20243      0.00000      9.60122        -0.000001      0.000000      0.037715
      2.10106      8.40486     11.71244         0.002914     -0.000001      0.010917
      4.20243      2.10140     11.71295        -0.000000     -0.001044      0.009383
      2.10111      2.10107     13.78624         0.001669     -0.000178      0.377476
      4.20243      8.40486     13.80657         0.000012      0.000005      0.245925
      2.10122      4.20243      7.50000         0.000097      0.000002      0.084795
      4.20243      6.30365      7.50000         0.000002     -0.000117      0.084761
      2.10122      6.30365      9.60122         0.000947     -0.001203      0.024014
      4.20243      4.20243      9.60122         0.000001     -0.000003      0.039323
      2.10116      4.20243     11.71337         0.002671     -0.000001      0.006847
      4.20243      6.30346     11.71295        -0.000004      0.001044      0.009379
      2.10111      6.30379     13.78624         0.001685      0.000172      0.377460
      4.20243      4.20243     13.80824        -0.000010     -0.000007      0.239751
      6.30365      0.00000      7.50000        -0.000106      0.000001      0.084380
      0.00000      2.10122      7.50000        -0.000001      0.000133      0.084349
      6.30365      2.10122      9.60122        -0.000944      0.001202      0.024015
      0.00000      0.00000      9.60122         0.000002     -0.000003      0.035315
      6.30381      8.40486     11.71244        -0.002927     -0.000001      0.010927
      0.00000      2.10152     11.71269        -0.000002     -0.001188      0.009795
      6.30376      2.10107     13.78624        -0.001681     -0.000192      0.377468
      0.00000      8.40486     13.80617        -0.000014     -0.000002      0.247770
      6.30365      4.20243      7.50000        -0.000096      0.000001      0.084791
      0.00000      6.30365      7.50000        -0.000004     -0.000135      0.084345
      6.30365      6.30365      9.60122        -0.000941     -0.001205      0.024012
      0.00000      4.20243      9.60122         0.000001      0.000001      0.037384
      6.30370      4.20243     11.71337        -0.002672     -0.000003      0.006835
      0.00000      6.30334     11.71269         0.000000      0.001190      0.009800
      6.30376      6.30379     13.78623        -0.001669      0.000202      0.377488
      0.00000      4.20243     13.80785         0.000008      0.000005      0.242135
      2.10122      0.00000      9.60122        -0.000278     -0.000001      0.058176
      4.20243      2.10122      9.60122        -0.000001      0.000427      0.058759
      2.10122      2.10122      7.50000        -0.000194     -0.000202     -0.621582
      4.20243      0.00000      7.50000        -0.000001     -0.000003     -0.621603
      2.10078      8.40486     13.84056         0.001007      0.000004      0.156802
      4.20243      2.10055     13.84167        -0.000004      0.004886      0.153818
      2.10145      2.10142     11.70564        -0.003484     -0.000645     -0.035422
      4.20243      8.40486     11.70790        -0.000011      0.000001     -0.019436
      2.10122      4.20243      9.60122        -0.000524     -0.000001      0.060300
      4.20243      6.30365      9.60122        -0.000002     -0.000433      0.058766
      2.10122      6.30365      7.50000        -0.000189      0.000210     -0.621582
      4.20243      4.20243      7.50000        -0.000001      0.000000     -0.621782
      2.10159      4.20243     13.84236        -0.003174     -0.000005      0.151252
      4.20243      6.30431     13.84167         0.000000     -0.004879      0.153836
      2.10145      6.30344     11.70564        -0.003485      0.000654     -0.035425
      4.20243      4.20243     11.70859        -0.000002     -0.000002     -0.019180
      6.30365      0.00000      9.60122         0.000279     -0.000006      0.058174
      0.00000      2.10122      9.60122         0.000007      0.000738      0.059398
      6.30365      2.10122      7.50000         0.000187     -0.000213     -0.621586
      0.00000      0.00000      7.50000         0.000002      0.000003     -0.621369
      6.30408      8.40486     13.84056        -0.000999     -0.000003      0.156791
      0.00000      2.10150     13.84109         0.000003     -0.002359      0.154932
      6.30341      2.10141     11.70564         0.003483     -0.000637     -0.035423
      0.00000      8.40486     11.70746         0.000009     -0.000004     -0.015822
      6.30365      4.20243      9.60122         0.000524      0.000001      0.060300
      0.00000      6.30365      9.60122         0.000007     -0.000737      0.059394
      6.30365      6.30365      7.50000         0.000195      0.000203     -0.621585
      0.00000      4.20243      7.50000        -0.000004      0.000004     -0.621569
      6.30328      4.20243     13.84236         0.003173      0.000002      0.151266
      0.00000      6.30336     13.84109        -0.000005      0.002366      0.154908
      6.30341      6.30345     11.70564         0.003483      0.000642     -0.035426
      0.00000      4.20243     11.70844         0.000000     -0.000003     -0.019793
 -----------------------------------------------------------------------------------
    total drift:                               -0.000000      0.000007     -0.008143


--------------------------------------------------------------------------------------------------------



  FREE ENERGIE OF THE ION-ELECTRON SYSTEM (eV)
  ---------------------------------------------------
  free  energy   TOTEN  =      -227.32851783 eV

  energy  without entropy=     -227.32851783  energy(sigma->0) =     -227.32851783



--------------------------------------------------------------------------------------------------------


    POTLOK:  cpu time      2.2640: real time      2.2645


--------------------------------------------------------------------------------------------------------


     LOOP+:  cpu time    165.2159: real time    165.4215
    4ORBIT:  cpu time      0.0000: real time      0.0000

 total amount of memory used by VASP MPI-rank0    60329. kBytes
=======================================================================

   base      :      30000. kBytes
   nonl-proj :      11759. kBytes
   fftplans  :       4923. kBytes
   grid      :       7379. kBytes
   one-center:         64. kBytes
   wavefun   :       6204. kBytes

  
  
 General timing and accounting informations for this job:
 ========================================================
  
                  Total CPU time used (sec):      198.572
                            User time (sec):      196.731
                          System time (sec):        1.841
                         Elapsed time (sec):      207.890
  
                   Maximum memory used (kb):      264436.
                   Average memory used (kb):          N/A
  
                          Minor page faults:        68399
                          Major page faults:            0
                 Voluntary context switches:        12479
