 vasp.6.3.0 20Jan22 (build Aug 21 2024 11:13:42) complex                         
 executed on        HPECrayEX_GCC date 2024.08.22  13:32:13
 running  384 mpi-ranks, with    1 threads/rank
 distrk:  each k-point on  384 cores,    1 groups
 distr:  one band on NCORE=   8 cores,   48 groups


--------------------------------------------------------------------------------------------------------


 INCAR:
   SYSTEM = MgO-rocksalt
   ISMEAR = 0
   SIGMA = 0.05
   EDIFF = 1E-6
   ALGO = ALL
   ISTART = 0
   IBRION = -1
   NSW = 0
   ISYM = 0
   DIPOL = 0.5 0.5 0.5
   IDIPOL = 4
   LDIPOL = .TRUE.
   GGA = PE
   IVDW = 1
   VDW_C6 = 1.75 0.14
   VDW_R0 = 1.452 1.001
   ENCUT = 600
   PREC = Accurate
   LASPH = .TRUE.
   LREAL = .FALSE.
   ISPIN = 1
   NELM = 200
   NELMIN = 8
   NCORE = 8
   KPAR = 1
   LWAVE = .FALSE.
   LCHARG = .FALSE.

 POTCAR:    PAW_PBE C 08Apr2002                   
 POTCAR:    PAW_PBE H 15Jun2001                   
 POTCAR:    PAW_PBE C 08Apr2002                   
   SHA256 =  253f7b50bb8d59471dbedb8285d89021f4a42ed1a2c5d38a03a736e69125dd95 C/POTCAR              
   COPYR  = (c) Copyright 08Apr2002 Georg Kresse                                                    
   COPYR  = This file is part of the software VASP. Any use, copying, and all other rights are regul
   COPYR  = If you do not have a valid VASP license, you may not use, copy or distribute this file. 
   VRHFIN =C: s2p2                                                                                  
   LEXCH  = PE                                                                                      
   EATOM  =   147.1560 eV,   10.8157 Ry                                                             
                                                                                                    
   TITEL  = PAW_PBE C 08Apr2002                                                                     
   LULTRA =        F    use ultrasoft PP ?                                                          
   IUNSCR =        1    unscreen: 0-lin 1-nonlin 2-no                                               
   RPACOR =    1.200    partial core radius                                                         
   POMASS =   12.011; ZVAL   =    4.000    mass and valenz                                          
   RCORE  =    1.500    outmost cutoff radius                                                       
   RWIGS  =    1.630; RWIGS  =    0.863    wigner-seitz radius (au A)                               
   ENMAX  =  400.000; ENMIN  =  300.000 eV                                                          
   ICORE  =        2    local potential                                                             
   LCOR   =        T    correct aug charges                                                         
   LPAW   =        T    paw PP                                                                      
   EAUG   =  644.873                                                                                
   DEXC   =    0.000                                                                                
   RMAX   =    1.529    core radius for proj-oper                                                   
   RAUG   =    1.300    factor for augmentation sphere                                              
   RDEP   =    1.501    radius for radial grids                                                     
   RDEPT  =    1.300    core radius for aug-charge                                                  
                                                                                                    
   Atomic configuration                                                                             
    4 entries                                                                                       
     n  l   j            E        occ.                                                              
     1  0  0.50      -273.3789   2.0000                                                             
     2  0  0.50       -13.7508   2.0000                                                             
     2  1  0.50        -5.2854   2.0000                                                             
     3  2  1.50        -5.4423   0.0000                                                             
   Description                                                                                      
     l       E           TYP  RCUT    TYP  RCUT                                                     
     0    -13.7508458     23  1.200                                                                 
     0     -8.2022199     23  1.200                                                                 
     1     -5.2854383     23  1.500                                                                 
     1     34.0145650     23  1.500                                                                 
     2     -5.4423304      7  1.500                                                                 
  local pseudopotential read in
  partial core-charges read in
  partial kinetic energy density read in
  atomic valenz-charges read in
  non local Contribution for L=           0  read in
    real space projection operators read in
  non local Contribution for L=           0  read in
    real space projection operators read in
  non local Contribution for L=           1  read in
    real space projection operators read in
  non local Contribution for L=           1  read in
    real space projection operators read in
    PAW grid and wavefunctions read in

   number of l-projection  operators is LMAX  =           4
   number of lm-projection operators is LMMAX =           8

 POTCAR:    PAW_PBE H 15Jun2001                   
   SHA256 =  030f79b5d3ab3cf0e668861823c8fb652ff669f3e15e46930bd03bfd63a607b6 H/POTCAR              
   COPYR  = (c) Copyright 15Jun2001 Georg Kresse                                                    
   COPYR  = This file is part of the software VASP. Any use, copying, and all other rights are regul
   COPYR  = If you do not have a valid VASP license, you may not use, copy or distribute this file. 
   VRHFIN =H: ultrasoft test                                                                        
   LEXCH  = PE                                                                                      
   EATOM  =    12.4884 eV,    0.9179 Ry                                                             
                                                                                                    
   TITEL  = PAW_PBE H 15Jun2001                                                                     
   LULTRA =        F    use ultrasoft PP ?                                                          
   IUNSCR =        0    unscreen: 0-lin 1-nonlin 2-no                                               
   RPACOR =    0.000    partial core radius                                                         
   POMASS =    1.000; ZVAL   =    1.000    mass and valenz                                          
   RCORE  =    1.100    outmost cutoff radius                                                       
   RWIGS  =    0.700; RWIGS  =    0.370    wigner-seitz radius (au A)                               
   ENMAX  =  250.000; ENMIN  =  200.000 eV                                                          
   RCLOC  =    0.701    cutoff for local pot                                                        
   LCOR   =        T    correct aug charges                                                         
   LPAW   =        T    paw PP                                                                      
   EAUG   =  400.000                                                                                
   RMAX   =    1.123    core radius for proj-oper                                                   
   RAUG   =    1.200    factor for augmentation sphere                                              
   RDEP   =    1.112    radius for radial grids                                                     
   RDEPT  =    0.926    core radius for aug-charge                                                  
                                                                                                    
   Atomic configuration                                                                             
    2 entries                                                                                       
     n  l   j            E        occ.                                                              
     1  0  0.50        -6.4927   1.0000                                                             
     2  1  0.50        -3.4015   0.0000                                                             
   Description                                                                                      
     l       E           TYP  RCUT    TYP  RCUT                                                     
     0     -6.4927494     23  1.100                                                                 
     0      6.8029130     23  1.100                                                                 
     1     -4.0817478     23  1.100                                                                 
  local pseudopotential read in
  atomic valenz-charges read in
  non local Contribution for L=           0  read in
    real space projection operators read in
  non local Contribution for L=           0  read in
    real space projection operators read in
  non local Contribution for L=           1  read in
    real space projection operators read in
    PAW grid and wavefunctions read in

   number of l-projection  operators is LMAX  =           3
   number of lm-projection operators is LMMAX =           5

  PAW_PBE C 08Apr2002                   :
 energy of atom  1       EATOM= -147.1560
 kinetic energy error for atom=    0.0057 (will be added to EATOM!!)
  PAW_PBE H 15Jun2001                   :
 energy of atom  2       EATOM=  -12.4884
 kinetic energy error for atom=    0.0004 (will be added to EATOM!!)


 POSCAR:  C  H
  positions in direct lattice
  No initial velocities read in
 exchange correlation table for  LEXCH =        8
   RHO(1)=    0.500       N(1)  =     2000
   RHO(2)=  100.500       N(2)  =     4000



--------------------------------------------------------------------------------------------------------


 ion  position               nearest neighbor table
   1  0.534  0.329  0.481-   3 1.10   5 1.10
   2  0.466  0.671  0.518-   8 1.10   6 1.10
   3  0.517  0.368  0.447-   1 1.10
   4  0.565  0.673  0.441-
   5  0.574  0.344  0.526-   1 1.10
   6  0.426  0.657  0.473-   2 1.10
   7  0.435  0.327  0.559-
   8  0.483  0.633  0.552-   2 1.10


IMPORTANT INFORMATION: All symmetrisations will be switched off!
NOSYMM: (Re-)initialisation of all symmetry stuff for point group C_1.


----------------------------------------------------------------------------------------

                                     Primitive cell                                     

  volume of cell :    6861.0023

  direct lattice vectors                    reciprocal lattice vectors
    17.625901335  0.000000000  0.000000000     0.056734687  0.000000000  0.000000000
     0.000000000 22.910939700  0.000000000     0.000000000  0.043647271  0.000000000
     0.000000000  0.000000000 16.989998097     0.000000000  0.000000000  0.058858158

  length of vectors
    17.625901335 22.910939700 16.989998097     0.056734687  0.043647271  0.058858158

  position of ions in fractional coordinates (direct lattice)
     0.534239478  0.329195351  0.481146118
     0.465677503  0.671267088  0.518311593
     0.516731551  0.367609732  0.447150423
     0.564932698  0.672645466  0.441436188
     0.574489846  0.343881513  0.526256904
     0.425510154  0.656804308  0.472952190
     0.435033009  0.327354534  0.558563812
     0.483351899  0.632727357  0.551999622

  ion indices of the primitive-cell ions
   primitive index   ion index
                 1           1
                 2           2
                 3           3
                 4           4
                 5           5
                 6           6
                 7           7
                 8           8

----------------------------------------------------------------------------------------



 KPOINTS: pymatgen v2020.8.13 with grid density = 

Automatic generation of k-mesh.
 Grid dimensions read from file:
 generate k-points for:    1    1    1

 Generating k-lattice:

  Cartesian coordinates                     Fractional coordinates (reciprocal lattice)
     0.056734687  0.000000000  0.000000000     1.000000000  0.000000000  0.000000000
     0.000000000  0.043647271  0.000000000     0.000000000  1.000000000  0.000000000
     0.000000000  0.000000000  0.058858158     0.000000000  0.000000000  1.000000000

  Length of vectors
     0.056734687  0.043647271  0.058858158

  Shift w.r.t. Gamma in fractional coordinates (k-lattice)
     0.000000000  0.000000000  0.000000000

 
 Subroutine IBZKPT returns following result:
 ===========================================
 
 Found      1 irreducible k-points:
 
 Following reciprocal coordinates:
            Coordinates               Weight
  0.000000  0.000000  0.000000      1.000000
 
 Following cartesian coordinates:
            Coordinates               Weight
  0.000000  0.000000  0.000000      1.000000
 


--------------------------------------------------------------------------------------------------------




 Dimension of arrays:
   k-points           NKPTS =      1   k-points in BZ     NKDIM =      1   number of bands    NBANDS=     48
   number of dos      NEDOS =    301   number of ions     NIONS =      8
   non local maximal  LDIM  =      4   non local SUM 2l+1 LMDIM =      8
   total plane-waves  NPLWV = ******
   max r-space proj   IRMAX =      1   max aug-charges    IRDMAX=   6856
   dimension x,y,z NGX =   144 NGY =  192 NGZ =  140
   dimension x,y,z NGXF=   288 NGYF=  384 NGZF=  280
   support grid    NGXF=   288 NGYF=  384 NGZF=  280
   ions per type =               2   6
   NGX,Y,Z   is equivalent  to a cutoff of  13.58, 13.93, 13.70 a.u.
   NGXF,Y,Z  is equivalent  to a cutoff of  27.16, 27.86, 27.40 a.u.

 SYSTEM =  MgO-rocksalt                            
 POSCAR =   C  H                                   

--------------------------------------------------------------------------------------------------------


  energy-cutoff  :      600.00
  volume of cell :     6861.00
      direct lattice vectors                 reciprocal lattice vectors
    17.625901335  0.000000000  0.000000000     0.056734687  0.000000000  0.000000000
     0.000000000 22.910939700  0.000000000     0.000000000  0.043647271  0.000000000
     0.000000000  0.000000000 16.989998097     0.000000000  0.000000000  0.058858158

  length of vectors
    17.625901335 22.910939700 16.989998097     0.056734687  0.043647271  0.058858158



 k-points in units of 2pi/SCALE and weight: pymatgen v2020.8.13 with grid density = 
   0.00000000  0.00000000  0.00000000       1.000

 k-points in reciprocal lattice and weights: pymatgen v2020.8.13 with grid density = 
   0.00000000  0.00000000  0.00000000       1.000

 position of ions in fractional coordinates (direct lattice) 
   0.53423948  0.32919535  0.48114612
   0.46567750  0.67126709  0.51831159
   0.51673155  0.36760973  0.44715042
   0.56493270  0.67264547  0.44143619
   0.57448985  0.34388151  0.52625690
   0.42551015  0.65680431  0.47295219
   0.43503301  0.32735453  0.55856381
   0.48335190  0.63272736  0.55199962

 position of ions in cartesian coordinates  (Angst):
   9.41645233  7.54217483  8.17467162
   8.20798572 15.37935979  8.80611298
   9.10785934  8.42228439  7.59708483
   9.95744800 15.41093970  7.50000000
  10.12590134  7.87864862  8.94110380
   7.50000000 15.04800390  8.03545682
   7.66784890  7.50000000  9.48999810
   8.51951288 14.49637832  9.37847253



--------------------------------------------------------------------------------------------------------

--------------------------------------- Iteration      FINAL  ---------------------------------------


--------------------OUTCAR has been truncated-------------------------


--------------------OUTCAR has been truncated-------------------------


--------------------OUTCAR has been truncated-------------------------


--------------------OUTCAR has been truncated-------------------------


--------------------OUTCAR has been truncated-------------------------


--------------------OUTCAR has been truncated-------------------------


--------------------OUTCAR has been truncated-------------------------


--------------------OUTCAR has been truncated-------------------------


--------------------OUTCAR has been truncated-------------------------


--------------------OUTCAR has been truncated-------------------------


  DFT-D2 method for vdW energy calculation
  -------------------------------------------------------------------

  Parameters of vdW forcefield:
         C6(Jnm^6/mol)     R0(A)
   -----------------------------
   C        1.750          1.452
   H        0.140          1.001

  vdW correction parametrized for the method pbe       

  IVDW =   1
  VDW_RADIUS =    50.000 A
  VDW_S6 =     0.750
  VDW_SR =     1.000
  VDW_D =    20.000
  LVDW_EWALD = F

  Number of pair interactions contributing to vdW energy:    2694
  Edisp (eV):   -0.03004
    FORVDW:  cpu time      0.0014: real time      0.0014

  FORCE on cell =-STRESS in cart. coord.  units (eV):
  Direction    XX          YY          ZZ          XY          YZ          ZX
  --------------------------------------------------------------------------------------
  Alpha Z     0.11364     0.11364     0.11364
  Ewald      47.93143    84.74734    62.25979    -8.45272   -27.18012    37.45417
  Hartree   149.16697   183.24784   147.02403    -3.07819   -10.15873    -0.02245
  E(xc)     -43.79951   -43.93144   -43.77885     0.03396    -0.18012     0.20107
  Local    -306.96026  -379.28800  -315.20936     7.30152    37.47305   -34.56088
  n-local   -14.64994   -17.27336   -15.39835    -1.04699     1.23280    -3.23380
  augment     0.31227     0.34869     0.30504     0.03253    -0.01704     0.02969
  Kinetic   161.68151   171.10310   161.31165     5.38610    -2.41722     6.24466
  Fock        0.00000     0.00000     0.00000     0.00000     0.00000     0.00000
  vdW         0.00850    -0.00226     0.03524    -0.02666    -0.00200     0.02342
  -------------------------------------------------------------------------------------
  Total      -6.19540    -0.93445    -3.33718     0.14954    -1.24938     6.13589
  in kB      -1.44675    -0.21821    -0.77930     0.03492    -0.29175     1.43285
  external pressure =       -0.81 kB  Pullay stress =        0.00 kB


 VOLUME and BASIS-vectors are now :
 -----------------------------------------------------------------------------
  energy-cutoff  :      600.00
  volume of cell :     6861.00
      direct lattice vectors                 reciprocal lattice vectors
    17.625901335  0.000000000  0.000000000     0.056734687  0.000000000  0.000000000
     0.000000000 22.910939700  0.000000000     0.000000000  0.043647271  0.000000000
     0.000000000  0.000000000 16.989998097     0.000000000  0.000000000  0.058858158

  length of vectors
    17.625901335 22.910939700 16.989998097     0.056734687  0.043647271  0.058858158


 FORCES acting on ions:
    Electron-Ion                     Ewald-Force                    Non-Local-Force
 -----------------------------------------------------------------------------------------------
   0.445E+01 0.525E+02 0.155E+02   -.724E+01 -.582E+02 -.157E+02   0.254E+00 0.684E+01 0.257E+01
   -.418E+01 -.525E+02 -.159E+02   0.695E+01 0.581E+02 0.161E+02   -.204E+00 -.677E+01 -.260E+01
   0.129E+02 -.344E+02 0.268E+02   -.147E+02 0.388E+02 -.305E+02   0.173E+01 -.463E+01 0.290E+01
   -.147E+02 -.236E+01 0.107E+02   0.131E+02 0.264E+01 -.939E+01   -.413E+00 -.278E-01 0.301E+00
   -.318E+02 -.109E+02 -.323E+02   0.360E+02 0.121E+02 0.364E+02   -.357E+01 -.180E+01 -.410E+01
   0.317E+02 0.107E+02 0.324E+02   -.359E+02 -.119E+02 -.366E+02   0.356E+01 0.177E+01 0.412E+01
   0.146E+02 0.244E+01 -.107E+02   -.130E+02 -.270E+01 0.938E+01   0.408E+00 0.313E-01 -.300E+00
   -.130E+02 0.345E+02 -.266E+02   0.147E+02 -.389E+02 0.302E+02   -.175E+01 0.464E+01 -.287E+01
 -----------------------------------------------------------------------------------------------
   -.113E-01 -.516E-01 -.222E-01   0.000E+00 0.142E-13 -.355E-14   0.979E-02 0.506E-01 0.231E-01


 POSITION                                       TOTAL-FORCE (eV/Angst)
 -----------------------------------------------------------------------------------
      9.41645      7.54217      8.17467        -2.497573      1.110804      2.365048
      8.20799     15.37936      8.80611         2.531341     -1.145148     -2.385204
      9.10786      8.42228      7.59708        -0.057029     -0.272559     -0.786168
      9.95745     15.41094      7.50000        -1.999942      0.251476      1.607434
     10.12590      7.87865      8.94110         0.567459     -0.609327      0.031643
      7.50000     15.04800      8.03546        -0.562319      0.613400     -0.008522
      7.66785      7.50000      9.49000         1.987500     -0.229850     -1.611092
      8.51951     14.49638      9.37847         0.030563      0.281205      0.786860
 -----------------------------------------------------------------------------------
    total drift:                               -0.001521     -0.000976      0.000892


--------------------------------------------------------------------------------------------------------



  FREE ENERGIE OF THE ION-ELECTRON SYSTEM (eV)
  ---------------------------------------------------
  free  energy   TOTEN  =       -26.22246655 eV

  energy  without entropy=      -26.16607683  energy(sigma->0) =      -26.19427169



--------------------------------------------------------------------------------------------------------


    POTLOK:  cpu time      0.1853: real time      0.1853


--------------------------------------------------------------------------------------------------------


     LOOP+:  cpu time     58.6127: real time     58.7169
    4ORBIT:  cpu time      0.0000: real time      0.0000

 total amount of memory used by VASP MPI-rank0    82088. kBytes
=======================================================================

   base      :      30000. kBytes
   nonl-proj :       7323. kBytes
   fftplans  :      17928. kBytes
   grid      :      25460. kBytes
   one-center:          3. kBytes
   wavefun   :       1374. kBytes

  
  
 General timing and accounting informations for this job:
 ========================================================
  
                  Total CPU time used (sec):       79.952
                            User time (sec):       78.081
                          System time (sec):        1.871
                         Elapsed time (sec):       82.757
  
                   Maximum memory used (kb):      222260.
                   Average memory used (kb):          N/A
  
                          Minor page faults:        26636
                          Major page faults:         1140
                 Voluntary context switches:         8904
