 vasp.6.3.0 20Jan22 (build Mar 11 2022 13:48:16) complex                        
  
 executed on             LinuxIFC date 2024.02.12  16:10:36
 running on  304 total cores
 distrk:  each k-point on  304 cores,    1 groups
 distr:  one band on NCORE=  19 cores,   16 groups


--------------------------------------------------------------------------------------------------------


 INCAR:
   SYSTEM = Oxide-Surface
   ISMEAR = 0
   SIGMA = 0.05
   EDIFF = 1E-5
   ALGO = ALL
   ISTART = 0
   IBRION = -1
   NSW = 0
   ISYM = 2
   DIPOL = 0.5 0.5 0.5
   IDIPOL = 3
   LDIPOL = .TRUE.
   GGA = PE
   IVDW = 263
   ENCUT = 600
   PREC = Accurate
   LASPH = .TRUE.
   LREAL = .FALSE.
   ISPIN = 1
   NELM = 200
   NELMIN = 8
   NCORE = 19
   KPAR = 1
   LWAVE = .FALSE.
   LCHARG = .FALSE.

 POTCAR:    PAW_PBE C 08Apr2002                   
 POTCAR:    PAW_PBE O 08Apr2002                   
 POTCAR:    PAW_PBE Mg_pv 13Apr2007               
 POTCAR:    PAW_PBE O 08Apr2002                   
 POTCAR:    PAW_PBE C 08Apr2002                   
   SHA256 =  253f7b50bb8d59471dbedb8285d89021f4a42ed1a2c5d38a03a736e69125dd95 C/POTCAR              
   COPYR  = (c) Copyright 08Apr2002 Georg Kresse                                                    
   COPYR  = This file is part of the software VASP. Any use, copying, and all other rights are regul
   COPYR  = If you do not have a valid VASP license, you may not use, copy or distribute this file. 
   VRHFIN =C: s2p2                                                                                  
   LEXCH  = PE                                                                                      
   EATOM  =   147.1560 eV,   10.8157 Ry                                                             
                                                                                                    
   TITEL  = PAW_PBE C 08Apr2002                                                                     
   LULTRA =        F    use ultrasoft PP ?                                                          
   IUNSCR =        1    unscreen: 0-lin 1-nonlin 2-no                                               
   RPACOR =    1.200    partial core radius                                                         
   POMASS =   12.011; ZVAL   =    4.000    mass and valenz                                          
   RCORE  =    1.500    outmost cutoff radius                                                       
   RWIGS  =    1.630; RWIGS  =    0.863    wigner-seitz radius (au A)                               
   ENMAX  =  400.000; ENMIN  =  300.000 eV                                                          
   ICORE  =        2    local potential                                                             
   LCOR   =        T    correct aug charges                                                         
   LPAW   =        T    paw PP                                                                      
   EAUG   =  644.873                                                                                
   DEXC   =    0.000                                                                                
   RMAX   =    1.529    core radius for proj-oper                                                   
   RAUG   =    1.300    factor for augmentation sphere                                              
   RDEP   =    1.501    radius for radial grids                                                     
   RDEPT  =    1.300    core radius for aug-charge                                                  
                                                                                                    
   Atomic configuration                                                                             
    4 entries                                                                                       
     n  l   j            E        occ.                                                              
     1  0  0.50      -273.3789   2.0000                                                             
     2  0  0.50       -13.7508   2.0000                                                             
     2  1  0.50        -5.2854   2.0000                                                             
     3  2  1.50        -5.4423   0.0000                                                             
   Description                                                                                      
     l       E           TYP  RCUT    TYP  RCUT                                                     
     0    -13.7508458     23  1.200                                                                 
     0     -8.2022199     23  1.200                                                                 
     1     -5.2854383     23  1.500                                                                 
     1     34.0145650     23  1.500                                                                 
     2     -5.4423304      7  1.500                                                                 
  local pseudopotential read in
  partial core-charges read in
  partial kinetic energy density read in
  atomic valenz-charges read in
  non local Contribution for L=           0  read in
    real space projection operators read in
  non local Contribution for L=           0  read in
    real space projection operators read in
  non local Contribution for L=           1  read in
    real space projection operators read in
  non local Contribution for L=           1  read in
    real space projection operators read in
    PAW grid and wavefunctions read in
 
   number of l-projection  operators is LMAX  =           4
   number of lm-projection operators is LMMAX =           8
 
 POTCAR:    PAW_PBE O 08Apr2002                   
   SHA256 =  818f92134a0a090dccd8ba1447fa70422a3b330e708bb4f08108d8ae51209ddf O/POTCAR              
   COPYR  = (c) Copyright 08Apr2002 Georg Kresse                                                    
   COPYR  = This file is part of the software VASP. Any use, copying, and all other rights are regul
   COPYR  = If you do not have a valid VASP license, you may not use, copy or distribute this file. 
   VRHFIN =O: s2p4                                                                                  
   LEXCH  = PE                                                                                      
   EATOM  =   432.3788 eV,   31.7789 Ry                                                             
                                                                                                    
   TITEL  = PAW_PBE O 08Apr2002                                                                     
   LULTRA =        F    use ultrasoft PP ?                                                          
   IUNSCR =        1    unscreen: 0-lin 1-nonlin 2-no                                               
   RPACOR =    1.200    partial core radius                                                         
   POMASS =   16.000; ZVAL   =    6.000    mass and valenz                                          
   RCORE  =    1.520    outmost cutoff radius                                                       
   RWIGS  =    1.550; RWIGS  =    0.820    wigner-seitz radius (au A)                               
   ENMAX  =  400.000; ENMIN  =  300.000 eV                                                          
   ICORE  =        2    local potential                                                             
   LCOR   =        T    correct aug charges                                                         
   LPAW   =        T    paw PP                                                                      
   EAUG   =  605.392                                                                                
   DEXC   =    0.000                                                                                
   RMAX   =    1.553    core radius for proj-oper                                                   
   RAUG   =    1.300    factor for augmentation sphere                                              
   RDEP   =    1.550    radius for radial grids                                                     
   RDEPT  =    1.329    core radius for aug-charge                                                  
                                                                                                    
   Atomic configuration                                                                             
    4 entries                                                                                       
     n  l   j            E        occ.                                                              
     1  0  0.50      -514.6923   2.0000                                                             
     2  0  0.50       -23.9615   2.0000                                                             
     2  1  0.50        -9.0305   4.0000                                                             
     3  2  1.50        -9.5241   0.0000                                                             
   Description                                                                                      
     l       E           TYP  RCUT    TYP  RCUT                                                     
     0    -23.9615318     23  1.200                                                                 
     0     -9.5240782     23  1.200                                                                 
     1     -9.0304911     23  1.520                                                                 
     1      8.1634956     23  1.520                                                                 
     2     -9.5240782      7  1.500                                                                 
  local pseudopotential read in
  partial core-charges read in
  partial kinetic energy density read in
  kinetic energy density of atom read in
  atomic valenz-charges read in
  non local Contribution for L=           0  read in
    real space projection operators read in
  non local Contribution for L=           0  read in
    real space projection operators read in
  non local Contribution for L=           1  read in
    real space projection operators read in
  non local Contribution for L=           1  read in
    real space projection operators read in
    PAW grid and wavefunctions read in
 
   number of l-projection  operators is LMAX  =           4
   number of lm-projection operators is LMMAX =           8
 
 POTCAR:    PAW_PBE Mg_pv 13Apr2007               
   SHA256 =  f474ac0dd33840b9ae76c01d57fea79fdf77cdfbb07d5ade72c65f83c709b62b Mg_pv/POTCAR          
   COPYR  = (c) Copyright 13Apr2007 Georg Kresse                                                    
   COPYR  = This file is part of the software VASP. Any use, copying, and all other rights are regul
   COPYR  = If you do not have a valid VASP license, you may not use, copy or distribute this file. 
   VRHFIN =Mg: p6s2                                                                                 
   LEXCH  = PE                                                                                      
   EATOM  =  1056.7344 eV,   77.6678 Ry                                                             
                                                                                                    
   TITEL  = PAW_PBE Mg_pv 13Apr2007                                                                 
   LULTRA =        F    use ultrasoft PP ?                                                          
   IUNSCR =        1    unscreen: 0-lin 1-nonlin 2-no                                               
   RPACOR =    1.500    partial core radius                                                         
   POMASS =   24.305; ZVAL   =    8.000    mass and valenz                                          
   RCORE  =    2.000    outmost cutoff radius                                                       
   RWIGS  =    2.000; RWIGS  =    1.058    wigner-seitz radius (au A)                               
   ENMAX  =  403.929; ENMIN  =  302.947 eV                                                          
   RCLOC  =    1.506    cutoff for local pot                                                        
   LCOR   =        T    correct aug charges                                                         
   LPAW   =        T    paw PP                                                                      
   EAUG   =  758.780                                                                                
   DEXC   =    0.000                                                                                
   RMAX   =    2.045    core radius for proj-oper                                                   
   RAUG   =    1.300    factor for augmentation sphere                                              
   RDEP   =    2.025    radius for radial grids                                                     
   RDEPT  =    1.557    core radius for aug-charge                                                  
                                                                                                    
   Atomic configuration                                                                             
    5 entries                                                                                       
     n  l   j            E        occ.                                                              
     1  0  0.50     -1259.6230   2.0000                                                             
     2  0  0.50       -79.8442   2.0000                                                             
     2  1  1.50       -46.6121   6.0000                                                             
     3  0  0.50        -4.7055   2.0000                                                             
     3  2  1.50        -1.3606   0.0000                                                             
   Description                                                                                      
     l       E           TYP  RCUT    TYP  RCUT                                                     
     1    -46.6121073     23  1.600                                                                 
     1      2.7211652     23  1.600                                                                 
     0     -4.7054661     23  2.000                                                                 
     0     61.2262170     23  2.000                                                                 
     2     -1.3605826     23  2.000                                                                 
  local pseudopotential read in
  partial core-charges read in
  partial kinetic energy density read in
  atomic valenz-charges read in
  non local Contribution for L=           1  read in
    real space projection operators read in
  non local Contribution for L=           1  read in
    real space projection operators read in
  non local Contribution for L=           0  read in
    real space projection operators read in
  non local Contribution for L=           0  read in
    real space projection operators read in
  non local Contribution for L=           2  read in
    real space projection operators read in
    PAW grid and wavefunctions read in
 
   number of l-projection  operators is LMAX  =           5
   number of lm-projection operators is LMMAX =          13
 
 POTCAR:    PAW_PBE O 08Apr2002                   
   SHA256 =  818f92134a0a090dccd8ba1447fa70422a3b330e708bb4f08108d8ae51209ddf O/POTCAR              
   COPYR  = (c) Copyright 08Apr2002 Georg Kresse                                                    
   COPYR  = This file is part of the software VASP. Any use, copying, and all other rights are regul
   COPYR  = If you do not have a valid VASP license, you may not use, copy or distribute this file. 
   VRHFIN =O: s2p4                                                                                  
   LEXCH  = PE                                                                                      
   EATOM  =   432.3788 eV,   31.7789 Ry                                                             
                                                                                                    
   TITEL  = PAW_PBE O 08Apr2002                                                                     
   LULTRA =        F    use ultrasoft PP ?                                                          
   IUNSCR =        1    unscreen: 0-lin 1-nonlin 2-no                                               
   RPACOR =    1.200    partial core radius                                                         
   POMASS =   16.000; ZVAL   =    6.000    mass and valenz                                          
   RCORE  =    1.520    outmost cutoff radius                                                       
   RWIGS  =    1.550; RWIGS  =    0.820    wigner-seitz radius (au A)                               
   ENMAX  =  400.000; ENMIN  =  300.000 eV                                                          
   ICORE  =        2    local potential                                                             
   LCOR   =        T    correct aug charges                                                         
   LPAW   =        T    paw PP                                                                      
   EAUG   =  605.392                                                                                
   DEXC   =    0.000                                                                                
   RMAX   =    1.553    core radius for proj-oper                                                   
   RAUG   =    1.300    factor for augmentation sphere                                              
   RDEP   =    1.550    radius for radial grids                                                     
   RDEPT  =    1.329    core radius for aug-charge                                                  
                                                                                                    
   Atomic configuration                                                                             
    4 entries                                                                                       
     n  l   j            E        occ.                                                              
     1  0  0.50      -514.6923   2.0000                                                             
     2  0  0.50       -23.9615   2.0000                                                             
     2  1  0.50        -9.0305   4.0000                                                             
     3  2  1.50        -9.5241   0.0000                                                             
   Description                                                                                      
     l       E           TYP  RCUT    TYP  RCUT                                                     
     0    -23.9615318     23  1.200                                                                 
     0     -9.5240782     23  1.200                                                                 
     1     -9.0304911     23  1.520                                                                 
     1      8.1634956     23  1.520                                                                 
     2     -9.5240782      7  1.500                                                                 
  local pseudopotential read in
  partial core-charges read in
  partial kinetic energy density read in
  kinetic energy density of atom read in
  atomic valenz-charges read in
  non local Contribution for L=           0  read in
    real space projection operators read in
  non local Contribution for L=           0  read in
    real space projection operators read in
  non local Contribution for L=           1  read in
    real space projection operators read in
  non local Contribution for L=           1  read in
    real space projection operators read in
    PAW grid and wavefunctions read in
 
   number of l-projection  operators is LMAX  =           4
   number of lm-projection operators is LMMAX =           8
 
 -----------------------------------------------------------------------------
|                                                                             |
|               ----> ADVICE to this user running VASP <----                  |
|                                                                             |
|     You have a (more or less) 'large supercell' and for larger cells it     |
|     might be more efficient to use real-space projection operators.         |
|     Therefore, try LREAL= Auto in the INCAR file.                           |
|     Mind: For very accurate calculation, you might also keep the            |
|     reciprocal projection scheme (i.e. LREAL=.FALSE.).                      |
|                                                                             |
 -----------------------------------------------------------------------------

  PAW_PBE C 08Apr2002                   :
 energy of atom  1       EATOM= -147.1560
 kinetic energy error for atom=    0.0057 (will be added to EATOM!!)
  PAW_PBE O 08Apr2002                   :
 energy of atom  2       EATOM= -432.3788
 kinetic energy error for atom=    0.0168 (will be added to EATOM!!)
  PAW_PBE Mg_pv 13Apr2007               :
 energy of atom  3       EATOM=-1056.7344
 kinetic energy error for atom=    0.0221 (will be added to EATOM!!)
  PAW_PBE O 08Apr2002                   :
 energy of atom  4       EATOM= -432.3788
 kinetic energy error for atom=    0.0168 (will be added to EATOM!!)
 
 
 POSCAR:  C  O Mg  O
  positions in direct lattice
  No initial velocities read in
 exchange correlation table for  LEXCH =        8
   RHO(1)=    0.500       N(1)  =     2000
   RHO(2)=  100.500       N(2)  =     4000
 


--------------------------------------------------------------------------------------------------------


 ion  position               nearest neighbor table
   1  0.500  0.750  0.724-   3 1.26   2 1.26  56 1.47
   2  0.500  0.887  0.747-   1 1.26  26 2.17
   3  0.500  0.613  0.747-   1 1.26  34 2.17
   4  0.000  0.750  0.352-  36 2.11  38 2.11  39 2.11  46 2.11  55 2.11
   5  0.250  0.000  0.352-  37 2.11  38 2.11  39 2.11  47 2.11  54 2.11
   6  0.000  0.000  0.451-  42 2.11  38 2.11  36 2.11  37 2.11  44 2.11  53 2.11
   7  0.250  0.750  0.451-  39 2.11  37 2.11  36 2.11  45 2.11  52 2.11  43 2.13
   8  1.000  0.750  0.549-  36 2.10  50 2.11  42 2.11  59 2.13  43 2.13  40 2.14
   9  0.252  0.001  0.551-  58 2.09  51 2.10  41 2.11  43 2.12  42 2.13  37 2.14
  10  0.000  0.002  0.649-  48 2.09  41 2.10  57 2.10  42 2.12  40 2.13
  11  0.237  0.750  0.647-  40 2.00  43 2.08  49 2.10  41 2.10  56 2.22
  12  0.000  0.250  0.352-  44 2.11  38 2.11  46 2.11  47 2.11  63 2.11
  13  0.250  0.500  0.352-  45 2.11  39 2.11  46 2.11  47 2.11  62 2.11
  14  0.000  0.500  0.451-  50 2.11  46 2.11  45 2.11  36 2.11  44 2.11  61 2.11
  15  0.250  0.250  0.451-  47 2.11  44 2.11  45 2.11  37 2.11  60 2.11  51 2.12
  16  0.000  0.250  0.550-  44 2.11  51 2.11  67 2.11  50 2.11  42 2.11  48 2.14
  17  0.252  0.499  0.551-  66 2.09  51 2.10  49 2.11  43 2.12  50 2.13  45 2.14
  18  0.000  0.498  0.649-  48 2.09  49 2.10  65 2.10  50 2.12  40 2.13
  19  0.248  0.250  0.649-  48 2.09  51 2.11  49 2.12  41 2.12  64 2.13
  20  0.500  0.750  0.352-  52 2.11  39 2.11  54 2.11  55 2.11  62 2.11
  21  0.750  0.000  0.352-  53 2.11  38 2.11  54 2.11  55 2.11  63 2.11
  22  0.500  0.000  0.451-  54 2.11  52 2.11  53 2.11  37 2.11  60 2.11  58 2.15
  23  0.750  0.750  0.451-  55 2.11  52 2.11  53 2.11  36 2.11  61 2.11  59 2.13
  24  0.500  0.750  0.548-  52 2.07  59 2.09  43 2.09  66 2.09  58 2.09
  25  0.748  0.001  0.551-  58 2.09  67 2.10  57 2.11  59 2.12  42 2.13  53 2.14
  26  0.500  0.011  0.658-  64 2.02  41 2.14  57 2.14   2 2.17  56 2.21
  27  0.763  0.750  0.647-  40 2.00  59 2.08  65 2.10  57 2.10  56 2.22
  28  0.500  0.250  0.352-  60 2.11  54 2.11  47 2.11  62 2.11  63 2.11
  29  0.750  0.500  0.352-  61 2.11  55 2.11  46 2.11  62 2.11  63 2.11
  30  0.500  0.500  0.451-  62 2.11  52 2.11  60 2.11  61 2.11  45 2.11  66 2.15
  31  0.750  0.250  0.451-  63 2.11  53 2.11  60 2.11  61 2.11  44 2.11  67 2.12
  32  0.500  0.250  0.551-  51 2.11  67 2.11  66 2.13  58 2.13  64 2.14  60 2.15
  33  0.748  0.499  0.551-  66 2.09  67 2.10  65 2.11  59 2.12  50 2.13  61 2.14
  34  0.500  0.489  0.658-  64 2.02  49 2.14  65 2.14   3 2.17  56 2.21
  35  0.752  0.250  0.649-  48 2.09  67 2.11  65 2.12  57 2.12  64 2.13
  36  0.000  0.750  0.451-   8 2.10   4 2.11   7 2.11   6 2.11  14 2.11  23 2.11
  37  0.250  0.000  0.451-   5 2.11   6 2.11   7 2.11  15 2.11  22 2.11   9 2.14
  38  0.000  0.000  0.352-   6 2.11   5 2.11   4 2.11  12 2.11  21 2.11
  39  0.250  0.750  0.352-   7 2.11   5 2.11   4 2.11  13 2.11  20 2.11
  40  0.000  0.750  0.649-  11 2.00  27 2.00  10 2.13  18 2.13   8 2.14
  41  0.248  0.999  0.650-  10 2.10  11 2.10   9 2.11  19 2.12  26 2.14
  42  0.000  0.999  0.549-   8 2.11   6 2.11  16 2.11  10 2.12   9 2.13  25 2.13
  43  0.252  0.750  0.550-  11 2.08  24 2.09   9 2.12  17 2.12   7 2.13   8 2.13
  44  0.000  0.250  0.451-  12 2.11   6 2.11  14 2.11  15 2.11  31 2.11  16 2.11
  45  0.250  0.500  0.451-  13 2.11   7 2.11  14 2.11  15 2.11  30 2.11  17 2.14
  46  0.000  0.500  0.352-  14 2.11  12 2.11  13 2.11   4 2.11  29 2.11
  47  0.250  0.250  0.352-  15 2.11  12 2.11  13 2.11   5 2.11  28 2.11
  48  0.000  0.250  0.650-  19 2.09  35 2.09  10 2.09  18 2.09  16 2.14
  49  0.248  0.501  0.650-  18 2.10  11 2.10  17 2.11  19 2.12  34 2.14
  50  0.000  0.501  0.549-   8 2.11  14 2.11  16 2.11  18 2.12  17 2.13  33 2.13
  51  0.251  0.250  0.550-   9 2.10  17 2.10  32 2.11  19 2.11  16 2.11  15 2.12
  52  0.500  0.750  0.451-  24 2.07  20 2.11  22 2.11  23 2.11   7 2.11  30 2.11
  53  0.750  0.000  0.451-  21 2.11   6 2.11  22 2.11  23 2.11  31 2.11  25 2.14
  54  0.500  0.000  0.352-  22 2.11  20 2.11  21 2.11   5 2.11  28 2.11
  55  0.750  0.750  0.352-  23 2.11  20 2.11  21 2.11   4 2.11  29 2.11
  56  0.500  0.750  0.655-   1 1.47  26 2.21  34 2.21  11 2.22  27 2.22
  57  0.752  0.999  0.650-  10 2.10  27 2.10  25 2.11  35 2.12  26 2.14
  58  0.500  0.998  0.551-  24 2.09   9 2.09  25 2.09  32 2.13  22 2.15
  59  0.748  0.750  0.550-  27 2.08  24 2.09  25 2.12  33 2.12  23 2.13   8 2.13
  60  0.500  0.250  0.451-  28 2.11  22 2.11  15 2.11  30 2.11  31 2.11  32 2.15
  61  0.750  0.500  0.451-  29 2.11  23 2.11  14 2.11  30 2.11  31 2.11  33 2.14
  62  0.500  0.500  0.352-  30 2.11  20 2.11  28 2.11  29 2.11  13 2.11
  63  0.750  0.250  0.352-  31 2.11  21 2.11  28 2.11  29 2.11  12 2.11
  64  0.500  0.250  0.652-  26 2.02  34 2.02  35 2.13  19 2.13  32 2.14
  65  0.752  0.501  0.650-  18 2.10  27 2.10  33 2.11  35 2.12  34 2.14
  66  0.500  0.502  0.551-  24 2.09  17 2.09  33 2.09  32 2.13  30 2.15
  67  0.749  0.250  0.550-  25 2.10  33 2.10  32 2.11  35 2.11  16 2.11  31 2.12
 
  LATTYP: Found a simple tetragonal cell.
 ALAT       =     8.4409846542
 C/A-ratio  =     2.5270438657
  
  Lattice vectors:
  
 A1 = (   8.4409846542,   0.0000000000,   0.0000000000)
 A2 = (   0.0000000000,   8.4409846542,   0.0000000000)
 A3 = (   0.0000000000,   0.0000000000,  21.3307384906)


Analysis of symmetry for initial positions (statically):
=====================================================================
 Subroutine PRICEL returns:
 Original cell was already a primitive cell.
 

 Routine SETGRP: Setting up the symmetry group for a 
 simple tetragonal supercell.


 Subroutine GETGRP returns: Found  2 space group operations
 (whereof  2 operations were pure point group operations)
 out of a pool of 16 trial point group operations.


The static configuration has the point symmetry C_1h.


Analysis of symmetry for dynamics (positions and initial velocities):
=====================================================================
 Subroutine PRICEL returns:
 Original cell was already a primitive cell.
 

 Routine SETGRP: Setting up the symmetry group for a 
 simple tetragonal supercell.


 Subroutine GETGRP returns: Found  2 space group operations
 (whereof  2 operations were pure point group operations)
 out of a pool of 16 trial point group operations.


The dynamic configuration has the point symmetry C_1h.


Analysis of constrained symmetry for selective dynamics:
=====================================================================
 Subroutine PRICEL returns:
 Original cell was already a primitive cell.
 

 Routine SETGRP: Setting up the symmetry group for a 
 simple tetragonal supercell.


 Subroutine GETGRP returns: Found  2 space group operations
 (whereof  2 operations were pure point group operations)
 out of a pool of 16 trial point group operations.


The constrained configuration has the point symmetry C_1h.


 Subroutine INISYM returns: Found  2 space group operations
 (whereof  2 operations are pure point group operations),
 and found     1 'primitive' translations


----------------------------------------------------------------------------------------

                                     Primitive cell                                     

  volume of cell :    1519.8199

  direct lattice vectors                    reciprocal lattice vectors
     8.440984654  0.000000000  0.000000000     0.118469591  0.000000000  0.000000000
     0.000000000  8.440984654  0.000000000     0.000000000  0.118469591  0.000000000
     0.000000000  0.000000000 21.330738491     0.000000000  0.000000000  0.046880702

  length of vectors
     8.440984654  8.440984654 21.330738491     0.118469591  0.118469591  0.046880702

  position of ions in fractional coordinates (direct lattice)
     0.499999999  0.749992575  0.723945469
     0.500000054  0.886923811  0.747131544
     0.500000003  0.613085469  0.747130390
     0.000000000  0.750000000  0.351605267
     0.250000000  0.000000000  0.351605267
     0.000000000  0.000000000  0.450535089
     0.250000000  0.750000000  0.450535089
     0.999999975  0.749999946  0.548865087
     0.252039878  0.000756628  0.550788885
     0.000000022  0.002311195  0.648546918
     0.237174188  0.749999934  0.647363126
     0.000000000  0.250000000  0.351605267
     0.250000000  0.500000000  0.351605267
     0.000000000  0.500000000  0.450535089
     0.250000000  0.250000000  0.450535089
     0.000000013  0.249999998  0.549624541
     0.252039900  0.499243377  0.550788959
     0.000000021  0.497688821  0.648546972
     0.247666318  0.250000068  0.648931672
     0.500000000  0.750000000  0.351605267
     0.750000000  0.000000000  0.351605267
     0.500000000  0.000000000  0.450535089
     0.750000000  0.750000000  0.450535089
     0.500000019  0.750000015  0.547754495
     0.747960121  0.000756607  0.550788926
     0.499999989  0.011207993  0.658121991
     0.762825847  0.749999939  0.647363220
     0.500000000  0.250000000  0.351605267
     0.750000000  0.500000000  0.351605267
     0.500000000  0.500000000  0.450535089
     0.750000000  0.250000000  0.450535089
     0.499999992  0.250000035  0.551140650
     0.747960100  0.499243403  0.550789001
     0.499999989  0.488792575  0.658122307
     0.752333689  0.250000066  0.648931633
     0.000000000  0.750000000  0.450535089
     0.250000000  0.000000000  0.450535089
     0.000000000  0.000000000  0.351605267
     0.250000000  0.750000000  0.351605267
     0.000000022  0.750000036  0.649408351
     0.248158655  0.998502614  0.649732587
     0.000000003  0.999457034  0.549345342
     0.252314547  0.750000035  0.550267426
     0.000000000  0.250000000  0.450535089
     0.250000000  0.500000000  0.450535089
     0.000000000  0.500000000  0.351605267
     0.250000000  0.250000000  0.351605267
     0.000000004  0.249999984  0.650138735
     0.248158633  0.501497394  0.649732528
     0.000000002  0.500542928  0.549345336
     0.250533587  0.249999977  0.549905895
     0.500000000  0.750000000  0.450535089
     0.750000000  0.000000000  0.450535089
     0.500000000  0.000000000  0.351605267
     0.750000000  0.750000000  0.351605267
     0.499999960  0.750000818  0.655054079
     0.751841360  0.998502595  0.649732592
     0.499999996  0.997699832  0.551095612
     0.747685455  0.750000036  0.550267463
     0.500000000  0.250000000  0.450535089
     0.750000000  0.500000000  0.450535089
     0.500000000  0.500000000  0.351605267
     0.750000000  0.250000000  0.351605267
     0.500000007  0.249999918  0.651663796
     0.751841378  0.501497418  0.649732540
     0.499999996  0.502300219  0.551095607
     0.749466420  0.249999975  0.549905909

  ion indices of the primitive-cell ions
   primitive index   ion index
                 1           1
                 2           2
                 3           3
                 4           4
                 5           5
                 6           6
                 7           7
                 8           8
                 9           9
                10          10
                11          11
                12          12
                13          13
                14          14
                15          15
                16          16
                17          17
                18          18
                19          19
                20          20
                21          21
                22          22
                23          23
                24          24
                25          25
                26          26
                27          27
                28          28
                29          29
                30          30
                31          31
                32          32
                33          33
                34          34
                35          35
                36          36
                37          37
                38          38
                39          39
                40          40
                41          41
                42          42
                43          43
                44          44
                45          45
                46          46
                47          47
                48          48
                49          49
                50          50
                51          51
                52          52
                53          53
                54          54
                55          55
                56          56
                57          57
                58          58
                59          59
                60          60
                61          61
                62          62
                63          63
                64          64
                65          65
                66          66
                67          67

----------------------------------------------------------------------------------------

 
 
 KPOINTS: pymatgen v2020.8.13 with grid density = 

Automatic generation of k-mesh.
 Grid dimensions read from file:
 generate k-points for:    8    8    1

 Generating k-lattice:

  Cartesian coordinates                     Fractional coordinates (reciprocal lattice)
     0.014808699  0.000000000  0.000000000     0.125000000  0.000000000  0.000000000
     0.000000000  0.014808699  0.000000000     0.000000000  0.125000000  0.000000000
     0.000000000  0.000000000  0.046880702     0.000000000  0.000000000  1.000000000

  Length of vectors
     0.014808699  0.014808699  0.046880702

  Shift w.r.t. Gamma in fractional coordinates (k-lattice)
     0.000000000  0.000000000  0.000000000

 
 Subroutine IBZKPT returns following result:
 ===========================================
 
 Found     25 irreducible k-points:
 
 Following reciprocal coordinates:
            Coordinates               Weight
  0.000000  0.000000  0.000000      1.000000
  0.125000  0.000000  0.000000      2.000000
  0.000000  0.125000  0.000000      2.000000
  0.250000  0.000000  0.000000      2.000000
  0.000000  0.250000  0.000000      2.000000
  0.375000  0.000000  0.000000      2.000000
  0.000000  0.375000  0.000000      2.000000
  0.500000  0.000000  0.000000      1.000000
  0.000000  0.500000  0.000000      1.000000
  0.125000  0.125000  0.000000      4.000000
  0.250000  0.125000  0.000000      4.000000
 -0.125000  0.250000  0.000000      4.000000
  0.375000  0.125000  0.000000      4.000000
 -0.125000  0.375000  0.000000      4.000000
  0.500000  0.125000  0.000000      2.000000
 -0.125000  0.500000  0.000000      2.000000
  0.250000  0.250000  0.000000      4.000000
  0.375000  0.250000  0.000000      4.000000
 -0.250000  0.375000  0.000000      4.000000
  0.500000  0.250000  0.000000      2.000000
 -0.250000  0.500000  0.000000      2.000000
  0.375000  0.375000  0.000000      4.000000
  0.500000  0.375000  0.000000      2.000000
 -0.375000  0.500000  0.000000      2.000000
  0.500000  0.500000  0.000000      1.000000
 
 Following cartesian coordinates:
            Coordinates               Weight
  0.000000  0.000000  0.000000      1.000000
  0.014809  0.000000  0.000000      2.000000
  0.000000  0.014809  0.000000      2.000000
  0.029617  0.000000  0.000000      2.000000
  0.000000  0.029617  0.000000      2.000000
  0.044426  0.000000  0.000000      2.000000
  0.000000  0.044426  0.000000      2.000000
  0.059235  0.000000  0.000000      1.000000
  0.000000  0.059235  0.000000      1.000000
  0.014809  0.014809  0.000000      4.000000
  0.029617  0.014809  0.000000      4.000000
 -0.014809  0.029617  0.000000      4.000000
  0.044426  0.014809  0.000000      4.000000
 -0.014809  0.044426  0.000000      4.000000
  0.059235  0.014809  0.000000      2.000000
 -0.014809  0.059235  0.000000      2.000000
  0.029617  0.029617  0.000000      4.000000
  0.044426  0.029617  0.000000      4.000000
 -0.029617  0.044426  0.000000      4.000000
  0.059235  0.029617  0.000000      2.000000
 -0.029617  0.059235  0.000000      2.000000
  0.044426  0.044426  0.000000      4.000000
  0.059235  0.044426  0.000000      2.000000
 -0.044426  0.059235  0.000000      2.000000
  0.059235  0.059235  0.000000      1.000000
 


--------------------------------------------------------------------------------------------------------




 Dimension of arrays:
   k-points           NKPTS =     25   k-points in BZ     NKDIM =     25   number of bands    NBANDS=    288
   number of dos      NEDOS =    301   number of ions     NIONS =     67
   non local maximal  LDIM  =      5   non local SUM 2l+1 LMDIM =     13
   total plane-waves  NPLWV = 882000
   max r-space proj   IRMAX =      1   max aug-charges    IRDMAX=  11635
   dimension x,y,z NGX =    70 NGY =   70 NGZ =  180
   dimension x,y,z NGXF=   140 NGYF=  140 NGZF=  360
   support grid    NGXF=   140 NGYF=  140 NGZF=  360
   ions per type =               1   2  32  32
   NGX,Y,Z   is equivalent  to a cutoff of  13.79, 13.79, 14.03 a.u.
   NGXF,Y,Z  is equivalent  to a cutoff of  27.57, 27.57, 28.06 a.u.

 SYSTEM =  Oxide-Surface                           
 POSCAR =   C  O Mg  O                             

--------------------------------------------------------------------------------------------------------


  energy-cutoff  :      600.00
  volume of cell :     1519.82
      direct lattice vectors                 reciprocal lattice vectors
     8.440984654  0.000000000  0.000000000     0.118469591  0.000000000  0.000000000
     0.000000000  8.440984654  0.000000000     0.000000000  0.118469591  0.000000000
     0.000000000  0.000000000 21.330738491     0.000000000  0.000000000  0.046880702

  length of vectors
     8.440984654  8.440984654 21.330738491     0.118469591  0.118469591  0.046880702


 
 k-points in units of 2pi/SCALE and weight: pymatgen v2020.8.13 with grid density = 
   0.00000000  0.00000000  0.00000000       0.016
   0.01480870  0.00000000  0.00000000       0.031
   0.00000000  0.01480870  0.00000000       0.031
   0.02961740  0.00000000  0.00000000       0.031
   0.00000000  0.02961740  0.00000000       0.031
   0.04442610  0.00000000  0.00000000       0.031
   0.00000000  0.04442610  0.00000000       0.031
   0.05923480  0.00000000  0.00000000       0.016
   0.00000000  0.05923480  0.00000000       0.016
   0.01480870  0.01480870  0.00000000       0.062
   0.02961740  0.01480870  0.00000000       0.062
  -0.01480870  0.02961740  0.00000000       0.062
   0.04442610  0.01480870  0.00000000       0.062
  -0.01480870  0.04442610  0.00000000       0.062
   0.05923480  0.01480870  0.00000000       0.031
  -0.01480870  0.05923480  0.00000000       0.031
   0.02961740  0.02961740  0.00000000       0.062
   0.04442610  0.02961740  0.00000000       0.062
  -0.02961740  0.04442610  0.00000000       0.062
   0.05923480  0.02961740  0.00000000       0.031
  -0.02961740  0.05923480  0.00000000       0.031
   0.04442610  0.04442610  0.00000000       0.062
   0.05923480  0.04442610  0.00000000       0.031
  -0.04442610  0.05923480  0.00000000       0.031
   0.05923480  0.05923480  0.00000000       0.016
 
 k-points in reciprocal lattice and weights: pymatgen v2020.8.13 with grid density = 
   0.00000000  0.00000000  0.00000000       0.016
   0.12500000  0.00000000  0.00000000       0.031
   0.00000000  0.12500000  0.00000000       0.031
   0.25000000  0.00000000  0.00000000       0.031
   0.00000000  0.25000000  0.00000000       0.031
   0.37500000  0.00000000  0.00000000       0.031
   0.00000000  0.37500000  0.00000000       0.031
   0.50000000  0.00000000  0.00000000       0.016
   0.00000000  0.50000000  0.00000000       0.016
   0.12500000  0.12500000  0.00000000       0.062
   0.25000000  0.12500000  0.00000000       0.062
  -0.12500000  0.25000000  0.00000000       0.062
   0.37500000  0.12500000  0.00000000       0.062
  -0.12500000  0.37500000  0.00000000       0.062
   0.50000000  0.12500000  0.00000000       0.031
  -0.12500000  0.50000000  0.00000000       0.031
   0.25000000  0.25000000  0.00000000       0.062
   0.37500000  0.25000000  0.00000000       0.062
  -0.25000000  0.37500000  0.00000000       0.062
   0.50000000  0.25000000  0.00000000       0.031
  -0.25000000  0.50000000  0.00000000       0.031
   0.37500000  0.37500000  0.00000000       0.062
   0.50000000  0.37500000  0.00000000       0.031
  -0.37500000  0.50000000  0.00000000       0.031
   0.50000000  0.50000000  0.00000000       0.016
 
 position of ions in fractional coordinates (direct lattice) 
   0.50000000  0.74999258  0.72394547
   0.50000005  0.88692381  0.74713154
   0.50000000  0.61308547  0.74713039
   0.00000000  0.75000000  0.35160527
   0.25000000  0.00000000  0.35160527
   0.00000000  0.00000000  0.45053509
   0.25000000  0.75000000  0.45053509
   0.99999998  0.74999995  0.54886509
   0.25203988  0.00075663  0.55078888
   0.00000002  0.00231120  0.64854692
   0.23717419  0.74999993  0.64736313
   0.00000000  0.25000000  0.35160527
   0.25000000  0.50000000  0.35160527
   0.00000000  0.50000000  0.45053509
   0.25000000  0.25000000  0.45053509
   0.00000001  0.25000000  0.54962454
   0.25203990  0.49924338  0.55078896
   0.00000002  0.49768882  0.64854697
   0.24766632  0.25000007  0.64893167
   0.50000000  0.75000000  0.35160527
   0.75000000  0.00000000  0.35160527
   0.50000000  0.00000000  0.45053509
   0.75000000  0.75000000  0.45053509
   0.50000002  0.75000002  0.54775450
   0.74796012  0.00075661  0.55078893
   0.49999999  0.01120799  0.65812199
   0.76282585  0.74999994  0.64736322
   0.50000000  0.25000000  0.35160527
   0.75000000  0.50000000  0.35160527
   0.50000000  0.50000000  0.45053509
   0.75000000  0.25000000  0.45053509
   0.49999999  0.25000003  0.55114065
   0.74796010  0.49924340  0.55078900
   0.49999999  0.48879258  0.65812231
   0.75233369  0.25000007  0.64893163
   0.00000000  0.75000000  0.45053509
   0.25000000  0.00000000  0.45053509
   0.00000000  0.00000000  0.35160527
   0.25000000  0.75000000  0.35160527
   0.00000002  0.75000004  0.64940835
   0.24815866  0.99850261  0.64973259
   0.00000000  0.99945703  0.54934534
   0.25231455  0.75000004  0.55026743
   0.00000000  0.25000000  0.45053509
   0.25000000  0.50000000  0.45053509
   0.00000000  0.50000000  0.35160527
   0.25000000  0.25000000  0.35160527
   0.00000000  0.24999998  0.65013873
   0.24815863  0.50149739  0.64973253
   0.00000000  0.50054293  0.54934534
   0.25053359  0.24999998  0.54990590
   0.50000000  0.75000000  0.45053509
   0.75000000  0.00000000  0.45053509
   0.50000000  0.00000000  0.35160527
   0.75000000  0.75000000  0.35160527
   0.49999996  0.75000082  0.65505408
   0.75184136  0.99850259  0.64973259
   0.50000000  0.99769983  0.55109561
   0.74768545  0.75000004  0.55026746
   0.50000000  0.25000000  0.45053509
   0.75000000  0.50000000  0.45053509
   0.50000000  0.50000000  0.35160527
   0.75000000  0.25000000  0.35160527
   0.50000001  0.24999992  0.65166380
   0.75184138  0.50149742  0.64973254
   0.50000000  0.50230022  0.55109561
   0.74946642  0.24999998  0.54990591
 
 position of ions in cartesian coordinates  (Angst):
   4.22049232  6.33067582 15.44229149
   4.22049278  7.48651027 15.93686758
   4.22049235  5.17504504 15.93684297
   0.00000000  6.33073849  7.50000000
   2.11024616  0.00000000  7.50000000
   0.00000000  0.00000000  9.61024616
   2.11024616  6.33073849  9.61024616
   8.44098444  6.33073804 11.70769764
   2.12746474  0.00638669 11.74873367
   0.00000019  0.01950876 13.83398470
   2.00198368  6.33073794 13.80873355
   0.00000000  2.11024616  7.50000000
   2.11024616  4.22049233  7.50000000
   0.00000000  4.22049233  9.61024616
   2.11024616  2.11024616  9.61024616
   0.00000011  2.11024615 11.72389735
   2.12746493  4.21410568 11.74873525
   0.00000018  4.20098370 13.83398587
   2.09054759  2.11024674 13.84219179
   4.22049233  6.33073849  7.50000000
   6.33073849  0.00000000  7.50000000
   4.22049233  0.00000000  9.61024616
   6.33073849  6.33073849  9.61024616
   4.22049249  6.33073862 11.68400790
   6.31351991  0.00638650 11.74873453
   4.22049223  0.09460649 14.03822808
   6.43900126  6.33073797 13.80873555
   4.22049233  2.11024616  7.50000000
   6.33073849  4.22049233  7.50000000
   4.22049233  4.22049233  9.61024616
   6.33073849  2.11024616  9.61024616
   4.22049226  2.11024646 11.75623708
   6.31351973  4.21410590 11.74873614
   4.22049223  4.12589063 14.03823482
   6.35043712  2.11024672 13.84219097
   0.00000000  6.33073849  9.61024616
   2.11024616  0.00000000  9.61024616
   0.00000000  0.00000000  7.50000000
   2.11024616  6.33073849  7.50000000
   0.00000018  6.33073879 13.85235970
   2.09470340  8.42834524 13.85927591
   0.00000002  8.43640149 11.71794183
   2.12978322  6.33073879 11.73761057
   0.00000000  2.11024616  9.61024616
   2.11024616  4.22049233  9.61024616
   0.00000000  4.22049233  7.50000000
   2.11024616  2.11024616  7.50000000
   0.00000003  2.11024603 13.86793934
   2.09470322  4.23313180 13.85927465
   0.00000001  4.22507517 11.71794171
   2.11475016  2.11024597 11.72989885
   4.22049233  6.33073849  9.61024616
   6.33073849  0.00000000  9.61024616
   4.22049233  0.00000000  7.50000000
   6.33073849  6.33073849  7.50000000
   4.22049199  6.33074540 13.97278725
   6.34628139  8.42834508 13.85927601
   4.22049229  8.42156897 11.75527639
   6.31120145  6.33073879 11.73761136
   4.22049233  2.11024616  9.61024616
   6.33073849  4.22049233  9.61024616
   4.22049233  4.22049233  7.50000000
   6.33073849  2.11024616  7.50000000
   4.22049238  2.11024547 13.90047003
   6.34628153  4.23313201 13.85927490
   4.22049229  4.23990844 11.75527627
   6.32623455  2.11024596 11.72989914
 


--------------------------------------------------------------------------------------------------------

--------------------------------------- Iteration      FINAL  ---------------------------------------


--------------------OUTCAR has been truncated-------------------------


--------------------OUTCAR has been truncated-------------------------


--------------------OUTCAR has been truncated-------------------------


--------------------OUTCAR has been truncated-------------------------


--------------------OUTCAR has been truncated-------------------------


--------------------OUTCAR has been truncated-------------------------


--------------------OUTCAR has been truncated-------------------------


--------------------OUTCAR has been truncated-------------------------


--------------------OUTCAR has been truncated-------------------------


--------------------OUTCAR has been truncated-------------------------


  Hirshfeld charges:
            ion         q(e)     
   ------------------------------
      1     C           0.211
      2     O          -0.229
      3     O          -0.228
      4     Mg          0.410
      5     Mg          0.409
      6     Mg          0.327
      7     Mg          0.330
      8     Mg          0.334
      9     Mg          0.325
     10     Mg          0.423
     11     Mg          0.414
     12     Mg          0.410
     13     Mg          0.409
     14     Mg          0.327
     15     Mg          0.328
     16     Mg          0.333
     17     Mg          0.325
     18     Mg          0.423
     19     Mg          0.434
     20     Mg          0.410
     21     Mg          0.409
     22     Mg          0.328
     23     Mg          0.330
     24     Mg          0.350
     25     Mg          0.325
     26     Mg          0.376
     27     Mg          0.414
     28     Mg          0.409
     29     Mg          0.409
     30     Mg          0.328
     31     Mg          0.328
     32     Mg          0.336
     33     Mg          0.325
     34     Mg          0.376
     35     Mg          0.434
     36     O          -0.338
     37     O          -0.338
     38     O          -0.400
     39     O          -0.400
     40     O          -0.397
     41     O          -0.400
     42     O          -0.338
     43     O          -0.339
     44     O          -0.338
     45     O          -0.338
     46     O          -0.400
     47     O          -0.400
     48     O          -0.397
     49     O          -0.400
     50     O          -0.338
     51     O          -0.337
     52     O          -0.338
     53     O          -0.338
     54     O          -0.400
     55     O          -0.400
     56     O          -0.195
     57     O          -0.400
     58     O          -0.344
     59     O          -0.339
     60     O          -0.338
     61     O          -0.338
     62     O          -0.400
     63     O          -0.400
     64     O          -0.392
     65     O          -0.400
     66     O          -0.344
     67     O          -0.337

  Hirshfeld-I charges:
            ion         q(e)        dq(e)    
   ------------------------------------------
      1     C           0.525      0.388E-06
      2     O          -0.495     -0.550E-07
      3     O          -0.495     -0.551E-07
      4     Mg          0.961      0.190E-06
      5     Mg          0.956     -0.990E-06
      6     Mg          0.840     -0.549E-05
      7     Mg          0.841      0.737E-05
      8     Mg          0.834      0.390E-04
      9     Mg          0.749     -0.435E-04
     10     Mg          0.995      0.239E-05
     11     Mg          1.044     -0.351E-06
     12     Mg          0.956     -0.181E-05
     13     Mg          0.956     -0.990E-06
     14     Mg          0.840     -0.549E-05
     15     Mg          0.856      0.142E-04
     16     Mg          0.830      0.345E-04
     17     Mg          0.749     -0.435E-04
     18     Mg          0.995      0.239E-05
     19     Mg          1.028      0.298E-06
     20     Mg          0.968      0.273E-05
     21     Mg          0.956     -0.990E-06
     22     Mg          0.804     -0.137E-04
     23     Mg          0.841      0.737E-05
     24     Mg          0.981      0.497E-04
     25     Mg          0.749     -0.435E-04
     26     Mg          0.992     -0.262E-06
     27     Mg          1.044     -0.351E-06
     28     Mg          0.962      0.758E-06
     29     Mg          0.956     -0.990E-06
     30     Mg          0.804     -0.137E-04
     31     Mg          0.856      0.142E-04
     32     Mg          0.855      0.438E-04
     33     Mg          0.749     -0.435E-04
     34     Mg          0.992     -0.261E-06
     35     Mg          1.028      0.298E-06
     36     O          -0.864     -0.341E-05
     37     O          -0.856      0.304E-05
     38     O          -0.929      0.742E-06
     39     O          -0.930     -0.640E-06
     40     O          -0.959     -0.333E-05
     41     O          -0.941      0.330E-05
     42     O          -0.853      0.124E-05
     43     O          -0.871     -0.799E-06
     44     O          -0.866     -0.407E-05
     45     O          -0.856      0.304E-05
     46     O          -0.929      0.742E-06
     47     O          -0.931     -0.863E-06
     48     O          -0.949     -0.309E-05
     49     O          -0.941      0.330E-05
     50     O          -0.853      0.124E-05
     51     O          -0.858     -0.310E-06
     52     O          -0.873     -0.321E-05
     53     O          -0.856      0.304E-05
     54     O          -0.927      0.972E-06
     55     O          -0.930     -0.640E-06
     56     O          -0.670     -0.325E-05
     57     O          -0.941      0.330E-05
     58     O          -0.862      0.534E-06
     59     O          -0.871     -0.799E-06
     60     O          -0.861     -0.339E-05
     61     O          -0.856      0.304E-05
     62     O          -0.927      0.971E-06
     63     O          -0.931     -0.863E-06
     64     O          -0.945     -0.338E-05
     65     O          -0.941      0.330E-05
     66     O          -0.862      0.534E-06
     67     O          -0.858     -0.310E-06

   Hirshfeld-I converged in  66 cycles. Convergence criterion |dq|< 0.500E-04 e

  Tkatchenko/Scheffler method for vdW energy calculation
  ---------------------------------------------------------------------------------------------

  Parameters of vdW forcefield:
            C6ts              R0ts          ALPHAts         R0scs        ALPHAscs        RELVOL 
            (au)              (au)           (au)            (au)          (au)                 
   ---------------------------------------------------------------------------------------------
   C          25.754          3.206          8.327          3.048          7.159          0.976
   O          17.943          3.215          5.306          3.118          4.838          1.002
   O          17.941          3.215          5.306          3.118          4.837          1.002
   Mg        181.826          3.458         37.907          3.347         34.386          1.041
   Mg        183.644          3.464         38.102          3.358         34.714          1.041
   Mg        225.410          3.587         42.331          3.166         29.109          1.037
   Mg        225.581          3.588         42.346          3.181         29.529          1.038
   Mg        228.322          3.595         42.609          3.213         30.429          1.038
   Mg        263.244          3.683         45.828          3.319         33.538          1.038
   Mg        165.852          3.404         36.169          3.302         33.014          1.028
   Mg        149.288          3.344         34.288          3.205         30.189          1.024
   Mg        183.422          3.463         38.078          3.356         34.651          1.041
   Mg        183.645          3.464         38.102          3.358         34.714          1.041
   Mg        225.409          3.587         42.331          3.166         29.109          1.037
   Mg        219.240          3.570         41.733          3.152         28.728          1.037
   Mg        229.899          3.599         42.760          3.214         30.437          1.038
   Mg        263.244          3.683         45.828          3.319         33.538          1.038
   Mg        165.852          3.404         36.169          3.302         33.014          1.028
   Mg        153.748          3.361         34.805          3.230         30.898          1.023
   Mg        179.590          3.450         37.667          3.337         34.062          1.041
   Mg        183.644          3.464         38.102          3.358         34.714          1.041
   Mg        240.360          3.627         43.745          3.220         30.617          1.038
   Mg        225.582          3.588         42.346          3.181         29.529          1.038
   Mg        173.408          3.430         36.999          3.113         27.656          1.037
   Mg        263.244          3.683         45.828          3.319         33.538          1.038
   Mg        166.610          3.407         36.255          3.330         33.855          1.027
   Mg        149.288          3.344         34.288          3.205         30.189          1.024
   Mg        181.405          3.456         37.862          3.342         34.240          1.041
   Mg        183.644          3.464         38.102          3.358         34.714          1.041
   Mg        240.359          3.627         43.745          3.220         30.617          1.038
   Mg        219.240          3.570         41.733          3.152         28.728          1.037
   Mg        220.076          3.573         41.814          3.226         30.774          1.038
   Mg        263.245          3.683         45.828          3.319         33.538          1.038
   Mg        166.594          3.407         36.253          3.330         33.854          1.027
   Mg        153.748          3.361         34.805          3.230         30.898          1.023
   O          20.874          3.285          5.662          2.274          1.878          1.054
   O          20.843          3.285          5.659          2.303          1.950          1.054
   O          22.315          3.320          5.843          2.776          3.417          1.085
   O          22.323          3.320          5.844          2.771          3.396          1.085
   O          22.189          3.316          5.822          2.738          3.277          1.080
   O          22.168          3.316          5.822          2.784          3.444          1.081
   O          20.839          3.285          5.659          2.296          1.933          1.054
   O          20.989          3.288          5.676          2.401          2.210          1.057
   O          20.914          3.286          5.667          2.297          1.936          1.055
   O          20.843          3.285          5.659          2.303          1.950          1.054
   O          22.315          3.320          5.843          2.776          3.417          1.085
   O          22.329          3.320          5.845          2.772          3.400          1.086
   O          22.289          3.319          5.836          2.787          3.457          1.083
   O          22.168          3.316          5.822          2.784          3.444          1.081
   O          20.839          3.285          5.659          2.296          1.933          1.054
   O          20.855          3.285          5.660          2.323          2.001          1.054
   O          20.994          3.288          5.677          2.207          1.717          1.057
   O          20.843          3.285          5.659          2.303          1.950          1.054
   O          22.296          3.320          5.841          2.781          3.434          1.085
   O          22.323          3.320          5.844          2.771          3.396          1.085
   O          19.368          3.251          5.485          2.791          3.472          1.029
   O          22.168          3.316          5.822          2.784          3.444          1.081
   O          21.024          3.289          5.682          2.437          2.310          1.058
   O          20.989          3.288          5.676          2.401          2.210          1.057
   O          20.896          3.286          5.665          2.254          1.827          1.055
   O          20.843          3.285          5.659          2.303          1.950          1.054
   O          22.296          3.320          5.841          2.781          3.434          1.085
   O          22.329          3.320          5.845          2.772          3.400          1.086
   O          21.866          3.308          5.781          2.735          3.267          1.073
   O          22.168          3.316          5.822          2.784          3.444          1.081
   O          21.024          3.289          5.682          2.437          2.310          1.058
   O          20.855          3.285          5.660          2.323          2.001          1.054

  vdW correction parametrized for the method pbe       

  IVDW = 263
  VDW_RADIUS =    50.000 A
  VDW_SR =     0.830
  VDW_D =     6.000
  SCSRAD =   120.000 A
  LVDWSCS = T
  LSCSGRAD = T
  LSCALER0 = T
  ITIM =  1
  Edisp (eV):  -17.86858
    FORVDW:  cpu time    234.9955: real time    238.3872

  FORCE on cell =-STRESS in cart. coord.  units (eV):
  Direction    XX          YY          ZZ          XY          YZ          ZX
  --------------------------------------------------------------------------------------
  Alpha Z   926.92928   926.92928   926.92928
  Ewald  159889.86787160762.13617************     0.00011    -0.02788     0.00004
  Hartree170377.83313170884.36852************     0.00001    -0.00124    -0.00005
  E(xc)   -2533.34714 -2531.59026 -2537.04648    -0.00000    -0.00010    -0.00000
  Local  ************************340285.31006    -0.00008     0.02233     0.00006
  n-local -2861.51596 -2865.89063 -2885.73993     0.02701     0.00100     0.00001
  augment  1060.63264  1059.43705  1052.61798    -0.00000     0.00003    -0.00000
  Kinetic  7647.34160  7608.10842  7678.03997    -0.27712     0.00197    -0.00001
  Fock        0.00000     0.00000     0.00000     0.00000     0.00000     0.00000
  vdW       -23.42983   -23.40555   -16.42954    -0.03090    -0.00001    -0.00000
  -------------------------------------------------------------------------------------
  Total     -38.09447   -40.47068   -12.47571     0.00000    -0.00390     0.00000
  in kB     -40.15877   -42.66374   -13.15176     0.00000    -0.00411     0.00000
  external pressure =      -31.99 kB  Pullay stress =        0.00 kB


 VOLUME and BASIS-vectors are now :
 -----------------------------------------------------------------------------
  energy-cutoff  :      600.00
  volume of cell :     1519.82
      direct lattice vectors                 reciprocal lattice vectors
     8.440984654  0.000000000  0.000000000     0.118469591  0.000000000  0.000000000
     0.000000000  8.440984654  0.000000000     0.000000000  0.118469591  0.000000000
     0.000000000  0.000000000 21.330738491     0.000000000  0.000000000  0.046880702

  length of vectors
     8.440984654  8.440984654 21.330738491     0.118469591  0.118469591  0.046880702


 FORCES acting on ions:
    Electron-Ion                     Ewald-Force                    Non-Local-Force
 -----------------------------------------------------------------------------------------------
   0.360E-04 -.473E-01 -.110E+04   -.106E-03 0.576E-01 0.110E+04   -.363E-23 -.674E-03 -.225E+01
   -.694E-03 -.223E+03 -.180E+04   0.793E-04 0.265E+03 0.182E+04   -.574E-20 -.426E+02 -.273E+02
   -.145E-04 0.223E+03 -.180E+04   -.423E-04 -.265E+03 0.182E+04   0.111E-19 0.426E+02 -.273E+02
   0.506E-05 0.205E-04 0.210E+04   -.147E-04 -.179E-04 -.209E+04   -.262E-21 -.581E-06 -.696E+01
   0.434E-01 -.778E+00 0.210E+04   -.437E-01 0.814E+00 -.209E+04   -.233E-03 -.255E-01 -.708E+01
   0.281E-04 -.253E+01 0.749E+03   -.683E-04 0.268E+01 -.750E+03   -.146E-20 -.106E+00 0.176E+00
   0.265E+01 0.106E-03 0.751E+03   -.270E+01 -.108E-03 -.751E+03   0.213E-01 -.154E-05 0.820E+00
   0.803E-04 0.306E-04 -.572E+03   -.331E-04 0.323E-04 0.572E+03   -.967E-22 -.462E-04 0.855E-01
   0.565E+01 -.861E+01 -.591E+03   -.509E+01 0.882E+01 0.593E+03   -.570E+00 -.215E+00 -.123E+01
   -.481E-04 -.183E+02 -.197E+04   0.916E-06 0.191E+02 0.197E+04   0.316E-20 -.739E+00 0.611E+01
   0.498E+02 -.345E-03 -.188E+04   -.553E+02 0.842E-03 0.188E+04   0.550E+01 -.337E-03 0.687E+01
   0.596E-05 -.176E-04 0.210E+04   -.148E-04 0.184E-04 -.209E+04   0.344E-22 0.739E-05 -.706E+01
   0.434E-01 0.778E+00 0.210E+04   -.437E-01 -.814E+00 -.209E+04   -.235E-03 0.255E-01 -.708E+01
   0.289E-04 0.253E+01 0.749E+03   -.703E-04 -.268E+01 -.750E+03   -.280E-22 0.106E+00 0.176E+00
   -.104E+01 -.109E-03 0.747E+03   0.112E+01 0.112E-03 -.747E+03   -.572E-01 0.436E-05 0.464E+00
   -.159E-04 -.821E-04 -.595E+03   -.442E-04 0.238E-04 0.596E+03   0.151E-20 0.373E-04 -.158E+00
   0.565E+01 0.861E+01 -.591E+03   -.509E+01 -.882E+01 0.593E+03   -.570E+00 0.215E+00 -.123E+01
   -.436E-04 0.183E+02 -.197E+04   -.106E-04 -.191E+02 0.197E+04   -.133E-19 0.739E+00 0.611E+01
   0.293E+02 -.428E-03 -.196E+04   -.301E+02 0.568E-04 0.196E+04   0.804E+00 0.265E-03 0.622E+01
   -.512E-05 0.188E-04 0.210E+04   0.149E-04 -.213E-04 -.209E+04   0.390E-21 -.262E-07 -.691E+01
   -.434E-01 -.778E+00 0.210E+04   0.437E-01 0.814E+00 -.209E+04   0.233E-03 -.255E-01 -.708E+01
   -.287E-04 -.621E+01 0.746E+03   0.709E-04 0.648E+01 -.747E+03   0.400E-21 -.184E+00 0.663E+00
   -.265E+01 0.107E-03 0.751E+03   0.270E+01 -.110E-03 -.751E+03   -.213E-01 -.154E-05 0.820E+00
   -.664E-04 0.193E-03 -.572E+03   0.542E-04 -.202E-03 0.567E+03   -.176E-21 -.845E-05 0.472E+01
   -.565E+01 -.861E+01 -.591E+03   0.509E+01 0.882E+01 0.593E+03   0.570E+00 -.215E+00 -.123E+01
   0.382E-04 -.860E+02 -.189E+04   -.576E-05 0.891E+02 0.189E+04   -.646E-20 -.314E+01 0.138E+01
   -.498E+02 -.352E-03 -.188E+04   0.553E+02 0.827E-03 0.188E+04   -.550E+01 -.337E-03 0.687E+01
   -.595E-05 -.259E-04 0.210E+04   0.148E-04 0.214E-04 -.209E+04   -.758E-22 -.166E-05 -.709E+01
   -.434E-01 0.778E+00 0.210E+04   0.437E-01 -.814E+00 -.209E+04   0.235E-03 0.255E-01 -.708E+01
   -.298E-04 0.621E+01 0.746E+03   0.735E-04 -.648E+01 -.747E+03   -.473E-21 0.184E+00 0.663E+00
   0.104E+01 -.111E-03 0.747E+03   -.112E+01 0.116E-03 -.747E+03   0.572E-01 0.436E-05 0.464E+00
   0.561E-05 -.422E-03 -.598E+03   0.486E-04 0.386E-03 0.599E+03   -.144E-20 0.219E-04 -.499E+00
   -.565E+01 0.861E+01 -.591E+03   0.509E+01 -.882E+01 0.593E+03   0.570E+00 0.215E+00 -.123E+01
   0.355E-04 0.860E+02 -.189E+04   0.142E-04 -.891E+02 0.189E+04   -.186E-19 0.314E+01 0.138E+01
   -.293E+02 -.427E-03 -.196E+04   0.301E+02 0.781E-04 0.196E+04   -.804E+00 0.265E-03 0.622E+01
   0.101E-04 0.484E-04 0.565E+03   -.394E-04 -.310E-04 -.565E+03   -.689E-21 -.180E-04 0.313E+00
   0.322E+00 -.216E+01 0.560E+03   -.436E+00 0.225E+01 -.559E+03   0.151E+00 -.134E+00 -.331E+00
   0.435E-05 -.450E+00 0.158E+04   -.113E-04 0.484E+00 -.158E+04   0.108E-22 -.472E-01 0.347E+01
   0.201E+00 0.156E-04 0.158E+04   -.210E+00 -.157E-04 -.158E+04   0.128E-01 -.312E-05 0.354E+01
   -.228E-03 0.248E-04 -.149E+04   0.405E-04 0.136E-03 0.149E+04   -.324E-21 -.216E-03 -.515E+01
   0.379E+02 -.293E+02 -.145E+04   -.371E+02 0.295E+02 0.146E+04   -.852E+00 -.109E+00 -.515E+01
   -.980E-05 -.617E+01 -.437E+03   -.366E-04 0.624E+01 0.437E+03   -.523E-20 -.763E-01 0.540E-01
   0.390E+01 0.101E-03 -.431E+03   -.419E+01 -.329E-04 0.430E+03   0.288E+00 -.902E-04 0.830E+00
   0.194E-04 -.675E-04 0.561E+03   -.471E-04 0.463E-04 -.561E+03   -.831E-22 0.124E-04 -.742E-01
   0.322E+00 0.216E+01 0.560E+03   -.436E+00 -.225E+01 -.559E+03   0.151E+00 0.134E+00 -.331E+00
   0.443E-05 0.450E+00 0.158E+04   -.115E-04 -.484E+00 -.158E+04   -.272E-21 0.472E-01 0.347E+01
   -.117E+00 -.154E-04 0.158E+04   0.121E+00 0.159E-04 -.158E+04   -.546E-02 0.438E-05 0.345E+01
   -.325E-04 -.131E-03 -.150E+04   -.171E-04 -.235E-04 0.151E+04   -.610E-21 0.220E-03 -.503E+01
   0.379E+02 0.293E+02 -.145E+04   -.371E+02 -.295E+02 0.146E+04   -.851E+00 0.109E+00 -.515E+01
   -.172E-05 0.617E+01 -.437E+03   -.400E-04 -.624E+01 0.437E+03   -.630E-21 0.763E-01 0.541E-01
   0.305E+01 -.166E-03 -.440E+03   -.317E+01 0.927E-04 0.440E+03   0.121E+00 0.940E-04 0.312E+00
   -.114E-04 0.718E-04 0.571E+03   0.432E-04 -.660E-04 -.571E+03   -.757E-21 -.113E-04 0.513E+00
   -.322E+00 -.216E+01 0.560E+03   0.436E+00 0.225E+01 -.559E+03   -.151E+00 -.134E+00 -.331E+00
   -.437E-05 -.767E+00 0.158E+04   0.113E-04 0.814E+00 -.158E+04   -.199E-22 -.655E-01 0.349E+01
   -.201E+00 0.157E-04 0.158E+04   0.210E+00 -.159E-04 -.158E+04   -.128E-01 -.312E-05 0.354E+01
   0.444E-03 -.505E-02 -.123E+04   -.217E-04 0.722E-02 0.121E+04   0.284E-21 -.263E-02 0.226E+02
   -.379E+02 -.293E+02 -.145E+04   0.371E+02 0.295E+02 0.146E+04   0.852E+00 -.109E+00 -.515E+01
   0.312E-04 -.864E+01 -.458E+03   0.383E-04 0.904E+01 0.460E+03   -.441E-20 -.401E+00 -.180E+01
   -.390E+01 0.956E-04 -.431E+03   0.419E+01 -.343E-04 0.430E+03   -.288E+00 -.902E-04 0.830E+00
   -.186E-04 -.649E-04 0.556E+03   0.472E-04 0.627E-04 -.556E+03   0.128E-20 0.102E-04 -.283E+00
   -.322E+00 0.216E+01 0.560E+03   0.436E+00 -.225E+01 -.559E+03   -.151E+00 0.134E+00 -.331E+00
   -.446E-05 0.767E+00 0.158E+04   0.116E-04 -.814E+00 -.158E+04   -.147E-21 0.655E-01 0.349E+01
   0.117E+00 -.155E-04 0.158E+04   -.121E+00 0.161E-04 -.158E+04   0.546E-02 0.438E-05 0.345E+01
   -.749E-04 -.174E-02 -.146E+04   0.161E-04 0.148E-02 0.146E+04   -.106E-21 0.426E-03 -.406E+01
   -.379E+02 0.293E+02 -.145E+04   0.371E+02 -.295E+02 0.146E+04   0.851E+00 0.109E+00 -.515E+01
   0.241E-04 0.864E+01 -.458E+03   0.447E-04 -.904E+01 0.460E+03   -.121E-19 0.401E+00 -.180E+01
   -.305E+01 -.157E-03 -.440E+03   0.317E+01 0.108E-03 0.440E+03   -.121E+00 0.940E-04 0.312E+00
 -----------------------------------------------------------------------------------------------
   -.112E-02 -.950E-02 0.550E+02   0.711E-14 -.135E-12 0.438E-11   0.167E-15 0.953E-02 -.550E+02
 
 
 POSITION                                       TOTAL-FORCE (eV/Angst)
 -----------------------------------------------------------------------------------
      4.22049      6.33068     15.44229         0.000000      0.009576      0.063675
      4.22049      7.48651     15.93687         0.000000     -0.166060     -0.153055
      4.22049      5.17505     15.93684         0.000000      0.156939     -0.149190
      0.00000      6.33074      7.50000         0.000000      0.000000      0.498380
      2.11025      0.00000      7.50000         0.004780      0.006836      0.533668
      0.00000      0.00000      9.61025         0.000000      0.046849      0.141910
      2.11025      6.33074      9.61025        -0.023689     -0.000005      0.063832
      8.44098      6.33074     11.70770         0.000000      0.000014     -0.035753
      2.12746      0.00639     11.74873         0.005542     -0.001258     -0.055249
      0.00000      0.01951     13.83398         0.000000      0.009187     -0.173365
      2.00198      6.33074     13.80873        -0.038038      0.000144     -0.147404
      0.00000      2.11025      7.50000         0.000000      0.000008      0.522977
      2.11025      4.22049      7.50000         0.004779     -0.006836      0.533664
      0.00000      4.22049      9.61025         0.000000     -0.046862      0.141889
      2.11025      2.11025      9.61025         0.017252      0.000008      0.138932
      0.00000      2.11025     11.72390         0.000000     -0.000019     -0.036839
      2.12746      4.21411     11.74874         0.005554      0.001274     -0.055327
      0.00000      4.20098     13.83399         0.000000     -0.009193     -0.173401
      2.09055      2.11025     13.84219        -0.014743     -0.000093     -0.150035
      4.22049      6.33074      7.50000         0.000000     -0.000003      0.491764
      6.33074      0.00000      7.50000        -0.004780      0.006836      0.533668
      4.22049      0.00000      9.61025         0.000000      0.088794      0.147211
      6.33074      6.33074      9.61025         0.023689     -0.000005      0.063832
      4.22049      6.33074     11.68401         0.000000     -0.000017     -0.036026
      6.31352      0.00639     11.74873        -0.005542     -0.001258     -0.055249
      4.22049      0.09461     14.03823         0.000000      0.009443     -0.100434
      6.43900      6.33074     13.80874         0.038038      0.000144     -0.147404
      4.22049      2.11025      7.50000         0.000000     -0.000006      0.524721
      6.33074      4.22049      7.50000        -0.004779     -0.006836      0.533664
      4.22049      4.22049      9.61025         0.000000     -0.088784      0.147218
      6.33074      2.11025      9.61025        -0.017252      0.000008      0.138932
      4.22049      2.11025     11.75624         0.000000     -0.000014     -0.034835
      6.31352      4.21411     11.74874        -0.005554      0.001274     -0.055327
      4.22049      4.12589     14.03823         0.000000     -0.009841     -0.101131
      6.35044      2.11025     13.84219         0.014743     -0.000093     -0.150035
      0.00000      6.33074      9.61025         0.000000     -0.000001      0.050587
      2.11025      0.00000      9.61025         0.035367     -0.040243      0.064043
      0.00000      0.00000      7.50000         0.000000     -0.013474     -0.478406
      2.11025      6.33074      7.50000         0.004527     -0.000004     -0.459314
      0.00000      6.33074     13.85236         0.000000     -0.000056     -0.027673
      2.09470      8.42835     13.85928        -0.013941      0.010089     -0.019013
      0.00000      8.43640     11.71794         0.000000     -0.000704      0.007048
      2.12978      6.33074     11.73761        -0.000584     -0.000025      0.004964
      0.00000      2.11025      9.61025         0.000000     -0.000009      0.020761
      2.11025      4.22049      9.61025         0.035369      0.040239      0.064052
      0.00000      4.22049      7.50000         0.000000      0.013467     -0.478392
      2.11025      2.11025      7.50000        -0.001304      0.000005     -0.483375
      0.00000      2.11025     13.86794         0.000000      0.000065     -0.023249
      2.09470      4.23313     13.85927        -0.013770     -0.010024     -0.018812
      0.00000      4.22508     11.71794         0.000000      0.000690      0.007093
      2.11475      2.11025     11.72990         0.002361      0.000033      0.010026
      4.22049      6.33074      9.61025         0.000000     -0.000006     -0.039101
      6.33074      0.00000      9.61025        -0.035367     -0.040243      0.064043
      4.22049      0.00000      7.50000         0.000000     -0.019061     -0.474363
      6.33074      6.33074      7.50000        -0.004527     -0.000004     -0.459314
      4.22049      6.33075     13.97279         0.000000     -0.000462      0.082531
      6.34628      8.42835     13.85928         0.013941      0.010089     -0.019013
      4.22049      8.42157     11.75528         0.000000      0.000702     -0.002997
      6.31120      6.33074     11.73761         0.000584     -0.000025      0.004964
      4.22049      2.11025      9.61025         0.000000      0.000007      0.108468
      6.33074      4.22049      9.61025        -0.035369      0.040239      0.064052
      4.22049      4.22049      7.50000         0.000000      0.019064     -0.474377
      6.33074      2.11025      7.50000         0.001304      0.000005     -0.483375
      4.22049      2.11025     13.90047         0.000000      0.000168     -0.009983
      6.34628      4.23313     13.85927         0.013770     -0.010024     -0.018812
      4.22049      4.23991     11.75528         0.000000     -0.000682     -0.002967
      6.32623      2.11025     11.72990        -0.002361      0.000033      0.010026
 -----------------------------------------------------------------------------------
    total drift:                               -0.001121      0.000032     -0.015028


--------------------------------------------------------------------------------------------------------



  FREE ENERGIE OF THE ION-ELECTRON SYSTEM (eV)
  ---------------------------------------------------
  free  energy   TOTEN  =      -413.33533477 eV

  energy  without entropy=     -413.33533477  energy(sigma->0) =     -413.33533477
 


--------------------------------------------------------------------------------------------------------


    POTLOK:  cpu time      0.2572: real time      0.2584


--------------------------------------------------------------------------------------------------------


     LOOP+:  cpu time    403.6578: real time    407.7345
    4ORBIT:  cpu time      0.0000: real time      0.0000

 total amount of memory used by VASP MPI-rank0   128714. kBytes
=======================================================================

   base      :      30000. kBytes
   nonl-proj :      30836. kBytes
   fftplans  :       3085. kBytes
   grid      :       5664. kBytes
   one-center:         32. kBytes
   wavefun   :      59097. kBytes
 
  
  
 General timing and accounting informations for this job:
 ========================================================
  
                  Total CPU time used (sec):      418.716
                            User time (sec):      415.557
                          System time (sec):        3.159
                         Elapsed time (sec):      423.691
  
                   Maximum memory used (kb):      419104.
                   Average memory used (kb):          N/A
  
                          Minor page faults:        72471
                          Major page faults:          173
                 Voluntary context switches:         1892
