 vasp.6.3.0 20Jan22 (build Mar 11 2022 13:48:16) complex                        
  
 executed on             LinuxIFC date 2024.02.11  08:09:57
 running on  304 total cores
 distrk:  each k-point on  304 cores,    1 groups
 distr:  one band on NCORE=  19 cores,   16 groups


--------------------------------------------------------------------------------------------------------


 INCAR:
   SYSTEM = Oxide-Surface
   ISMEAR = 0
   SIGMA = 0.05
   EDIFF = 1E-5
   ALGO = ALL
   ISTART = 0
   IBRION = -1
   NSW = 0
   ISYM = 2
   DIPOL = 0.5 0.5 0.5
   IDIPOL = 3
   LDIPOL = .TRUE.
   METAGGA = R2SCAN
   LUSE_VDW = .TRUE.
   BPARAM = 11.95
   CPARAM = 0.0093
   LASPH = .TRUE.
   ENCUT = 600
   PREC = Accurate
   LASPH = .TRUE.
   LREAL = .FALSE.
   ISPIN = 1
   NELM = 200
   NELMIN = 8
   NCORE = 19
   KPAR = 1
   LWAVE = .FALSE.
   LCHARG = .FALSE.

 POTCAR:    PAW_PBE Mg_pv 13Apr2007               
 POTCAR:    PAW_PBE O 08Apr2002                   
 -----------------------------------------------------------------------------
|                                                                             |
|               ----> ADVICE to this user running VASP <----                  |
|                                                                             |
|     You have switched on vdW-DFT.                                           |
|     This routine was written and supplied by Jiri Klimes. We recommend      |
|     that you carefully read and cite the following publications:            |
|       J. Klimes, D.R. Bowler, A. Michelides                                 |
|          J. Phys.: Cond Matt. 22 022201 (2010)                              |
|       J. Klimes, D.R. Bowler, A. Michelides                                 |
|          Phys. Rev. B. 83, 195131 (2011)                                    |
|     and references therein.                                                 |
|                                                                             |
 -----------------------------------------------------------------------------

 POTCAR:    PAW_PBE Mg_pv 13Apr2007               
   SHA256 =  f474ac0dd33840b9ae76c01d57fea79fdf77cdfbb07d5ade72c65f83c709b62b Mg_pv/POTCAR          
   COPYR  = (c) Copyright 13Apr2007 Georg Kresse                                                    
   COPYR  = This file is part of the software VASP. Any use, copying, and all other rights are regul
   COPYR  = If you do not have a valid VASP license, you may not use, copy or distribute this file. 
   VRHFIN =Mg: p6s2                                                                                 
   LEXCH  = PE                                                                                      
   EATOM  =  1056.7344 eV,   77.6678 Ry                                                             
                                                                                                    
   TITEL  = PAW_PBE Mg_pv 13Apr2007                                                                 
   LULTRA =        F    use ultrasoft PP ?                                                          
   IUNSCR =        1    unscreen: 0-lin 1-nonlin 2-no                                               
   RPACOR =    1.500    partial core radius                                                         
   POMASS =   24.305; ZVAL   =    8.000    mass and valenz                                          
   RCORE  =    2.000    outmost cutoff radius                                                       
   RWIGS  =    2.000; RWIGS  =    1.058    wigner-seitz radius (au A)                               
   ENMAX  =  403.929; ENMIN  =  302.947 eV                                                          
   RCLOC  =    1.506    cutoff for local pot                                                        
   LCOR   =        T    correct aug charges                                                         
   LPAW   =        T    paw PP                                                                      
   EAUG   =  758.780                                                                                
   DEXC   =    0.000                                                                                
   RMAX   =    2.045    core radius for proj-oper                                                   
   RAUG   =    1.300    factor for augmentation sphere                                              
   RDEP   =    2.025    radius for radial grids                                                     
   RDEPT  =    1.557    core radius for aug-charge                                                  
                                                                                                    
   Atomic configuration                                                                             
    5 entries                                                                                       
     n  l   j            E        occ.                                                              
     1  0  0.50     -1259.6230   2.0000                                                             
     2  0  0.50       -79.8442   2.0000                                                             
     2  1  1.50       -46.6121   6.0000                                                             
     3  0  0.50        -4.7055   2.0000                                                             
     3  2  1.50        -1.3606   0.0000                                                             
   Description                                                                                      
     l       E           TYP  RCUT    TYP  RCUT                                                     
     1    -46.6121073     23  1.600                                                                 
     1      2.7211652     23  1.600                                                                 
     0     -4.7054661     23  2.000                                                                 
     0     61.2262170     23  2.000                                                                 
     2     -1.3605826     23  2.000                                                                 
  local pseudopotential read in
  partial core-charges read in
  partial kinetic energy density read in
  atomic valenz-charges read in
  non local Contribution for L=           1  read in
    real space projection operators read in
  non local Contribution for L=           1  read in
    real space projection operators read in
  non local Contribution for L=           0  read in
    real space projection operators read in
  non local Contribution for L=           0  read in
    real space projection operators read in
  non local Contribution for L=           2  read in
    real space projection operators read in
    PAW grid and wavefunctions read in
 
   number of l-projection  operators is LMAX  =           5
   number of lm-projection operators is LMMAX =          13
 
 POTCAR:    PAW_PBE O 08Apr2002                   
   SHA256 =  818f92134a0a090dccd8ba1447fa70422a3b330e708bb4f08108d8ae51209ddf O/POTCAR              
   COPYR  = (c) Copyright 08Apr2002 Georg Kresse                                                    
   COPYR  = This file is part of the software VASP. Any use, copying, and all other rights are regul
   COPYR  = If you do not have a valid VASP license, you may not use, copy or distribute this file. 
   VRHFIN =O: s2p4                                                                                  
   LEXCH  = PE                                                                                      
   EATOM  =   432.3788 eV,   31.7789 Ry                                                             
                                                                                                    
   TITEL  = PAW_PBE O 08Apr2002                                                                     
   LULTRA =        F    use ultrasoft PP ?                                                          
   IUNSCR =        1    unscreen: 0-lin 1-nonlin 2-no                                               
   RPACOR =    1.200    partial core radius                                                         
   POMASS =   16.000; ZVAL   =    6.000    mass and valenz                                          
   RCORE  =    1.520    outmost cutoff radius                                                       
   RWIGS  =    1.550; RWIGS  =    0.820    wigner-seitz radius (au A)                               
   ENMAX  =  400.000; ENMIN  =  300.000 eV                                                          
   ICORE  =        2    local potential                                                             
   LCOR   =        T    correct aug charges                                                         
   LPAW   =        T    paw PP                                                                      
   EAUG   =  605.392                                                                                
   DEXC   =    0.000                                                                                
   RMAX   =    1.553    core radius for proj-oper                                                   
   RAUG   =    1.300    factor for augmentation sphere                                              
   RDEP   =    1.550    radius for radial grids                                                     
   RDEPT  =    1.329    core radius for aug-charge                                                  
                                                                                                    
   Atomic configuration                                                                             
    4 entries                                                                                       
     n  l   j            E        occ.                                                              
     1  0  0.50      -514.6923   2.0000                                                             
     2  0  0.50       -23.9615   2.0000                                                             
     2  1  0.50        -9.0305   4.0000                                                             
     3  2  1.50        -9.5241   0.0000                                                             
   Description                                                                                      
     l       E           TYP  RCUT    TYP  RCUT                                                     
     0    -23.9615318     23  1.200                                                                 
     0     -9.5240782     23  1.200                                                                 
     1     -9.0304911     23  1.520                                                                 
     1      8.1634956     23  1.520                                                                 
     2     -9.5240782      7  1.500                                                                 
  local pseudopotential read in
  partial core-charges read in
  partial kinetic energy density read in
  kinetic energy density of atom read in
  atomic valenz-charges read in
  non local Contribution for L=           0  read in
    real space projection operators read in
  non local Contribution for L=           0  read in
    real space projection operators read in
  non local Contribution for L=           1  read in
    real space projection operators read in
  non local Contribution for L=           1  read in
    real space projection operators read in
    PAW grid and wavefunctions read in
 
   number of l-projection  operators is LMAX  =           4
   number of lm-projection operators is LMMAX =           8
 
 -----------------------------------------------------------------------------
|                                                                             |
|               ----> ADVICE to this user running VASP <----                  |
|                                                                             |
|     You have a (more or less) 'large supercell' and for larger cells it     |
|     might be more efficient to use real-space projection operators.         |
|     Therefore, try LREAL= Auto in the INCAR file.                           |
|     Mind: For very accurate calculation, you might also keep the            |
|     reciprocal projection scheme (i.e. LREAL=.FALSE.).                      |
|                                                                             |
 -----------------------------------------------------------------------------

  PAW_PBE Mg_pv 13Apr2007               :
 energy of atom  1       EATOM=-1056.7344
 kinetic energy error for atom=    0.0221 (will be added to EATOM!!)
  PAW_PBE O 08Apr2002                   :
 energy of atom  2       EATOM= -432.3788
 kinetic energy error for atom=    0.0168 (will be added to EATOM!!)
 
 
 POSCAR: Mg  O
  positions in direct lattice
  No initial velocities read in

 METAGGA = R2SCA    LMAXTAU =  6    LMIXTAU =  F

 exchange correlation table for  LEXCH =        8
   RHO(1)=    0.500       N(1)  =     2000
   RHO(2)=  100.500       N(2)  =     4000
 


--------------------------------------------------------------------------------------------------------


 ion  position               nearest neighbor table
   1  0.000  0.750  0.352-  33 2.11  35 2.11  36 2.11  43 2.11  52 2.11
   2  0.250  0.000  0.352-  34 2.11  35 2.11  36 2.11  44 2.11  51 2.11
   3  0.000  0.000  0.451-  35 2.11  34 2.11  33 2.11  41 2.11  50 2.11  39 2.12
   4  0.250  0.750  0.451-  36 2.11  34 2.11  33 2.11  42 2.11  49 2.11  40 2.12
   5  0.000  0.750  0.550-  56 2.11  40 2.11  39 2.11  47 2.11  33 2.12  37 2.15
   6  0.250  1.000  0.550-  48 2.11  40 2.11  39 2.11  55 2.11  34 2.12  38 2.15
   7  0.000  1.000  0.649-  39 2.11  54 2.11  38 2.11  37 2.11  45 2.11
   8  0.250  0.750  0.649-  40 2.11  53 2.11  38 2.11  46 2.11  37 2.11
   9  0.000  0.250  0.352-  41 2.11  35 2.11  43 2.11  44 2.11  60 2.11
  10  0.250  0.500  0.352-  42 2.11  36 2.11  43 2.11  44 2.11  59 2.11
  11  0.000  0.500  0.451-  43 2.11  41 2.11  42 2.11  33 2.11  58 2.11  47 2.12
  12  0.250  0.250  0.451-  44 2.11  41 2.11  42 2.11  34 2.11  57 2.11  48 2.12
  13  0.000  0.250  0.550-  48 2.11  64 2.11  39 2.11  47 2.11  41 2.12  45 2.15
  14  0.250  0.500  0.550-  63 2.11  40 2.11  48 2.11  47 2.11  42 2.12  46 2.15
  15  0.000  0.500  0.649-  47 2.11  62 2.11  46 2.11  37 2.11  45 2.11
  16  0.250  0.250  0.649-  48 2.11  61 2.11  38 2.11  46 2.11  45 2.11
  17  0.500  0.750  0.352-  49 2.11  36 2.11  51 2.11  52 2.11  59 2.11
  18  0.750  0.000  0.352-  50 2.11  35 2.11  51 2.11  52 2.11  60 2.11
  19  0.500  0.000  0.451-  51 2.11  49 2.11  50 2.11  34 2.11  57 2.11  55 2.12
  20  0.750  0.750  0.451-  52 2.11  49 2.11  50 2.11  33 2.11  58 2.11  56 2.12
  21  0.500  0.750  0.550-  63 2.11  40 2.11  56 2.11  55 2.11  49 2.13  53 2.15
  22  0.750  0.000  0.550-  64 2.11  56 2.11  39 2.11  55 2.11  50 2.12  54 2.15
  23  0.500  1.000  0.649-  61 2.11  53 2.11  55 2.11  38 2.11  54 2.11
  24  0.750  0.750  0.649-  56 2.11  53 2.11  54 2.11  62 2.11  37 2.11
  25  0.500  0.250  0.352-  57 2.11  51 2.11  44 2.11  59 2.11  60 2.11
  26  0.750  0.500  0.352-  58 2.11  52 2.11  43 2.11  59 2.11  60 2.11
  27  0.500  0.500  0.451-  59 2.11  49 2.11  57 2.11  58 2.11  42 2.11  63 2.12
  28  0.750  0.250  0.451-  60 2.11  50 2.11  57 2.11  58 2.11  41 2.11  64 2.12
  29  0.500  0.250  0.550-  63 2.11  48 2.11  64 2.11  55 2.11  57 2.13  61 2.15
  30  0.750  0.500  0.550-  63 2.11  56 2.11  64 2.11  47 2.11  58 2.12  62 2.15
  31  0.500  0.500  0.649-  61 2.11  53 2.11  46 2.11  62 2.11  63 2.12
  32  0.750  0.250  0.649-  64 2.11  61 2.11  54 2.11  62 2.11  45 2.11
  33  0.000  0.750  0.451-   1 2.11   3 2.11   4 2.11  11 2.11  20 2.11   5 2.12
  34  0.250  0.000  0.451-   2 2.11   3 2.11   4 2.11  12 2.11  19 2.11   6 2.12
  35  0.000  0.000  0.352-   3 2.11   2 2.11   1 2.11   9 2.11  18 2.11
  36  0.250  0.750  0.352-   4 2.11   2 2.11   1 2.11  10 2.11  17 2.11
  37  0.000  0.750  0.651-   7 2.11  15 2.11  24 2.11   8 2.11   5 2.15
  38  0.250  0.000  0.651-  16 2.11   8 2.11   7 2.11  23 2.11   6 2.15
  39  0.000  1.000  0.550-   5 2.11  13 2.11   7 2.11   6 2.11  22 2.11   3 2.12
  40  0.250  0.750  0.550-   8 2.11   5 2.11   6 2.11  14 2.11  21 2.11   4 2.12
  41  0.000  0.250  0.451-   9 2.11   3 2.11  11 2.11  12 2.11  28 2.11  13 2.12
  42  0.250  0.500  0.451-  10 2.11   4 2.11  11 2.11  12 2.11  27 2.11  14 2.12
  43  0.000  0.500  0.352-  11 2.11   9 2.11  10 2.11   1 2.11  26 2.11
  44  0.250  0.250  0.352-  12 2.11   9 2.11  10 2.11   2 2.11  25 2.11
  45  0.000  0.250  0.651-   7 2.11  15 2.11  16 2.11  32 2.11  13 2.15
  46  0.250  0.500  0.651-  15 2.11  16 2.11   8 2.11  31 2.11  14 2.15
  47  0.000  0.500  0.550-  15 2.11   5 2.11  13 2.11  14 2.11  30 2.11  11 2.12
  48  0.250  0.250  0.550-  16 2.11  13 2.11   6 2.11  14 2.11  29 2.11  12 2.12
  49  0.500  0.750  0.451-  17 2.11   4 2.11  19 2.11  20 2.11  27 2.11  21 2.13
  50  0.750  0.000  0.451-  18 2.11   3 2.11  19 2.11  20 2.11  28 2.11  22 2.12
  51  0.500  0.000  0.352-  19 2.11  17 2.11  18 2.11   2 2.11  25 2.11
  52  0.750  0.750  0.352-  20 2.11  17 2.11  18 2.11   1 2.11  26 2.11
  53  0.500  0.750  0.651-  23 2.11   8 2.11  24 2.11  31 2.11  21 2.15
  54  0.750  0.000  0.651-  32 2.11  24 2.11   7 2.11  23 2.11  22 2.15
  55  0.500  1.000  0.550-  23 2.11  22 2.11   6 2.11  21 2.11  29 2.11  19 2.12
  56  0.750  0.750  0.550-  24 2.11   5 2.11  22 2.11  30 2.11  21 2.11  20 2.12
  57  0.500  0.250  0.451-  25 2.11  19 2.11  12 2.11  27 2.11  28 2.11  29 2.13
  58  0.750  0.500  0.451-  26 2.11  20 2.11  11 2.11  27 2.11  28 2.11  30 2.12
  59  0.500  0.500  0.352-  27 2.11  17 2.11  25 2.11  26 2.11  10 2.11
  60  0.750  0.250  0.352-  28 2.11  18 2.11  25 2.11  26 2.11   9 2.11
  61  0.500  0.250  0.651-  23 2.11  16 2.11  32 2.11  31 2.11  29 2.15
  62  0.750  0.500  0.651-  15 2.11  24 2.11  32 2.11  31 2.11  30 2.15
  63  0.500  0.500  0.550-  30 2.11  14 2.11  29 2.11  21 2.11  31 2.12  27 2.12
  64  0.750  0.250  0.550-  32 2.11  13 2.11  22 2.11  30 2.11  29 2.11  28 2.12
 
  LATTYP: Found a simple tetragonal cell.
 ALAT       =     8.4409846542
 C/A-ratio  =     2.5270438657
  
  Lattice vectors:
  
 A1 = (   8.4409846542,   0.0000000000,   0.0000000000)
 A2 = (   0.0000000000,   8.4409846542,   0.0000000000)
 A3 = (   0.0000000000,   0.0000000000,  21.3307384906)


Analysis of symmetry for initial positions (statically):
=====================================================================
 Subroutine PRICEL returns:
 Original cell was already a primitive cell.
 

 Routine SETGRP: Setting up the symmetry group for a 
 simple tetragonal supercell.


 Subroutine GETGRP returns: Found  4 space group operations
 (whereof  4 operations were pure point group operations)
 out of a pool of 16 trial point group operations.


The static configuration has the point symmetry C_2v.


Analysis of symmetry for dynamics (positions and initial velocities):
=====================================================================
 Subroutine PRICEL returns:
 Original cell was already a primitive cell.
 

 Routine SETGRP: Setting up the symmetry group for a 
 simple tetragonal supercell.


 Subroutine GETGRP returns: Found  4 space group operations
 (whereof  4 operations were pure point group operations)
 out of a pool of 16 trial point group operations.


The dynamic configuration has the point symmetry C_2v.


Analysis of constrained symmetry for selective dynamics:
=====================================================================
 Subroutine PRICEL returns:
 Original cell was already a primitive cell.
 

 Routine SETGRP: Setting up the symmetry group for a 
 simple tetragonal supercell.


 Subroutine GETGRP returns: Found  4 space group operations
 (whereof  4 operations were pure point group operations)
 out of a pool of 16 trial point group operations.


The constrained configuration has the point symmetry C_2v.


 Subroutine INISYM returns: Found  4 space group operations
 (whereof  4 operations are pure point group operations),
 and found     1 'primitive' translations


----------------------------------------------------------------------------------------

                                     Primitive cell                                     

  volume of cell :    1519.8199

  direct lattice vectors                    reciprocal lattice vectors
     8.440984654  0.000000000  0.000000000     0.118469591  0.000000000  0.000000000
     0.000000000  8.440984654  0.000000000     0.000000000  0.118469591  0.000000000
     0.000000000  0.000000000 21.330738491     0.000000000  0.000000000  0.046880702

  length of vectors
     8.440984654  8.440984654 21.330738491     0.118469591  0.118469591  0.046880702

  position of ions in fractional coordinates (direct lattice)
     0.000000000  0.750000000  0.351605267
     0.250000000  0.000000000  0.351605267
     0.000000000  0.000000000  0.450535089
     0.250000000  0.750000000  0.450535089
     0.000000003  0.750032167  0.550141647
     0.249992769  0.999999998  0.550135640
     0.000000010  0.999999991  0.648847037
     0.250116514  0.750097339  0.648710816
     0.000000000  0.250000000  0.351605267
     0.250000000  0.500000000  0.351605267
     0.000000000  0.500000000  0.450535089
     0.250000000  0.250000000  0.450535089
     0.000000007  0.249967822  0.550141651
     0.250108445  0.500000001  0.550153757
     0.000000011  0.499999994  0.648675549
     0.250116504  0.249902631  0.648710813
     0.500000000  0.750000000  0.351605267
     0.750000000  0.000000000  0.351605267
     0.500000000  0.000000000  0.450535089
     0.750000000  0.750000000  0.450535089
     0.499999994  0.749901112  0.550182719
     0.750007254  0.000000005  0.550135636
     0.500000006  0.999999998  0.648747779
     0.749883526  0.750097344  0.648710829
     0.500000000  0.250000000  0.351605267
     0.750000000  0.500000000  0.351605267
     0.500000000  0.500000000  0.450535089
     0.750000000  0.250000000  0.450535089
     0.500000001  0.250098874  0.550182703
     0.749891587  0.499999991  0.550153763
     0.500000014  0.499999988  0.649279172
     0.749883523  0.249902625  0.648710829
     0.000000000  0.750000000  0.450535089
     0.250000000  0.000000000  0.450535089
     0.000000000  0.000000000  0.351605267
     0.250000000  0.750000000  0.351605267
     0.000000011  0.750041776  0.650981394
     0.249939864  0.000000003  0.651016895
     0.000000015  0.999999981  0.549923091
     0.249924098  0.750012792  0.549866046
     0.000000000  0.250000000  0.450535089
     0.250000000  0.500000000  0.450535089
     0.000000000  0.500000000  0.351605267
     0.250000000  0.250000000  0.351605267
     0.000000016  0.249958209  0.650981374
     0.249749451  0.499999982  0.651002082
     0.000000017  0.500000002  0.549828664
     0.249924102  0.249987198  0.549866042
     0.500000000  0.750000000  0.450535089
     0.750000000  0.000000000  0.450535089
     0.500000000  0.000000000  0.351605267
     0.750000000  0.750000000  0.351605267
     0.500000003  0.750141602  0.650762171
     0.750060174  0.000000004  0.651016901
     0.500000013  0.999999987  0.549819177
     0.750075914  0.750012790  0.549866047
     0.500000000  0.250000000  0.450535089
     0.750000000  0.500000000  0.450535089
     0.500000000  0.500000000  0.351605267
     0.750000000  0.250000000  0.351605267
     0.500000004  0.249858388  0.650762164
     0.750250597  0.499999987  0.651002086
     0.500000017  0.499999992  0.549996743
     0.750075901  0.249987189  0.549866047

  ion indices of the primitive-cell ions
   primitive index   ion index
                 1           1
                 2           2
                 3           3
                 4           4
                 5           5
                 6           6
                 7           7
                 8           8
                 9           9
                10          10
                11          11
                12          12
                13          13
                14          14
                15          15
                16          16
                17          17
                18          18
                19          19
                20          20
                21          21
                22          22
                23          23
                24          24
                25          25
                26          26
                27          27
                28          28
                29          29
                30          30
                31          31
                32          32
                33          33
                34          34
                35          35
                36          36
                37          37
                38          38
                39          39
                40          40
                41          41
                42          42
                43          43
                44          44
                45          45
                46          46
                47          47
                48          48
                49          49
                50          50
                51          51
                52          52
                53          53
                54          54
                55          55
                56          56
                57          57
                58          58
                59          59
                60          60
                61          61
                62          62
                63          63
                64          64

----------------------------------------------------------------------------------------

 
 
 KPOINTS: pymatgen v2020.8.13 with grid density = 

Automatic generation of k-mesh.
 Grid dimensions read from file:
 generate k-points for:    2    2    1

 Generating k-lattice:

  Cartesian coordinates                     Fractional coordinates (reciprocal lattice)
     0.059234796  0.000000000  0.000000000     0.500000000  0.000000000  0.000000000
     0.000000000  0.059234796  0.000000000     0.000000000  0.500000000  0.000000000
     0.000000000  0.000000000  0.046880702     0.000000000  0.000000000  1.000000000

  Length of vectors
     0.059234796  0.059234796  0.046880702

  Shift w.r.t. Gamma in fractional coordinates (k-lattice)
     0.000000000  0.000000000  0.000000000

 
 Subroutine IBZKPT returns following result:
 ===========================================
 
 Found      4 irreducible k-points:
 
 Following reciprocal coordinates:
            Coordinates               Weight
  0.000000  0.000000  0.000000      1.000000
  0.500000  0.000000  0.000000      1.000000
  0.000000  0.500000  0.000000      1.000000
  0.500000  0.500000  0.000000      1.000000
 
 Following cartesian coordinates:
            Coordinates               Weight
  0.000000  0.000000  0.000000      1.000000
  0.059235  0.000000  0.000000      1.000000
  0.000000  0.059235  0.000000      1.000000
  0.059235  0.059235  0.000000      1.000000
 


--------------------------------------------------------------------------------------------------------




 Dimension of arrays:
   k-points           NKPTS =      4   k-points in BZ     NKDIM =      4   number of bands    NBANDS=    272
   number of dos      NEDOS =    301   number of ions     NIONS =     64
   non local maximal  LDIM  =      5   non local SUM 2l+1 LMDIM =     13
   total plane-waves  NPLWV = 882000
   max r-space proj   IRMAX =      1   max aug-charges    IRDMAX=  11635
   dimension x,y,z NGX =    70 NGY =   70 NGZ =  180
   dimension x,y,z NGXF=   140 NGYF=  140 NGZF=  360
   support grid    NGXF=   140 NGYF=  140 NGZF=  360
   ions per type =              32  32
   NGX,Y,Z   is equivalent  to a cutoff of  13.79, 13.79, 14.03 a.u.
   NGXF,Y,Z  is equivalent  to a cutoff of  27.57, 27.57, 28.06 a.u.

 SYSTEM =  Oxide-Surface                           
 POSCAR =  Mg  O                                   

--------------------------------------------------------------------------------------------------------


  energy-cutoff  :      600.00
  volume of cell :     1519.82
      direct lattice vectors                 reciprocal lattice vectors
     8.440984654  0.000000000  0.000000000     0.118469591  0.000000000  0.000000000
     0.000000000  8.440984654  0.000000000     0.000000000  0.118469591  0.000000000
     0.000000000  0.000000000 21.330738491     0.000000000  0.000000000  0.046880702

  length of vectors
     8.440984654  8.440984654 21.330738491     0.118469591  0.118469591  0.046880702


 
 k-points in units of 2pi/SCALE and weight: pymatgen v2020.8.13 with grid density = 
   0.00000000  0.00000000  0.00000000       0.250
   0.05923480  0.00000000  0.00000000       0.250
   0.00000000  0.05923480  0.00000000       0.250
   0.05923480  0.05923480  0.00000000       0.250
 
 k-points in reciprocal lattice and weights: pymatgen v2020.8.13 with grid density = 
   0.00000000  0.00000000  0.00000000       0.250
   0.50000000  0.00000000  0.00000000       0.250
   0.00000000  0.50000000  0.00000000       0.250
   0.50000000  0.50000000  0.00000000       0.250
 
 position of ions in fractional coordinates (direct lattice) 
   0.00000000  0.75000000  0.35160527
   0.25000000  0.00000000  0.35160527
   0.00000000  0.00000000  0.45053509
   0.25000000  0.75000000  0.45053509
   0.00000000  0.75003217  0.55014165
   0.24999277  1.00000000  0.55013564
   0.00000001  0.99999999  0.64884704
   0.25011651  0.75009734  0.64871082
   0.00000000  0.25000000  0.35160527
   0.25000000  0.50000000  0.35160527
   0.00000000  0.50000000  0.45053509
   0.25000000  0.25000000  0.45053509
   0.00000001  0.24996782  0.55014165
   0.25010844  0.50000000  0.55015376
   0.00000001  0.49999999  0.64867555
   0.25011650  0.24990263  0.64871081
   0.50000000  0.75000000  0.35160527
   0.75000000  0.00000000  0.35160527
   0.50000000  0.00000000  0.45053509
   0.75000000  0.75000000  0.45053509
   0.49999999  0.74990111  0.55018272
   0.75000725  0.00000001  0.55013564
   0.50000001  1.00000000  0.64874778
   0.74988353  0.75009734  0.64871083
   0.50000000  0.25000000  0.35160527
   0.75000000  0.50000000  0.35160527
   0.50000000  0.50000000  0.45053509
   0.75000000  0.25000000  0.45053509
   0.50000000  0.25009887  0.55018270
   0.74989159  0.49999999  0.55015376
   0.50000001  0.49999999  0.64927917
   0.74988352  0.24990262  0.64871083
   0.00000000  0.75000000  0.45053509
   0.25000000  0.00000000  0.45053509
   0.00000000  0.00000000  0.35160527
   0.25000000  0.75000000  0.35160527
   0.00000001  0.75004178  0.65098139
   0.24993986  0.00000000  0.65101690
   0.00000001  0.99999998  0.54992309
   0.24992410  0.75001279  0.54986605
   0.00000000  0.25000000  0.45053509
   0.25000000  0.50000000  0.45053509
   0.00000000  0.50000000  0.35160527
   0.25000000  0.25000000  0.35160527
   0.00000002  0.24995821  0.65098137
   0.24974945  0.49999998  0.65100208
   0.00000002  0.50000000  0.54982866
   0.24992410  0.24998720  0.54986604
   0.50000000  0.75000000  0.45053509
   0.75000000  0.00000000  0.45053509
   0.50000000  0.00000000  0.35160527
   0.75000000  0.75000000  0.35160527
   0.50000000  0.75014160  0.65076217
   0.75006017  0.00000000  0.65101690
   0.50000001  0.99999999  0.54981918
   0.75007591  0.75001279  0.54986605
   0.50000000  0.25000000  0.45053509
   0.75000000  0.50000000  0.45053509
   0.50000000  0.50000000  0.35160527
   0.75000000  0.25000000  0.35160527
   0.50000000  0.24985839  0.65076216
   0.75025060  0.49999999  0.65100209
   0.50000002  0.49999999  0.54999674
   0.75007590  0.24998719  0.54986605
 
 position of ions in cartesian coordinates  (Angst):
   0.00000000  6.33073849  7.50000000
   2.11024616  0.00000000  7.50000000
   0.00000000  0.00000000  9.61024616
   2.11024616  6.33073849  9.61024616
   0.00000002  6.33101002 11.73492761
   2.11018512  8.44098464 11.73479947
   0.00000009  8.44098458 13.84038647
   2.11122966  6.33156013 13.83748077
   0.00000000  2.11024616  7.50000000
   2.11024616  4.22049233  7.50000000
   0.00000000  4.22049233  9.61024616
   2.11024616  2.11024616  9.61024616
   0.00000006  2.10997455 11.73492769
   2.11116154  4.22049233 11.73518592
   0.00000009  4.22049228 13.83672850
   2.11122957  2.10942427 13.83748070
   4.22049233  6.33073849  7.50000000
   6.33073849  0.00000000  7.50000000
   4.22049233  0.00000000  9.61024616
   6.33073849  6.33073849  9.61024616
   4.22049228  6.32990378 11.73580370
   6.33079972  0.00000005 11.73479938
   4.22049238  8.44098463 13.83826923
   6.32975533  6.33156017 13.83748104
   4.22049233  2.11024616  7.50000000
   6.33073849  4.22049233  7.50000000
   4.22049233  4.22049233  9.61024616
   6.33073849  2.11024616  9.61024616
   4.22049233  2.11108076 11.73580336
   6.32982338  4.22049225 11.73518604
   4.22049245  4.22049223 13.84960423
   6.32975531  2.10942422 13.83748104
   0.00000000  6.33073849  9.61024616
   2.11024616  0.00000000  9.61024616
   0.00000000  0.00000000  7.50000000
   2.11024616  6.33073849  7.50000000
   0.00000009  6.33109112 13.88591387
   2.10973855  0.00000002 13.88667115
   0.00000012  8.44098449 11.73026565
   2.10960548  6.33084647 11.72904882
   0.00000000  2.11024616  9.61024616
   2.11024616  4.22049233  9.61024616
   0.00000000  4.22049233  7.50000000
   2.11024616  2.11024616  7.50000000
   0.00000014  2.10989341 13.88591345
   2.10813128  4.22049217 13.88635517
   0.00000014  4.22049235 11.72825144
   2.10960551  2.11013810 11.72904875
   4.22049233  6.33073849  9.61024616
   6.33073849  0.00000000  9.61024616
   4.22049233  0.00000000  7.50000000
   6.33073849  6.33073849  7.50000000
   4.22049236  6.33193375 13.88123768
   6.33124642  0.00000003 13.88667128
   4.22049244  8.44098455 11.72804908
   6.33137928  6.33084645 11.72904886
   4.22049233  2.11024616  9.61024616
   6.33073849  4.22049233  9.61024616
   4.22049233  4.22049233  7.50000000
   6.33073849  2.11024616  7.50000000
   4.22049236  2.10905082 13.88123754
   6.33285378  4.22049222 13.88635524
   4.22049247  4.22049226 11.73183669
   6.33137917  2.11013802 11.72904886
 


--------------------------------------------------------------------------------------------------------

--------------------------------------- Iteration      FINAL  ---------------------------------------


--------------------OUTCAR has been truncated-------------------------


--------------------OUTCAR has been truncated-------------------------


--------------------OUTCAR has been truncated-------------------------


--------------------OUTCAR has been truncated-------------------------


--------------------OUTCAR has been truncated-------------------------


--------------------OUTCAR has been truncated-------------------------


--------------------OUTCAR has been truncated-------------------------


--------------------OUTCAR has been truncated-------------------------


--------------------OUTCAR has been truncated-------------------------


--------------------OUTCAR has been truncated-------------------------


  FORCE on cell =-STRESS in cart. coord.  units (eV):
  Direction    XX          YY          ZZ          XY          YZ          ZX
  --------------------------------------------------------------------------------------
  Alpha Z   875.25928   875.25928   875.25928
  Ewald  161131.00611161130.96961************    -0.00000    -0.00003     0.00004
  Hartree171233.78399171233.76211************    -0.00000    -0.00001     0.00001
  E(xc)   -2654.55522 -2654.55517 -2652.74788     0.00000     0.00001     0.00000
  Local  ************************342620.01806     0.00000     0.00004    -0.00005
  n-local -2786.05608 -2786.05705 -2807.47720    -0.00002    -0.00004     0.00002
  augment  1177.48005  1177.48013  1168.27302     0.00000    -0.00000     0.00000
  Kinetic  7317.18410  7317.18598  7353.96766     0.00015     0.00020     0.00006
  Fock        0.00000     0.00000     0.00000     0.00000     0.00000     0.00000
  -------------------------------------------------------------------------------------
  Total     -45.43487   -45.43469   -14.35753     0.00000     0.00000     0.00000
  in kB     -47.89694   -47.89675   -15.13555     0.00000     0.00000     0.00000
  external pressure =      -36.98 kB  Pullay stress =        0.00 kB


 VOLUME and BASIS-vectors are now :
 -----------------------------------------------------------------------------
  energy-cutoff  :      600.00
  volume of cell :     1519.82
      direct lattice vectors                 reciprocal lattice vectors
     8.440984654  0.000000000  0.000000000     0.118469591  0.000000000  0.000000000
     0.000000000  8.440984654  0.000000000     0.000000000  0.118469591  0.000000000
     0.000000000  0.000000000 21.330738491     0.000000000  0.000000000  0.046880702

  length of vectors
     8.440984654  8.440984654 21.330738491     0.118469591  0.118469591  0.046880702


 FORCES acting on ions:
    Electron-Ion                     Ewald-Force                    Non-Local-Force
 -----------------------------------------------------------------------------------------------
   0.947E-06 0.117E-01 0.207E+04   -.250E-05 -.112E-01 -.206E+04   0.140E-21 -.208E-03 -.716E+01
   -.103E-01 0.902E-06 0.207E+04   0.996E-02 -.194E-05 -.206E+04   0.323E-03 -.591E-21 -.715E+01
   -.301E-06 0.513E-06 0.683E+03   -.607E-05 0.485E-05 -.684E+03   -.102E-21 0.506E-21 0.407E+00
   -.108E+00 0.933E-01 0.683E+03   0.106E+00 -.933E-01 -.684E+03   0.106E-02 0.573E-04 0.392E+00
   0.850E-06 0.159E+00 -.690E+03   -.191E-04 -.151E+00 0.691E+03   0.463E-22 -.117E-01 -.158E+00
   -.308E-01 0.120E-04 -.690E+03   0.190E-01 -.193E-04 0.691E+03   0.978E-02 -.257E-21 -.123E+00
   -.252E-04 0.254E-04 -.205E+04   0.202E-04 -.182E-04 0.205E+04   0.657E-21 -.170E-22 0.612E+01
   0.202E+00 0.464E+00 -.205E+04   -.254E+00 -.443E+00 0.204E+04   0.266E-01 -.266E-01 0.610E+01
   0.701E-06 -.117E-01 0.207E+04   -.233E-05 0.112E-01 -.206E+04   -.770E-22 0.208E-03 -.716E+01
   -.279E-01 -.828E-06 0.207E+04   0.284E-01 0.183E-05 -.206E+04   -.452E-03 -.865E-22 -.715E+01
   0.377E-05 0.121E-05 0.683E+03   -.154E-04 -.470E-05 -.684E+03   0.314E-22 0.107E-20 0.371E+00
   -.108E+00 -.933E-01 0.683E+03   0.106E+00 0.933E-01 -.684E+03   0.106E-02 -.573E-04 0.392E+00
   -.765E-05 -.159E+00 -.690E+03   -.345E-04 0.151E+00 0.691E+03   -.228E-22 0.117E-01 -.158E+00
   -.235E+00 0.143E-05 -.691E+03   0.261E+00 -.596E-05 0.691E+03   -.392E-01 -.124E-20 -.144E+00
   -.294E-04 0.125E-04 -.205E+04   0.360E-04 0.200E-05 0.204E+04   -.955E-22 0.381E-23 0.604E+01
   0.202E+00 -.464E+00 -.205E+04   -.254E+00 0.443E+00 0.204E+04   0.266E-01 0.266E-01 0.610E+01
   -.114E-05 0.292E-01 0.207E+04   0.273E-05 -.296E-01 -.206E+04   -.423E-21 0.476E-03 -.716E+01
   0.103E-01 0.119E-05 0.207E+04   -.996E-02 -.227E-05 -.206E+04   -.323E-03 -.196E-21 -.715E+01
   -.354E-05 0.114E-04 0.683E+03   0.533E-05 -.213E-04 -.684E+03   0.507E-22 0.705E-22 0.371E+00
   0.108E+00 0.933E-01 0.683E+03   -.106E+00 -.933E-01 -.684E+03   -.106E-02 0.573E-04 0.392E+00
   -.161E-04 0.315E+00 -.690E+03   0.684E-04 -.351E+00 0.690E+03   0.109E-20 0.445E-01 -.215E+00
   0.308E-01 0.472E-05 -.690E+03   -.190E-01 -.560E-04 0.691E+03   -.978E-02 0.834E-22 -.123E+00
   -.247E-04 0.608E-05 -.205E+04   0.485E-04 -.143E-04 0.204E+04   -.398E-21 -.481E-21 0.611E+01
   -.202E+00 0.464E+00 -.205E+04   0.254E+00 -.443E+00 0.204E+04   -.266E-01 -.266E-01 0.610E+01
   -.815E-06 -.292E-01 0.207E+04   0.234E-05 0.296E-01 -.206E+04   0.227E-21 -.476E-03 -.716E+01
   0.279E-01 -.112E-05 0.207E+04   -.284E-01 0.209E-05 -.206E+04   0.452E-03 -.109E-21 -.715E+01
   -.930E-05 -.909E-05 0.683E+03   0.162E-04 0.218E-04 -.683E+03   -.107E-21 0.304E-21 0.425E+00
   0.108E+00 -.933E-01 0.683E+03   -.106E+00 0.933E-01 -.684E+03   -.106E-02 -.573E-04 0.392E+00
   -.165E-04 -.315E+00 -.690E+03   0.280E-04 0.351E+00 0.690E+03   -.151E-20 -.445E-01 -.215E+00
   0.235E+00 0.153E-04 -.691E+03   -.261E+00 0.619E-05 0.691E+03   0.392E-01 0.510E-21 -.144E+00
   -.360E-04 0.301E-04 -.206E+04   0.415E-04 0.898E-05 0.205E+04   0.278E-21 0.478E-22 0.626E+01
   -.202E+00 -.464E+00 -.205E+04   0.254E+00 0.443E+00 0.204E+04   -.266E-01 0.266E-01 0.610E+01
   0.310E-05 0.135E-01 0.512E+03   -.829E-05 -.193E-01 -.512E+03   -.952E-21 0.800E-02 -.977E-01
   0.439E-03 0.241E-05 0.512E+03   0.421E-02 -.597E-05 -.512E+03   -.652E-02 -.946E-21 -.910E-01
   0.374E-06 0.327E-06 0.155E+04   -.130E-05 -.435E-06 -.156E+04   -.298E-20 0.313E-21 0.341E+01
   -.150E-01 0.152E-01 0.155E+04   0.150E-01 -.153E-01 -.156E+04   0.426E-04 0.749E-04 0.341E+01
   -.122E-03 0.263E+00 -.156E+04   0.291E-04 -.282E+00 0.156E+04   -.304E-21 0.199E-01 -.512E+01
   -.852E-01 -.817E-05 -.156E+04   0.562E-01 -.442E-04 0.156E+04   0.453E-01 0.125E-21 -.510E+01
   -.145E-03 0.189E-03 -.513E+03   -.147E-04 0.937E-05 0.512E+03   -.672E-21 0.159E-21 0.237E+00
   -.899E-01 0.193E+00 -.512E+03   0.871E-01 -.198E+00 0.512E+03   0.964E-02 0.506E-02 0.293E+00
   0.241E-05 -.135E-01 0.512E+03   -.939E-05 0.193E-01 -.512E+03   -.734E-21 -.800E-02 -.977E-01
   -.108E+00 -.153E-05 0.512E+03   0.983E-01 0.417E-05 -.512E+03   0.139E-01 0.846E-21 -.933E-01
   0.816E-06 -.270E-06 0.155E+04   -.223E-05 0.359E-06 -.156E+04   -.103E-21 0.250E-20 0.341E+01
   -.150E-01 -.152E-01 0.155E+04   0.150E-01 0.153E-01 -.156E+04   0.426E-04 -.749E-04 0.341E+01
   -.166E-03 -.263E+00 -.156E+04   0.491E-06 0.282E+00 0.156E+04   -.370E-21 -.199E-01 -.512E+01
   -.340E+00 0.184E-03 -.156E+04   0.298E+00 0.308E-05 0.156E+04   0.795E-01 -.351E-20 -.504E+01
   -.170E-03 -.199E-04 -.512E+03   -.914E-05 -.986E-05 0.511E+03   -.122E-21 -.233E-22 0.304E+00
   -.899E-01 -.193E+00 -.512E+03   0.871E-01 0.198E+00 0.512E+03   0.964E-02 -.506E-02 0.293E+00
   -.594E-05 0.119E+00 0.512E+03   0.129E-04 -.110E+00 -.512E+03   -.764E-21 -.129E-01 -.100E+00
   -.435E-03 0.504E-05 0.512E+03   -.422E-02 -.104E-04 -.512E+03   0.652E-02 0.950E-21 -.910E-01
   -.495E-06 0.131E-05 0.155E+04   0.137E-05 -.274E-05 -.156E+04   0.299E-20 -.123E-20 0.341E+01
   0.150E-01 0.152E-01 0.155E+04   -.150E-01 -.153E-01 -.156E+04   -.426E-04 0.749E-04 0.341E+01
   -.584E-04 0.387E+00 -.156E+04   0.531E-04 -.381E+00 0.156E+04   0.118E-20 -.208E-01 -.496E+01
   0.849E-01 -.151E-04 -.156E+04   -.563E-01 -.537E-04 0.156E+04   -.453E-01 -.119E-20 -.510E+01
   -.146E-03 0.133E-03 -.512E+03   0.243E-04 -.146E-04 0.511E+03   0.158E-20 -.851E-21 0.301E+00
   0.898E-01 0.193E+00 -.512E+03   -.872E-01 -.198E+00 0.512E+03   -.964E-02 0.506E-02 0.293E+00
   -.294E-05 -.119E+00 0.512E+03   0.799E-05 0.110E+00 -.512E+03   0.104E-21 0.129E-01 -.100E+00
   0.108E+00 -.433E-05 0.512E+03   -.983E-01 0.693E-05 -.512E+03   -.139E-01 -.788E-21 -.933E-01
   -.978E-06 -.124E-05 0.155E+04   0.235E-05 0.266E-05 -.156E+04   -.132E-20 0.369E-20 0.341E+01
   0.150E-01 -.152E-01 0.155E+04   -.150E-01 0.153E-01 -.156E+04   -.426E-04 -.749E-04 0.341E+01
   -.515E-04 -.387E+00 -.156E+04   0.280E-04 0.381E+00 0.156E+04   -.198E-20 0.208E-01 -.496E+01
   0.340E+00 0.137E-03 -.156E+04   -.298E+00 -.496E-05 0.156E+04   -.795E-01 0.294E-20 -.504E+01
   -.183E-03 0.824E-04 -.514E+03   0.311E-04 0.138E-04 0.514E+03   -.220E-22 -.113E-20 0.141E+00
   0.899E-01 -.193E+00 -.512E+03   -.871E-01 0.198E+00 0.512E+03   -.964E-02 -.506E-02 0.293E+00
 -----------------------------------------------------------------------------------------------
   -.233E-02 0.146E-02 0.185E+02   0.247E-12 -.174E-12 0.796E-12   -.867E-17 0.867E-18 -.182E+02
 
 
 POSITION                                       TOTAL-FORCE (eV/Angst)
 -----------------------------------------------------------------------------------
      0.00000      6.33074      7.50000        -0.000000      0.000240      0.537433
      2.11025      0.00000      7.50000         0.000013     -0.000000      0.536836
      0.00000      0.00000      9.61025        -0.000000     -0.000000     -0.039316
      2.11025      6.33074      9.61025        -0.000199      0.000031     -0.040589
      0.00000      6.33101     11.73493        -0.000000     -0.004222      0.058224
      2.11019      8.44098     11.73480        -0.001957     -0.000000      0.053689
      0.00000      8.44098     13.84039        -0.000000     -0.000000     -0.063758
      2.11123      6.33156     13.83748        -0.025999     -0.005552     -0.079968
      0.00000      2.11025      7.50000        -0.000000     -0.000240      0.537433
      2.11025      4.22049      7.50000         0.000064     -0.000000      0.537178
      0.00000      4.22049      9.61025        -0.000000     -0.000000     -0.038259
      2.11025      2.11025      9.61025        -0.000199     -0.000031     -0.040589
      0.00000      2.10997     11.73493        -0.000000      0.004222      0.058224
      2.11116      4.22049     11.73519        -0.012827     -0.000000      0.059414
      0.00000      4.22049     13.83673        -0.000000     -0.000000     -0.068950
      2.11123      2.10942     13.83748        -0.025999      0.005552     -0.079968
      4.22049      6.33074      7.50000        -0.000000      0.000039      0.537037
      6.33074      0.00000      7.50000        -0.000013     -0.000000      0.536836
      4.22049      0.00000      9.61025        -0.000000     -0.000000     -0.039561
      6.33074      6.33074      9.61025         0.000199      0.000031     -0.040589
      4.22049      6.32990     11.73580        -0.000000      0.009004      0.040266
      6.33080      0.00000     11.73480         0.001957     -0.000000      0.053689
      4.22049      8.44098     13.83827        -0.000000     -0.000000     -0.084742
      6.32976      6.33156     13.83748         0.025999     -0.005552     -0.079968
      4.22049      2.11025      7.50000        -0.000000     -0.000039      0.537037
      6.33074      4.22049      7.50000        -0.000064     -0.000000      0.537178
      4.22049      4.22049      9.61025        -0.000000     -0.000000     -0.036721
      6.33074      2.11025      9.61025         0.000199     -0.000031     -0.040589
      4.22049      2.11108     11.73580        -0.000000     -0.009004      0.040266
      6.32982      4.22049     11.73519         0.012827     -0.000000      0.059414
      4.22049      4.22049     13.84960        -0.000000     -0.000000     -0.140747
      6.32976      2.10942     13.83748         0.025999      0.005552     -0.079968
      0.00000      6.33074      9.61025        -0.000000      0.002224      0.068602
      2.11025      0.00000      9.61025        -0.001861     -0.000000      0.070093
      0.00000      0.00000      7.50000        -0.000000     -0.000000     -0.355354
      2.11025      6.33074      7.50000        -0.000003     -0.000010     -0.355338
      0.00000      6.33109     13.88591        -0.000000      0.000765     -0.204079
      2.10974      0.00000     13.88667         0.016528     -0.000000     -0.202273
      0.00000      8.44098     11.73027        -0.000000     -0.000000     -0.004603
      2.10961      6.33085     11.72905         0.006888      0.000221      0.005551
      0.00000      2.11025      9.61025        -0.000000     -0.002224      0.068602
      2.11025      4.22049      9.61025         0.003733     -0.000000      0.071231
      0.00000      4.22049      7.50000        -0.000000     -0.000000     -0.355229
      2.11025      2.11025      7.50000        -0.000003      0.000010     -0.355338
      0.00000      2.10989     13.88591        -0.000000     -0.000765     -0.204079
      2.10813      4.22049     13.88636         0.036896     -0.000000     -0.187407
      0.00000      4.22049     11.72825        -0.000000     -0.000000      0.011559
      2.10961      2.11014     11.72905         0.006888     -0.000221      0.005551
      4.22049      6.33074      9.61025        -0.000000     -0.003481      0.071957
      6.33074      0.00000      9.61025         0.001861     -0.000000      0.070093
      4.22049      0.00000      7.50000        -0.000000     -0.000000     -0.355152
      6.33074      6.33074      7.50000         0.000003     -0.000010     -0.355338
      4.22049      6.33193     13.88124        -0.000000     -0.014902     -0.153871
      6.33125      0.00000     13.88667        -0.016528     -0.000000     -0.202273
      4.22049      8.44098     11.72805        -0.000000     -0.000000      0.018814
      6.33138      6.33085     11.72905        -0.006888      0.000221      0.005551
      4.22049      2.11025      9.61025        -0.000000      0.003481      0.071957
      6.33074      4.22049      9.61025        -0.003733     -0.000000      0.071231
      4.22049      4.22049      7.50000        -0.000000     -0.000000     -0.355352
      6.33074      2.11025      7.50000         0.000003      0.000010     -0.355338
      4.22049      2.10905     13.88124        -0.000000      0.014902     -0.153871
      6.33285      4.22049     13.88636        -0.036896     -0.000000     -0.187407
      4.22049      4.22049     11.73184        -0.000000     -0.000000      0.000092
      6.33138      2.11014     11.72905        -0.006888     -0.000221      0.005551
 -----------------------------------------------------------------------------------
    total drift:                               -0.002329      0.001458      0.285947


--------------------------------------------------------------------------------------------------------



  FREE ENERGIE OF THE ION-ELECTRON SYSTEM (eV)
  ---------------------------------------------------
  free  energy   TOTEN  =      -491.22762072 eV

  energy  without entropy=     -491.22762072  energy(sigma->0) =     -491.22762072
 


--------------------------------------------------------------------------------------------------------


    POTLOK:  cpu time      0.6481: real time      0.6497


--------------------------------------------------------------------------------------------------------


     LOOP+:  cpu time     87.1928: real time     87.5563
    4ORBIT:  cpu time      0.0000: real time      0.0000

 total amount of memory used by VASP MPI-rank0    53905. kBytes
=======================================================================

   base      :      30000. kBytes
   nonl-proj :       4988. kBytes
   fftplans  :       3085. kBytes
   grid      :       6872. kBytes
   one-center:         32. kBytes
   wavefun   :       8928. kBytes
 
  
  
 General timing and accounting informations for this job:
 ========================================================
  
                  Total CPU time used (sec):       90.007
                            User time (sec):       85.023
                          System time (sec):        4.983
                         Elapsed time (sec):       91.106
  
                   Maximum memory used (kb):      461432.
                   Average memory used (kb):          N/A
  
                          Minor page faults:       141142
                          Major page faults:          111
                 Voluntary context switches:         1793
