 vasp.6.3.0 20Jan22 (build Apr  1 2022 16:44:48) complex                         
 executed on        HPECrayEX_GCC date 2022.11.13  01:56:51
 running  512 mpi-ranks, with    1 threads/rank
 distrk:  each k-point on  512 cores,    1 groups
 distr:  one band on NCORE=   8 cores,   64 groups


--------------------------------------------------------------------------------------------------------


 INCAR:
   SYSTEM = MgO-rocksalt
   ISMEAR = 0
   SIGMA = 0.05
   EDIFF = 1E-6
   ALGO = ALL
   ISTART = 0
   IBRION = -1
   NSW = 0
   ISYM = 0
   DIPOL = 0.5 0.5 0.5
   IDIPOL = 3
   LDIPOL = .TRUE.
   GGA = RE
   AGGAC = 0.0
   LUSE_VDW = .TRUE.
   LASPH = .TRUE.
   ENCUT = 600
   PREC = Accurate
   LASPH = .TRUE.
   LREAL = .FALSE.
   ISPIN = 2
   MAGMOM = 0.0 0.0 0.0 0.0 0.0 0.0 0.0 0.0 0.0 0.0 0.0 0.0 0.0 0.0 0.0 0.0 0.0 0.0 0.0 0.0 0.0 0.0 0.0 0.0 0.0 0.0 0.0 0.0 0.0 0.0 0.0 0.0 0.0 0.0 0.0 0.0 0.0 0.0 0.0 0.0 0.0 0.0 0.0 0.0 0.0 0.0 0.0 0.0 0.0 0.0 0.0 0.0 0.0 0.0 0.0 0.0 0.0 0.0 0.0 0.0 0.0 0.0 0.0 0.0
   NELM = 200
   NELMIN = 8
   NCORE = 8
   KPAR = 1
   LWAVE = .FALSE.
   LCHARG = .FALSE.

 POTCAR:    PAW_PBE Mg_pv 13Apr2007               
 POTCAR:    PAW_PBE O 08Apr2002                   
 -----------------------------------------------------------------------------
|                                                                             |
|               ----> ADVICE to this user running VASP <----                  |
|                                                                             |
|     You have switched on vdW-DFT.                                           |
|     This routine was written and supplied by Jiri Klimes. We recommend      |
|     that you carefully read and cite the following publications:            |
|       J. Klimes, D.R. Bowler, A. Michelides                                 |
|          J. Phys.: Cond Matt. 22 022201 (2010)                              |
|       J. Klimes, D.R. Bowler, A. Michelides                                 |
|          Phys. Rev. B. 83, 195131 (2011)                                    |
|     and references therein.                                                 |
|                                                                             |
 -----------------------------------------------------------------------------

 POTCAR:    PAW_PBE Mg_pv 13Apr2007               
   SHA256 =  f474ac0dd33840b9ae76c01d57fea79fdf77cdfbb07d5ade72c65f83c709b62b Mg_pv/POTCAR          
   COPYR  = (c) Copyright 13Apr2007 Georg Kresse                                                    
   COPYR  = This file is part of the software VASP. Any use, copying, and all other rights are regul
   COPYR  = If you do not have a valid VASP license, you may not use, copy or distribute this file. 
   VRHFIN =Mg: p6s2                                                                                 
   LEXCH  = PE                                                                                      
   EATOM  =  1056.7344 eV,   77.6678 Ry                                                             
                                                                                                    
   TITEL  = PAW_PBE Mg_pv 13Apr2007                                                                 
   LULTRA =        F    use ultrasoft PP ?                                                          
   IUNSCR =        1    unscreen: 0-lin 1-nonlin 2-no                                               
   RPACOR =    1.500    partial core radius                                                         
   POMASS =   24.305; ZVAL   =    8.000    mass and valenz                                          
   RCORE  =    2.000    outmost cutoff radius                                                       
   RWIGS  =    2.000; RWIGS  =    1.058    wigner-seitz radius (au A)                               
   ENMAX  =  403.929; ENMIN  =  302.947 eV                                                          
   RCLOC  =    1.506    cutoff for local pot                                                        
   LCOR   =        T    correct aug charges                                                         
   LPAW   =        T    paw PP                                                                      
   EAUG   =  758.780                                                                                
   DEXC   =    0.000                                                                                
   RMAX   =    2.045    core radius for proj-oper                                                   
   RAUG   =    1.300    factor for augmentation sphere                                              
   RDEP   =    2.025    radius for radial grids                                                     
   RDEPT  =    1.557    core radius for aug-charge                                                  
                                                                                                    
   Atomic configuration                                                                             
    5 entries                                                                                       
     n  l   j            E        occ.                                                              
     1  0  0.50     -1259.6230   2.0000                                                             
     2  0  0.50       -79.8442   2.0000                                                             
     2  1  1.50       -46.6121   6.0000                                                             
     3  0  0.50        -4.7055   2.0000                                                             
     3  2  1.50        -1.3606   0.0000                                                             
   Description                                                                                      
     l       E           TYP  RCUT    TYP  RCUT                                                     
     1    -46.6121073     23  1.600                                                                 
     1      2.7211652     23  1.600                                                                 
     0     -4.7054661     23  2.000                                                                 
     0     61.2262170     23  2.000                                                                 
     2     -1.3605826     23  2.000                                                                 
  local pseudopotential read in
  partial core-charges read in
  partial kinetic energy density read in
  atomic valenz-charges read in
  non local Contribution for L=           1  read in
    real space projection operators read in
  non local Contribution for L=           1  read in
    real space projection operators read in
  non local Contribution for L=           0  read in
    real space projection operators read in
  non local Contribution for L=           0  read in
    real space projection operators read in
  non local Contribution for L=           2  read in
    real space projection operators read in
    PAW grid and wavefunctions read in

   number of l-projection  operators is LMAX  =           5
   number of lm-projection operators is LMMAX =          13

 POTCAR:    PAW_PBE O 08Apr2002                   
   SHA256 =  818f92134a0a090dccd8ba1447fa70422a3b330e708bb4f08108d8ae51209ddf O/POTCAR              
   COPYR  = (c) Copyright 08Apr2002 Georg Kresse                                                    
   COPYR  = This file is part of the software VASP. Any use, copying, and all other rights are regul
   COPYR  = If you do not have a valid VASP license, you may not use, copy or distribute this file. 
   VRHFIN =O: s2p4                                                                                  
   LEXCH  = PE                                                                                      
   EATOM  =   432.3788 eV,   31.7789 Ry                                                             
                                                                                                    
   TITEL  = PAW_PBE O 08Apr2002                                                                     
   LULTRA =        F    use ultrasoft PP ?                                                          
   IUNSCR =        1    unscreen: 0-lin 1-nonlin 2-no                                               
   RPACOR =    1.200    partial core radius                                                         
   POMASS =   16.000; ZVAL   =    6.000    mass and valenz                                          
   RCORE  =    1.520    outmost cutoff radius                                                       
   RWIGS  =    1.550; RWIGS  =    0.820    wigner-seitz radius (au A)                               
   ENMAX  =  400.000; ENMIN  =  300.000 eV                                                          
   ICORE  =        2    local potential                                                             
   LCOR   =        T    correct aug charges                                                         
   LPAW   =        T    paw PP                                                                      
   EAUG   =  605.392                                                                                
   DEXC   =    0.000                                                                                
   RMAX   =    1.553    core radius for proj-oper                                                   
   RAUG   =    1.300    factor for augmentation sphere                                              
   RDEP   =    1.550    radius for radial grids                                                     
   RDEPT  =    1.329    core radius for aug-charge                                                  
                                                                                                    
   Atomic configuration                                                                             
    4 entries                                                                                       
     n  l   j            E        occ.                                                              
     1  0  0.50      -514.6923   2.0000                                                             
     2  0  0.50       -23.9615   2.0000                                                             
     2  1  0.50        -9.0305   4.0000                                                             
     3  2  1.50        -9.5241   0.0000                                                             
   Description                                                                                      
     l       E           TYP  RCUT    TYP  RCUT                                                     
     0    -23.9615318     23  1.200                                                                 
     0     -9.5240782     23  1.200                                                                 
     1     -9.0304911     23  1.520                                                                 
     1      8.1634956     23  1.520                                                                 
     2     -9.5240782      7  1.500                                                                 
  local pseudopotential read in
  partial core-charges read in
  partial kinetic energy density read in
  kinetic energy density of atom read in
  atomic valenz-charges read in
  non local Contribution for L=           0  read in
    real space projection operators read in
  non local Contribution for L=           0  read in
    real space projection operators read in
  non local Contribution for L=           1  read in
    real space projection operators read in
  non local Contribution for L=           1  read in
    real space projection operators read in
    PAW grid and wavefunctions read in

   number of l-projection  operators is LMAX  =           4
   number of lm-projection operators is LMMAX =           8

 -----------------------------------------------------------------------------
|                                                                             |
|               ----> ADVICE to this user running VASP <----                  |
|                                                                             |
|     You have a (more or less) 'large supercell' and for larger cells it     |
|     might be more efficient to use real-space projection operators.         |
|     Therefore, try LREAL= Auto in the INCAR file.                           |
|     Mind: For very accurate calculation, you might also keep the            |
|     reciprocal projection scheme (i.e. LREAL=.FALSE.).                      |
|                                                                             |
 -----------------------------------------------------------------------------

 -----------------------------------------------------------------------------
|                                                                             |
|               ----> ADVICE to this user running VASP <----                  |
|                                                                             |
|     You enforced a specific xc type in the INCAR file but a different       |
|     type was found in the POTCAR file.                                      |
|     I HOPE YOU KNOW WHAT YOU ARE DOING!                                     |
|                                                                             |
 -----------------------------------------------------------------------------

  PAW_PBE Mg_pv 13Apr2007               :
 energy of atom  1       EATOM=-1056.7344
 kinetic energy error for atom=    0.0221 (will be added to EATOM!!)
  PAW_PBE O 08Apr2002                   :
 energy of atom  2       EATOM= -432.3788
 kinetic energy error for atom=    0.0168 (will be added to EATOM!!)


 POSCAR: Mg  O
  positions in direct lattice
  No initial velocities read in
 exchange correlation table for  LEXCH =       40
   RHO(1)=    0.500       N(1)  =     2000
   RHO(2)=  100.500       N(2)  =     4000



--------------------------------------------------------------------------------------------------------


 ion  position               nearest neighbor table
   1  0.250  0.000  0.352-  35 2.10  36 2.10  43 2.10  52 2.10  33 2.10
   2  0.500  0.250  0.352-  35 2.10  36 2.10  44 2.10  51 2.10  34 2.10
   3  0.250  0.250  0.451-  33 2.10  34 2.10  41 2.10  50 2.10  35 2.10  39 2.10
   4  0.500  0.000  0.451-  33 2.10  34 2.10  42 2.10  49 2.10  36 2.10  40 2.10
   5  0.250  0.000  0.550-  39 2.10  40 2.10  56 2.10  47 2.10  33 2.11  37 2.12
   6  0.500  0.250  0.549-  39 2.10  40 2.10  48 2.10  55 2.10  34 2.10  38 2.14
   7  0.250  0.250  0.648-  39 2.09  54 2.10  45 2.10  37 2.10  38 2.11
   8  0.500  0.999  0.647-  40 2.09  46 2.10  37 2.10  53 2.10  38 2.11
   9  0.250  0.500  0.352-  35 2.10  43 2.10  44 2.10  60 2.10  41 2.10
  10  0.500  0.750  0.352-  36 2.10  43 2.10  44 2.10  59 2.10  42 2.10
  11  0.250  0.750  0.451-  47 2.10  41 2.10  42 2.10  33 2.10  58 2.10  43 2.10
  12  0.500  0.500  0.451-  34 2.10  41 2.10  42 2.10  57 2.10  44 2.10  48 2.10
  13  0.250  0.500  0.550-  39 2.10  48 2.10  64 2.10  47 2.10  41 2.11  45 2.12
  14  0.500  0.750  0.550-  47 2.10  63 2.10  40 2.10  48 2.10  42 2.11  46 2.12
  15  0.250  0.750  0.647-  47 2.09  62 2.10  45 2.10  37 2.10  46 2.10
  16  0.500  0.501  0.647-  48 2.09  46 2.10  45 2.10  61 2.10  38 2.11
  17  0.750  0.000  0.352-  36 2.10  51 2.10  52 2.10  59 2.10  49 2.10
  18  0.000  0.250  0.352-  35 2.10  51 2.10  52 2.10  60 2.10  50 2.10
  19  0.750  0.250  0.451-  55 2.10  49 2.10  50 2.10  34 2.10  57 2.10  51 2.10
  20  0.000  0.000  0.451-  56 2.10  49 2.10  50 2.10  33 2.10  58 2.10  52 2.10
  21  0.750  1.000  0.550-  63 2.10  40 2.10  56 2.10  55 2.10  49 2.11  53 2.12
  22  0.000  0.250  0.549-  56 2.10  64 2.10  39 2.10  55 2.10  50 2.11  54 2.12
  23  0.751  0.250  0.647-  55 2.08  54 2.09  61 2.10  53 2.10  38 2.11
  24  0.000  1.000  0.647-  56 2.09  62 2.10  37 2.10  53 2.10  54 2.10
  25  0.750  0.500  0.352-  44 2.10  51 2.10  59 2.10  60 2.10  57 2.10
  26  0.000  0.750  0.352-  43 2.10  52 2.10  59 2.10  60 2.10  58 2.10
  27  0.750  0.750  0.451-  63 2.10  49 2.10  57 2.10  58 2.10  42 2.10  59 2.10
  28  0.000  0.500  0.451-  64 2.10  50 2.10  57 2.10  58 2.10  41 2.10  60 2.10
  29  0.750  0.500  0.550-  63 2.10  48 2.10  64 2.10  55 2.10  57 2.11  61 2.12
  30  1.000  0.750  0.549-  56 2.10  64 2.10  47 2.10  63 2.10  58 2.10  62 2.12
  31  0.750  0.750  0.647-  63 2.09  62 2.10  61 2.10  53 2.10  46 2.10
  32  0.000  0.500  0.647-  64 2.09  62 2.10  45 2.10  61 2.10  54 2.10
  33  0.250  0.000  0.451-   3 2.10   4 2.10  11 2.10  20 2.10   1 2.10   5 2.11
  34  0.500  0.250  0.451-   3 2.10   4 2.10  12 2.10  19 2.10   2 2.10   6 2.10
  35  0.250  0.250  0.352-   1 2.10   2 2.10   9 2.10  18 2.10   3 2.10
  36  0.500  0.000  0.352-   1 2.10   2 2.10  10 2.10  17 2.10   4 2.10
  37  0.250  0.000  0.649-   8 2.10  24 2.10   7 2.10  15 2.10   5 2.12
  38  0.501  0.250  0.650-   8 2.11  16 2.11  23 2.11   7 2.11   6 2.14
  39  0.250  0.250  0.549-   7 2.09   6 2.10  13 2.10   5 2.10  22 2.10   3 2.10
  40  0.500  0.000  0.549-   8 2.09   6 2.10  21 2.10   5 2.10   4 2.10  14 2.10
  41  0.250  0.500  0.451-   3 2.10  11 2.10  12 2.10  28 2.10   9 2.10  13 2.11
  42  0.500  0.750  0.451-   4 2.10  11 2.10  12 2.10  27 2.10  10 2.10  14 2.11
  43  0.250  0.750  0.352-   1 2.10   9 2.10  10 2.10  26 2.10  11 2.10
  44  0.500  0.500  0.352-   2 2.10   9 2.10  10 2.10  25 2.10  12 2.10
  45  0.250  0.500  0.649-  16 2.10  32 2.10   7 2.10  15 2.10  13 2.12
  46  0.500  0.750  0.649-   8 2.10  16 2.10  31 2.10  15 2.10  14 2.12
  47  0.250  0.750  0.549-  15 2.09  11 2.10  14 2.10  30 2.10   5 2.10  13 2.10
  48  0.500  0.500  0.549-  16 2.09   6 2.10  29 2.10  13 2.10  12 2.10  14 2.10
  49  0.750  0.000  0.451-   4 2.10  19 2.10  20 2.10  27 2.10  17 2.10  21 2.11
  50  0.000  0.250  0.451-   3 2.10  19 2.10  20 2.10  28 2.10  18 2.10  22 2.11
  51  0.750  0.250  0.352-   2 2.10  17 2.10  18 2.10  25 2.10  19 2.10
  52  0.000  0.000  0.352-   1 2.10  17 2.10  18 2.10  26 2.10  20 2.10
  53  0.750  0.000  0.649-  23 2.10   8 2.10  31 2.10  24 2.10  21 2.12
  54  0.000  0.250  0.649-  23 2.09   7 2.10  24 2.10  32 2.10  22 2.12
  55  0.750  0.250  0.549-  23 2.08  19 2.10   6 2.10  21 2.10  29 2.10  22 2.10
  56  1.000  0.000  0.549-  24 2.09  20 2.10  22 2.10  21 2.10   5 2.10  30 2.10
  57  0.750  0.500  0.451-  12 2.10  19 2.10  27 2.10  28 2.10  25 2.10  29 2.11
  58  0.000  0.750  0.451-  11 2.10  20 2.10  27 2.10  28 2.10  26 2.10  30 2.10
  59  0.750  0.750  0.352-  10 2.10  17 2.10  25 2.10  26 2.10  27 2.10
  60  0.000  0.500  0.352-   9 2.10  18 2.10  25 2.10  26 2.10  28 2.10
  61  0.750  0.500  0.649-  23 2.10  16 2.10  31 2.10  32 2.10  29 2.12
  62  1.000  0.750  0.649-  15 2.10  24 2.10  32 2.10  31 2.10  30 2.12
  63  0.750  0.750  0.549-  31 2.09  27 2.10  21 2.10  29 2.10  14 2.10  30 2.10
  64  1.000  0.500  0.549-  32 2.09  28 2.10  22 2.10  29 2.10  13 2.10  30 2.10


IMPORTANT INFORMATION: All symmetrisations will be switched off!
NOSYMM: (Re-)initialisation of all symmetry stuff for point group C_1.


----------------------------------------------------------------------------------------

                                     Primitive cell                                     

  volume of cell :    1504.9259

  direct lattice vectors                    reciprocal lattice vectors
     8.404861995  0.000000000  0.000000000     0.118978753  0.000000000  0.000000000
     0.000000000  8.404861995  0.000000000     0.000000000  0.118978753  0.000000000
     0.000000000  0.000000000 21.303646496     0.000000000  0.000000000  0.046940321

  length of vectors
     8.404861995  8.404861995 21.303646496     0.118978753  0.118978753  0.046940321

  position of ions in fractional coordinates (direct lattice)
     0.250000000  0.000000000  0.352052406
     0.500000000  0.250000000  0.352052406
     0.250000000  0.250000000  0.450684135
     0.500000000  0.000000000  0.450684135
     0.249985449  0.000058100  0.549587328
     0.499956777  0.249999905  0.549449910
     0.249528210  0.250000020  0.647650215
     0.499829180  0.999263264  0.647418908
     0.250000000  0.500000000  0.352052406
     0.500000000  0.750000000  0.352052406
     0.250000000  0.750000000  0.450684135
     0.500000000  0.500000000  0.450684135
     0.249985420  0.499941859  0.549587342
     0.499919692  0.750000022  0.549529040
     0.249767977  0.749999952  0.647273519
     0.499829221  0.500736488  0.647419031
     0.750000000  0.000000000  0.352052406
     0.000000000  0.250000000  0.352052406
     0.750000000  0.250000000  0.450684135
     0.000000000  0.000000000  0.450684135
     0.749971121  0.999920942  0.549558473
     0.000249671  0.249999982  0.549493800
     0.751395963  0.250000111  0.647017190
     0.000064360  0.999831930  0.647296337
     0.750000000  0.500000000  0.352052406
     0.000000000  0.750000000  0.352052406
     0.750000000  0.750000000  0.450684135
     0.000000000  0.500000000  0.450684135
     0.749971160  0.500079030  0.549558494
     0.999988013  0.749999993  0.549468416
     0.750111721  0.749999918  0.647301516
     0.000064317  0.500168022  0.647296356
     0.250000000  0.000000000  0.450684135
     0.500000000  0.250000000  0.450684135
     0.250000000  0.250000000  0.352052406
     0.500000000  0.000000000  0.352052406
     0.250007368  0.000025060  0.649165493
     0.500563850  0.249999333  0.649698472
     0.250289601  0.249999985  0.549362104
     0.500005115  0.000193867  0.549336011
     0.250000000  0.500000000  0.450684135
     0.500000000  0.750000000  0.450684135
     0.250000000  0.750000000  0.352052406
     0.500000000  0.500000000  0.352052406
     0.250007318  0.499974917  0.649165509
     0.499956354  0.750000050  0.649233290
     0.250031315  0.749999984  0.549215034
     0.500005091  0.499806044  0.549336032
     0.750000000  0.000000000  0.450684135
     0.000000000  0.250000000  0.450684135
     0.750000000  0.250000000  0.352052406
     0.000000000  0.000000000  0.352052406
     0.749929062  0.000124083  0.649242088
     0.000110394  0.249999924  0.649132851
     0.749885109  0.249999977  0.549267092
     0.999959735  0.000043092  0.549215459
     0.750000000  0.500000000  0.450684135
     0.000000000  0.750000000  0.450684135
     0.750000000  0.750000000  0.352052406
     0.000000000  0.500000000  0.352052406
     0.749929132  0.499875950  0.649241999
     0.999944835  0.750000039  0.649116864
     0.749892009  0.750000003  0.549235220
     0.999959767  0.499956881  0.549215466

  ion indices of the primitive-cell ions
   primitive index   ion index
                 1           1
                 2           2
                 3           3
                 4           4
                 5           5
                 6           6
                 7           7
                 8           8
                 9           9
                10          10
                11          11
                12          12
                13          13
                14          14
                15          15
                16          16
                17          17
                18          18
                19          19
                20          20
                21          21
                22          22
                23          23
                24          24
                25          25
                26          26
                27          27
                28          28
                29          29
                30          30
                31          31
                32          32
                33          33
                34          34
                35          35
                36          36
                37          37
                38          38
                39          39
                40          40
                41          41
                42          42
                43          43
                44          44
                45          45
                46          46
                47          47
                48          48
                49          49
                50          50
                51          51
                52          52
                53          53
                54          54
                55          55
                56          56
                57          57
                58          58
                59          59
                60          60
                61          61
                62          62
                63          63
                64          64

----------------------------------------------------------------------------------------



 KPOINTS: pymatgen v2020.8.13 with grid density = 

Automatic generation of k-mesh.
 Grid dimensions read from file:
 generate k-points for:    2    2    1

 Generating k-lattice:

  Cartesian coordinates                     Fractional coordinates (reciprocal lattice)
     0.059489377  0.000000000  0.000000000     0.500000000  0.000000000  0.000000000
     0.000000000  0.059489377  0.000000000     0.000000000  0.500000000  0.000000000
     0.000000000  0.000000000  0.046940321     0.000000000  0.000000000  1.000000000

  Length of vectors
     0.059489377  0.059489377  0.046940321

  Shift w.r.t. Gamma in fractional coordinates (k-lattice)
     0.000000000  0.000000000  0.000000000

 
 Subroutine IBZKPT returns following result:
 ===========================================
 
 Found      4 irreducible k-points:
 
 Following reciprocal coordinates:
            Coordinates               Weight
  0.000000  0.000000  0.000000      1.000000
  0.500000  0.000000  0.000000      1.000000
  0.000000  0.500000  0.000000      1.000000
  0.500000  0.500000  0.000000      1.000000
 
 Following cartesian coordinates:
            Coordinates               Weight
  0.000000  0.000000  0.000000      1.000000
  0.059489  0.000000  0.000000      1.000000
  0.000000  0.059489  0.000000      1.000000
  0.059489  0.059489  0.000000      1.000000
 


--------------------------------------------------------------------------------------------------------




 Dimension of arrays:
   k-points           NKPTS =      4   k-points in BZ     NKDIM =      4   number of bands    NBANDS=    320
   number of dos      NEDOS =    301   number of ions     NIONS =     64
   non local maximal  LDIM  =      5   non local SUM 2l+1 LMDIM =     13
   total plane-waves  NPLWV = 882000
   max r-space proj   IRMAX =      1   max aug-charges    IRDMAX=  11749
   dimension x,y,z NGX =    70 NGY =   70 NGZ =  180
   dimension x,y,z NGXF=   140 NGYF=  140 NGZF=  360
   support grid    NGXF=   140 NGYF=  140 NGZF=  360
   ions per type =              32  32
   NGX,Y,Z   is equivalent  to a cutoff of  13.85, 13.85, 14.05 a.u.
   NGXF,Y,Z  is equivalent  to a cutoff of  27.69, 27.69, 28.09 a.u.

 SYSTEM =  MgO-rocksalt                            
 POSCAR =  Mg  O                                   

--------------------------------------------------------------------------------------------------------


  energy-cutoff  :      600.00
  volume of cell :     1504.93
      direct lattice vectors                 reciprocal lattice vectors
     8.404861995  0.000000000  0.000000000     0.118978753  0.000000000  0.000000000
     0.000000000  8.404861995  0.000000000     0.000000000  0.118978753  0.000000000
     0.000000000  0.000000000 21.303646496     0.000000000  0.000000000  0.046940321

  length of vectors
     8.404861995  8.404861995 21.303646496     0.118978753  0.118978753  0.046940321



 k-points in units of 2pi/SCALE and weight: pymatgen v2020.8.13 with grid density = 
   0.00000000  0.00000000  0.00000000       0.250
   0.05948938  0.00000000  0.00000000       0.250
   0.00000000  0.05948938  0.00000000       0.250
   0.05948938  0.05948938  0.00000000       0.250

 k-points in reciprocal lattice and weights: pymatgen v2020.8.13 with grid density = 
   0.00000000  0.00000000  0.00000000       0.250
   0.50000000  0.00000000  0.00000000       0.250
   0.00000000  0.50000000  0.00000000       0.250
   0.50000000  0.50000000  0.00000000       0.250

 position of ions in fractional coordinates (direct lattice) 
   0.25000000  0.00000000  0.35205241
   0.50000000  0.25000000  0.35205241
   0.25000000  0.25000000  0.45068414
   0.50000000  0.00000000  0.45068414
   0.24998545  0.00005810  0.54958733
   0.49995678  0.24999990  0.54944991
   0.24952821  0.25000002  0.64765022
   0.49982918  0.99926326  0.64741891
   0.25000000  0.50000000  0.35205241
   0.50000000  0.75000000  0.35205241
   0.25000000  0.75000000  0.45068414
   0.50000000  0.50000000  0.45068414
   0.24998542  0.49994186  0.54958734
   0.49991969  0.75000002  0.54952904
   0.24976798  0.74999995  0.64727352
   0.49982922  0.50073649  0.64741903
   0.75000000  0.00000000  0.35205241
   0.00000000  0.25000000  0.35205241
   0.75000000  0.25000000  0.45068414
   0.00000000  0.00000000  0.45068414
   0.74997112  0.99992094  0.54955847
   0.00024967  0.24999998  0.54949380
   0.75139596  0.25000011  0.64701719
   0.00006436  0.99983193  0.64729634
   0.75000000  0.50000000  0.35205241
   0.00000000  0.75000000  0.35205241
   0.75000000  0.75000000  0.45068414
   0.00000000  0.50000000  0.45068414
   0.74997116  0.50007903  0.54955849
   0.99998801  0.74999999  0.54946842
   0.75011172  0.74999992  0.64730152
   0.00006432  0.50016802  0.64729636
   0.25000000  0.00000000  0.45068414
   0.50000000  0.25000000  0.45068414
   0.25000000  0.25000000  0.35205241
   0.50000000  0.00000000  0.35205241
   0.25000737  0.00002506  0.64916549
   0.50056385  0.24999933  0.64969847
   0.25028960  0.24999998  0.54936210
   0.50000511  0.00019387  0.54933601
   0.25000000  0.50000000  0.45068414
   0.50000000  0.75000000  0.45068414
   0.25000000  0.75000000  0.35205241
   0.50000000  0.50000000  0.35205241
   0.25000732  0.49997492  0.64916551
   0.49995635  0.75000005  0.64923329
   0.25003132  0.74999998  0.54921503
   0.50000509  0.49980604  0.54933603
   0.75000000  0.00000000  0.45068414
   0.00000000  0.25000000  0.45068414
   0.75000000  0.25000000  0.35205241
   0.00000000  0.00000000  0.35205241
   0.74992906  0.00012408  0.64924209
   0.00011039  0.24999992  0.64913285
   0.74988511  0.24999998  0.54926709
   0.99995974  0.00004309  0.54921546
   0.75000000  0.50000000  0.45068414
   0.00000000  0.75000000  0.45068414
   0.75000000  0.75000000  0.35205241
   0.00000000  0.50000000  0.35205241
   0.74992913  0.49987595  0.64924200
   0.99994483  0.75000004  0.64911686
   0.74989201  0.75000000  0.54923522
   0.99995977  0.49995688  0.54921547

 position of ions in cartesian coordinates  (Angst):
   2.10121550  0.00000000  7.50000000
   4.20243100  2.10121550  7.50000000
   2.10121550  2.10121550  9.60121550
   4.20243100  0.00000000  9.60121550
   2.10109320  0.00048832 11.70821416
   4.20206772  2.10121470 11.70528664
   2.09725016  2.10121566 13.79731123
   4.20099528  8.39866983 13.79238356
   2.10121550  4.20243100  7.50000000
   4.20243100  6.30364650  7.50000000
   2.10121550  6.30364650  9.60121550
   4.20243100  4.20243100  9.60121550
   2.10109295  4.20194233 11.70821445
   4.20175602  6.30364668 11.70697241
   2.09926537  6.30364610 13.78928623
   4.20099562  4.20862108 13.79238618
   6.30364650  0.00000000  7.50000000
   0.00000000  2.10121550  7.50000000
   6.30364650  2.10121550  9.60121550
   0.00000000  0.00000000  9.60121550
   6.30340377  8.40419752 11.70759944
   0.00209845  2.10121535 11.70622168
   6.31537937  2.10121643 13.78382548
   0.00054093  8.40344939 13.78977235
   6.30364650  4.20243100  7.50000000
   0.00000000  6.30364650  7.50000000
   6.30364650  6.30364650  9.60121550
   0.00000000  4.20243100  9.60121550
   6.30340410  4.20309523 11.70759989
   8.40476125  6.30364644 11.70568090
   6.30458549  6.30364581 13.78988268
   0.00054058  4.20384320 13.78977274
   2.10121550  0.00000000  9.60121550
   4.20243100  2.10121550  9.60121550
   2.10121550  2.10121550  7.50000000
   4.20243100  0.00000000  7.50000000
   2.10127743  0.00021063 13.82959219
   4.20717008  2.10120989 13.84094659
   2.10364955  2.10121537 11.70341605
   4.20247399  0.00162943 11.70286018
   2.10121550  4.20243100  9.60121550
   4.20243100  6.30364650  9.60121550
   2.10121550  6.30364650  7.50000000
   4.20243100  4.20243100  7.50000000
   2.10127701  4.20222018 13.82959253
   4.20206416  6.30364692 13.83103651
   2.10147870  6.30364636 11.70028293
   4.20247379  4.20080083 11.70286064
   6.30364650  0.00000000  9.60121550
   0.00000000  2.10121550  9.60121550
   6.30364650  2.10121550  7.50000000
   0.00000000  0.00000000  7.50000000
   6.30305027  0.00104290 13.83122393
   0.00092785  2.10121486 13.82889679
   6.30268085  2.10121531 11.70139196
   8.40452358  0.00036219 11.70029199
   6.30364650  4.20243100  9.60121550
   0.00000000  6.30364650  9.60121550
   6.30364650  6.30364650  7.50000000
   0.00000000  4.20243100  7.50000000
   6.30305086  4.20138838 13.83122203
   8.40439834  6.30364682 13.82855621
   6.30273885  6.30364652 11.70071298
   8.40452385  4.20206859 11.70029214



--------------------------------------------------------------------------------------------------------

--------------------------------------- Iteration      FINAL  ---------------------------------------


--------------------OUTCAR has been truncated-------------------------


--------------------OUTCAR has been truncated-------------------------


--------------------OUTCAR has been truncated-------------------------


--------------------OUTCAR has been truncated-------------------------


--------------------OUTCAR has been truncated-------------------------


--------------------OUTCAR has been truncated-------------------------


--------------------OUTCAR has been truncated-------------------------


--------------------OUTCAR has been truncated-------------------------


--------------------OUTCAR has been truncated-------------------------


--------------------OUTCAR has been truncated-------------------------


  FORCE on cell =-STRESS in cart. coord.  units (eV):
  Direction    XX          YY          ZZ          XY          YZ          ZX
  --------------------------------------------------------------------------------------
  Alpha Z   883.92154   883.92154   883.92154
  Ewald  163775.22310163775.20066************     0.00000    -0.00018     0.25023
  Hartree173788.46222173788.45441************    -0.00000    -0.00009     0.15296
  E(xc)   -2524.50109 -2524.50117 -2527.06245     0.00000    -0.00000     0.00069
  Local  ************************347921.93338     0.00000     0.00027    -0.40878
  n-local -2812.77981 -2812.78067 -2831.60018    -0.00000    -0.00001     0.00781
  augment  1077.24774  1077.24741  1068.49602    -0.00000    -0.00000     0.00225
  Kinetic  7337.16164  7337.16170  7370.57900    -0.00001     0.00005    -0.03900
  Fock        0.00000     0.00000     0.00000     0.00000     0.00000     0.00000
  -------------------------------------------------------------------------------------
  Total      -0.33302    -0.33511    21.66016    -0.00001     0.00004    -0.03382
  in kB      -0.35454    -0.35676    23.05988    -0.00001     0.00004    -0.03601
  external pressure =        7.45 kB  Pullay stress =        0.00 kB


 VOLUME and BASIS-vectors are now :
 -----------------------------------------------------------------------------
  energy-cutoff  :      600.00
  volume of cell :     1504.93
      direct lattice vectors                 reciprocal lattice vectors
     8.404861995  0.000000000  0.000000000     0.118978753  0.000000000  0.000000000
     0.000000000  8.404861995  0.000000000     0.000000000  0.118978753  0.000000000
     0.000000000  0.000000000 21.303646496     0.000000000  0.000000000  0.046940321

  length of vectors
     8.404861995  8.404861995 21.303646496     0.118978753  0.118978753  0.046940321


 FORCES acting on ions:
    Electron-Ion                     Ewald-Force                    Non-Local-Force
 -----------------------------------------------------------------------------------------------
   -.404E-01 -.229E-01 0.209E+04   0.410E-01 0.234E-01 -.209E+04   -.386E-03 -.346E-03 -.649E+01
   0.123E-01 -.262E-04 0.209E+04   -.123E-01 0.235E-04 -.209E+04   0.687E-04 -.391E-06 -.649E+01
   -.698E-01 -.765E-04 0.694E+03   0.822E-01 0.768E-04 -.694E+03   -.896E-02 -.234E-05 0.366E+00
   0.505E-01 0.160E-01 0.694E+03   -.514E-01 -.128E-01 -.694E+03   0.458E-03 -.297E-02 0.355E+00
   -.442E+00 -.374E+00 -.698E+03   0.486E+00 0.428E+00 0.699E+03   -.321E-01 -.441E-01 -.276E+00
   0.657E-01 -.637E-03 -.700E+03   -.919E-01 0.624E-03 0.700E+03   0.311E-01 0.146E-04 -.209E+00
   -.310E+01 -.324E-03 -.208E+04   0.319E+01 0.283E-03 0.208E+04   0.622E-02 0.281E-04 0.572E+01
   -.427E+00 -.287E+01 -.208E+04   0.482E+00 0.302E+01 0.207E+04   -.240E-01 -.325E-01 0.566E+01
   -.405E-01 0.229E-01 0.209E+04   0.410E-01 -.234E-01 -.209E+04   -.390E-03 0.346E-03 -.649E+01
   0.769E-02 0.256E-04 0.209E+04   -.761E-02 -.235E-04 -.209E+04   -.693E-04 -.618E-07 -.649E+01
   -.184E+00 0.784E-04 0.694E+03   0.190E+00 -.784E-04 -.695E+03   -.448E-02 0.162E-05 0.334E+00
   0.505E-01 -.160E-01 0.694E+03   -.514E-01 0.128E-01 -.694E+03   0.459E-03 0.297E-02 0.355E+00
   -.442E+00 0.374E+00 -.698E+03   0.487E+00 -.428E+00 0.699E+03   -.321E-01 0.441E-01 -.275E+00
   -.113E+00 0.550E-03 -.698E+03   0.116E+00 -.548E-03 0.698E+03   0.213E-02 -.104E-04 -.204E+00
   -.174E+00 0.158E-03 -.208E+04   0.131E+00 -.135E-03 0.207E+04   0.487E-01 -.145E-04 0.570E+01
   -.427E+00 0.287E+01 -.208E+04   0.482E+00 -.302E+01 0.207E+04   -.240E-01 0.324E-01 0.566E+01
   0.399E-01 -.195E-01 0.209E+04   -.406E-01 0.194E-01 -.209E+04   0.484E-03 0.854E-04 -.649E+01
   -.106E-01 -.119E-04 0.209E+04   0.113E-01 0.128E-04 -.209E+04   -.453E-03 0.159E-05 -.649E+01
   0.694E-01 -.858E-04 0.694E+03   -.703E-01 0.875E-04 -.694E+03   0.188E-02 0.106E-05 0.334E+00
   -.477E-01 -.103E+00 0.694E+03   0.460E-01 0.107E+00 -.695E+03   0.112E-02 -.269E-02 0.333E+00
   0.491E+00 -.239E+00 -.698E+03   -.532E+00 0.257E+00 0.699E+03   0.302E-01 -.577E-02 -.264E+00
   -.151E+00 -.489E-04 -.697E+03   0.184E+00 0.393E-04 0.697E+03   -.371E-01 0.875E-05 -.210E+00
   0.371E+01 -.751E-04 -.208E+04   -.386E+01 0.173E-04 0.207E+04   -.106E-02 0.329E-04 0.561E+01
   0.248E+00 0.400E-02 -.208E+04   -.271E+00 -.620E-01 0.207E+04   0.105E-01 0.578E-01 0.570E+01
   0.399E-01 0.195E-01 0.209E+04   -.406E-01 -.194E-01 -.209E+04   0.482E-03 -.864E-04 -.649E+01
   -.814E-02 0.892E-05 0.209E+04   0.784E-02 -.129E-04 -.209E+04   0.213E-03 0.109E-05 -.649E+01
   0.183E+00 0.873E-04 0.694E+03   -.193E+00 -.887E-04 -.695E+03   0.692E-02 -.172E-05 0.341E+00
   -.477E-01 0.103E+00 0.694E+03   0.460E-01 -.107E+00 -.695E+03   0.111E-02 0.269E-02 0.333E+00
   0.491E+00 0.239E+00 -.698E+03   -.533E+00 -.257E+00 0.699E+03   0.302E-01 0.577E-02 -.264E+00
   0.843E-01 0.649E-04 -.697E+03   -.821E-01 -.558E-04 0.697E+03   -.399E-02 -.831E-05 -.216E+00
   0.181E+00 -.995E-04 -.208E+04   -.133E+00 0.132E-03 0.207E+04   -.501E-01 -.171E-04 0.569E+01
   0.248E+00 -.402E-02 -.208E+04   -.270E+00 0.621E-01 0.207E+04   0.105E-01 -.578E-01 0.570E+01
   -.152E+00 -.945E-01 0.520E+03   0.154E+00 0.906E-01 -.520E+03   -.142E-02 0.555E-02 -.568E-01
   0.368E-01 -.114E-03 0.520E+03   -.352E-01 0.114E-03 -.520E+03   -.182E-02 -.541E-05 -.407E-01
   -.240E-01 -.137E-04 0.157E+04   0.247E-01 0.130E-04 -.158E+04   -.937E-03 -.577E-06 0.354E+01
   0.799E-02 -.911E-02 0.157E+04   -.786E-02 0.954E-02 -.158E+04   -.192E-03 -.632E-03 0.354E+01
   -.370E+00 -.447E+00 -.158E+04   0.426E+00 0.508E+00 0.158E+04   -.817E-01 -.833E-01 -.492E+01
   -.155E+00 -.127E-02 -.158E+04   0.289E+00 0.125E-02 0.159E+04   -.185E+00 0.843E-04 -.506E+01
   -.588E+00 -.141E-03 -.520E+03   0.639E+00 0.138E-03 0.520E+03   -.834E-01 0.435E-05 0.152E+00
   -.542E-02 -.435E+00 -.519E+03   0.115E-01 0.481E+00 0.519E+03   -.946E-02 -.783E-01 0.208E+00
   -.152E+00 0.945E-01 0.520E+03   0.154E+00 -.906E-01 -.520E+03   -.142E-02 -.555E-02 -.568E-01
   0.202E-02 0.107E-03 0.520E+03   0.709E-03 -.105E-03 -.520E+03   -.341E-02 -.116E-05 -.376E-01
   -.330E-01 0.138E-04 0.157E+04   0.339E-01 -.131E-04 -.158E+04   -.123E-02 -.148E-05 0.354E+01
   0.799E-02 0.911E-02 0.157E+04   -.786E-02 -.954E-02 -.158E+04   -.193E-03 0.630E-03 0.354E+01
   -.370E+00 0.448E+00 -.158E+04   0.427E+00 -.508E+00 0.158E+04   -.816E-01 0.833E-01 -.492E+01
   -.169E+00 0.564E-03 -.158E+04   0.186E+00 -.570E-03 0.158E+04   -.235E-01 -.111E-04 -.496E+01
   -.115E+00 0.153E-03 -.517E+03   0.111E+00 -.149E-03 0.517E+03   -.626E-03 -.124E-05 0.302E+00
   -.539E-02 0.435E+00 -.519E+03   0.115E-01 -.481E+00 0.519E+03   -.945E-02 0.783E-01 0.208E+00
   0.146E+00 -.834E-01 0.520E+03   -.144E+00 0.881E-01 -.520E+03   -.291E-02 -.582E-02 -.549E-01
   -.115E-01 -.297E-04 0.520E+03   -.349E-02 0.317E-04 -.520E+03   0.198E-01 -.118E-05 -.294E-01
   0.228E-01 -.147E-04 0.157E+04   -.239E-01 0.139E-04 -.158E+04   0.166E-02 0.928E-08 0.354E+01
   -.757E-02 -.189E-01 0.157E+04   0.758E-02 0.192E-01 -.158E+04   -.132E-04 -.437E-03 0.354E+01
   0.630E+00 -.216E+00 -.158E+04   -.753E+00 0.309E+00 0.159E+04   0.164E+00 -.135E+00 -.504E+01
   -.658E+00 -.605E-04 -.158E+04   0.715E+00 0.424E-04 0.158E+04   -.404E-01 0.313E-04 -.494E+01
   0.633E+00 -.875E-04 -.518E+03   -.683E+00 0.802E-04 0.517E+03   0.844E-01 0.120E-04 0.300E+00
   0.332E-02 -.294E-01 -.518E+03   -.169E-01 0.330E-01 0.517E+03   0.189E-01 -.809E-02 0.281E+00
   0.146E+00 0.834E-01 0.520E+03   -.144E+00 -.880E-01 -.520E+03   -.291E-02 0.582E-02 -.549E-01
   -.139E-01 0.336E-04 0.521E+03   0.161E-01 -.299E-04 -.521E+03   -.314E-02 -.231E-05 -.236E-01
   0.333E-01 0.133E-04 0.157E+04   -.340E-01 -.140E-04 -.158E+04   0.101E-02 0.209E-05 0.354E+01
   -.758E-02 0.189E-01 0.157E+04   0.758E-02 -.192E-01 -.158E+04   -.130E-04 0.442E-03 0.354E+01
   0.630E+00 0.216E+00 -.158E+04   -.753E+00 -.309E+00 0.159E+04   0.164E+00 0.135E+00 -.504E+01
   0.178E+00 0.932E-04 -.158E+04   -.206E+00 -.827E-04 0.158E+04   0.379E-01 -.220E-04 -.495E+01
   0.161E+00 0.101E-03 -.518E+03   -.167E+00 -.925E-04 0.518E+03   0.129E-01 -.926E-05 0.274E+00
   0.329E-02 0.293E-01 -.518E+03   -.169E-01 -.329E-01 0.517E+03   0.189E-01 0.809E-02 0.281E+00
 -----------------------------------------------------------------------------------------------
   0.484E-01 0.108E-03 0.155E+02   -.407E-12 0.896E-14 -.523E-11   -.483E-01 -.110E-03 -.155E+02


 POSITION                                       TOTAL-FORCE (eV/Angst)
 -----------------------------------------------------------------------------------
      2.10122      0.00000      7.50000         0.000148      0.000133      0.084867
      4.20243      2.10122      7.50000         0.000006     -0.000003      0.084627
      2.10122      2.10122      9.60122         0.003360     -0.000002      0.011227
      4.20243      0.00000      9.60122        -0.000505      0.000205      0.013067
      2.10109      0.00049     11.70821         0.012270      0.010203      0.005726
      4.20207      2.10121     11.70529         0.004980      0.000002      0.106428
      2.09725      2.10122     13.79731         0.099910     -0.000013      0.240864
      4.20100      8.39867     13.79238         0.031068      0.113875      0.284033
      2.10122      4.20243      7.50000         0.000143     -0.000131      0.084869
      4.20243      6.30365      7.50000         0.000011      0.000002      0.084204
      2.10122      6.30365      9.60122         0.001460      0.000002      0.003739
      4.20243      4.20243      9.60122        -0.000503     -0.000206      0.013075
      2.10109      4.20194     11.70821         0.012278     -0.010203      0.005720
      4.20176      6.30365     11.70697         0.004930     -0.000008      0.005051
      2.09927      6.30365     13.78929         0.005268      0.000008      0.278888
      4.20100      4.20862     13.79239         0.031063     -0.113876      0.283995
      6.30365      0.00000      7.50000        -0.000206     -0.000009      0.084974
      0.00000      2.10122      7.50000         0.000211      0.000003      0.083723
      6.30365      2.10122      9.60122         0.000929      0.000003      0.011893
      0.00000      0.00000      9.60122        -0.000603      0.001047      0.003078
      6.30340      8.40420     11.70760        -0.010974      0.011867      0.015855
      0.00210      2.10122     11.70622        -0.003500     -0.000001      0.002591
      6.31538      2.10122     13.78383        -0.155613     -0.000025      0.344451
      0.00054      8.40345     13.78977        -0.012225     -0.000123      0.275776
      6.30365      4.20243      7.50000        -0.000203      0.000009      0.084972
      0.00000      6.30365      7.50000        -0.000083     -0.000003      0.083458
      6.30365      6.30365      9.60122        -0.002908     -0.000003      0.003219
      0.00000      4.20243      9.60122        -0.000607     -0.001046      0.003076
      6.30340      4.20310     11.70760        -0.010980     -0.011865      0.015836
      8.40476      6.30365     11.70568        -0.001838      0.000001      0.012570
      6.30459      6.30365     13.78988        -0.002412      0.000015      0.281149
      0.00054      4.20384     13.78977        -0.012215      0.000127      0.275767
      2.10122      0.00000      9.60122        -0.000051      0.001603      0.035038
      4.20243      2.10122      9.60122        -0.000298     -0.000006      0.024221
      2.10122      2.10122      7.50000        -0.000277     -0.000001     -0.621367
      4.20243      0.00000      7.50000        -0.000066     -0.000200     -0.621479
      2.10128      0.00021     13.82959        -0.025071     -0.022693      0.224350
      4.20717      2.10121     13.84095        -0.051350      0.000066      0.142035
      2.10365      2.10122     11.70342        -0.032716      0.000001     -0.017555
      4.20247      0.00163     11.70286        -0.003371     -0.032249     -0.023078
      2.10122      4.20243      9.60122        -0.000053     -0.001607      0.035038
      4.20243      6.30365      9.60122        -0.000682      0.000000      0.034434
      2.10122      6.30365      7.50000        -0.000360     -0.000001     -0.621223
      4.20243      4.20243      7.50000        -0.000065      0.000199     -0.621480
      2.10128      4.20222     13.82959        -0.025055      0.022679      0.224359
      4.20206      6.30365     13.83104        -0.006444     -0.000017      0.207620
      2.10148      6.30365     11.70028        -0.004872      0.000003      0.008311
      4.20247      4.20080     11.70286        -0.003367      0.032247     -0.023060
      6.30365      0.00000      9.60122        -0.001038     -0.001166      0.032225
      0.00000      2.10122      9.60122         0.004818      0.000001      0.032806
      6.30365      2.10122      7.50000         0.000505     -0.000001     -0.621358
      0.00000      0.00000      7.50000        -0.000008     -0.000126     -0.621177
      6.30305      0.00104     13.83122         0.040831     -0.042068      0.192540
      0.00093      2.10121     13.82890         0.017059      0.000013      0.216801
      6.30268      2.10122     11.70139         0.033816      0.000005     -0.030360
      8.40452      0.00036     11.70029         0.005248     -0.004478      0.005553
      6.30365      4.20243      9.60122        -0.001034      0.001163      0.032224
      0.00000      6.30365      9.60122        -0.000925      0.000001      0.031158
      6.30365      6.30365      7.50000         0.000291      0.000001     -0.621344
      0.00000      4.20243      7.50000        -0.000011      0.000131     -0.621178
      6.30305      4.20139     13.83122         0.040813      0.042051      0.192563
      8.40440      6.30365     13.82856         0.008998     -0.000011      0.214184
      6.30274      6.30365     11.70071         0.006833     -0.000001      0.000876
      8.40452      4.20207     11.70029         0.005242      0.004475      0.005557
 -----------------------------------------------------------------------------------
    total drift:                                0.000122     -0.000002     -0.024780


--------------------------------------------------------------------------------------------------------



  FREE ENERGIE OF THE ION-ELECTRON SYSTEM (eV)
  ---------------------------------------------------
  free  energy   TOTEN  =      -227.29945327 eV

  energy  without entropy=     -227.29945327  energy(sigma->0) =     -227.29945327



--------------------------------------------------------------------------------------------------------


    POTLOK:  cpu time      2.6278: real time      2.6281


--------------------------------------------------------------------------------------------------------


     LOOP+:  cpu time    227.6571: real time    227.8326
    4ORBIT:  cpu time      0.0000: real time      0.0000

 total amount of memory used by VASP MPI-rank0    72361. kBytes
=======================================================================

   base      :      30000. kBytes
   nonl-proj :      11759. kBytes
   fftplans  :       4923. kBytes
   grid      :      13142. kBytes
   one-center:        129. kBytes
   wavefun   :      12408. kBytes

  
  
 General timing and accounting informations for this job:
 ========================================================
  
                  Total CPU time used (sec):      263.852
                            User time (sec):      262.020
                          System time (sec):        1.832
                         Elapsed time (sec):      273.179
  
                   Maximum memory used (kb):      291608.
                   Average memory used (kb):          N/A
  
                          Minor page faults:        88883
                          Major page faults:            0
                 Voluntary context switches:        12461
