 vasp.6.3.0 20Jan22 (build Apr  1 2022 16:44:48) complex                         
 executed on        HPECrayEX_GCC date 2022.11.13  07:31:25
 running 1024 mpi-ranks, with    1 threads/rank
 distrk:  each k-point on 1024 cores,    1 groups
 distr:  one band on NCORE=   8 cores,  128 groups


--------------------------------------------------------------------------------------------------------


 INCAR:
   SYSTEM = MgO-rocksalt
   ISMEAR = 0
   SIGMA = 0.05
   EDIFF = 1E-6
   ALGO = ALL
   ISTART = 0
   IBRION = -1
   NSW = 0
   ISYM = 0
   DIPOL = 0.5 0.5 0.5
   IDIPOL = 3
   LDIPOL = .TRUE.
   LHFCALC = .TRUE.
   GGA = PE
   IVDW = 13
   VDW_S8 = 1.2007
   VDW_A1 = 0.4009
   VDW_A2 = 5.0293
   ENCUT = 600
   PREC = Accurate
   LASPH = .TRUE.
   LREAL = .FALSE.
   ISPIN = 1
   NELM = 200
   NELMIN = 8
   NCORE = 8
   KPAR = 1
   LWAVE = .FALSE.
   LCHARG = .FALSE.

 POTCAR:    PAW_PBE C 08Apr2002                   
 POTCAR:    PAW_PBE O 08Apr2002                   
 POTCAR:    PAW_PBE H 15Jun2001                   
 POTCAR:    PAW_PBE Mg_pv 13Apr2007               
 POTCAR:    PAW_PBE O 08Apr2002                   
 POTCAR:    PAW_PBE C 08Apr2002                   
   SHA256 =  253f7b50bb8d59471dbedb8285d89021f4a42ed1a2c5d38a03a736e69125dd95 C/POTCAR              
   COPYR  = (c) Copyright 08Apr2002 Georg Kresse                                                    
   COPYR  = This file is part of the software VASP. Any use, copying, and all other rights are regul
   COPYR  = If you do not have a valid VASP license, you may not use, copy or distribute this file. 
   VRHFIN =C: s2p2                                                                                  
   LEXCH  = PE                                                                                      
   EATOM  =   147.1560 eV,   10.8157 Ry                                                             
                                                                                                    
   TITEL  = PAW_PBE C 08Apr2002                                                                     
   LULTRA =        F    use ultrasoft PP ?                                                          
   IUNSCR =        1    unscreen: 0-lin 1-nonlin 2-no                                               
   RPACOR =    1.200    partial core radius                                                         
   POMASS =   12.011; ZVAL   =    4.000    mass and valenz                                          
   RCORE  =    1.500    outmost cutoff radius                                                       
   RWIGS  =    1.630; RWIGS  =    0.863    wigner-seitz radius (au A)                               
   ENMAX  =  400.000; ENMIN  =  300.000 eV                                                          
   ICORE  =        2    local potential                                                             
   LCOR   =        T    correct aug charges                                                         
   LPAW   =        T    paw PP                                                                      
   EAUG   =  644.873                                                                                
   DEXC   =    0.000                                                                                
   RMAX   =    1.529    core radius for proj-oper                                                   
   RAUG   =    1.300    factor for augmentation sphere                                              
   RDEP   =    1.501    radius for radial grids                                                     
   RDEPT  =    1.300    core radius for aug-charge                                                  
                                                                                                    
   Atomic configuration                                                                             
    4 entries                                                                                       
     n  l   j            E        occ.                                                              
     1  0  0.50      -273.3789   2.0000                                                             
     2  0  0.50       -13.7508   2.0000                                                             
     2  1  0.50        -5.2854   2.0000                                                             
     3  2  1.50        -5.4423   0.0000                                                             
   Description                                                                                      
     l       E           TYP  RCUT    TYP  RCUT                                                     
     0    -13.7508458     23  1.200                                                                 
     0     -8.2022199     23  1.200                                                                 
     1     -5.2854383     23  1.500                                                                 
     1     34.0145650     23  1.500                                                                 
     2     -5.4423304      7  1.500                                                                 
  local pseudopotential read in
  partial core-charges read in
  partial kinetic energy density read in
  atomic valenz-charges read in
  non local Contribution for L=           0  read in
    real space projection operators read in
  non local Contribution for L=           0  read in
    real space projection operators read in
  non local Contribution for L=           1  read in
    real space projection operators read in
  non local Contribution for L=           1  read in
    real space projection operators read in
    PAW grid and wavefunctions read in

   number of l-projection  operators is LMAX  =           4
   number of lm-projection operators is LMMAX =           8

 POTCAR:    PAW_PBE O 08Apr2002                   
   SHA256 =  818f92134a0a090dccd8ba1447fa70422a3b330e708bb4f08108d8ae51209ddf O/POTCAR              
   COPYR  = (c) Copyright 08Apr2002 Georg Kresse                                                    
   COPYR  = This file is part of the software VASP. Any use, copying, and all other rights are regul
   COPYR  = If you do not have a valid VASP license, you may not use, copy or distribute this file. 
   VRHFIN =O: s2p4                                                                                  
   LEXCH  = PE                                                                                      
   EATOM  =   432.3788 eV,   31.7789 Ry                                                             
                                                                                                    
   TITEL  = PAW_PBE O 08Apr2002                                                                     
   LULTRA =        F    use ultrasoft PP ?                                                          
   IUNSCR =        1    unscreen: 0-lin 1-nonlin 2-no                                               
   RPACOR =    1.200    partial core radius                                                         
   POMASS =   16.000; ZVAL   =    6.000    mass and valenz                                          
   RCORE  =    1.520    outmost cutoff radius                                                       
   RWIGS  =    1.550; RWIGS  =    0.820    wigner-seitz radius (au A)                               
   ENMAX  =  400.000; ENMIN  =  300.000 eV                                                          
   ICORE  =        2    local potential                                                             
   LCOR   =        T    correct aug charges                                                         
   LPAW   =        T    paw PP                                                                      
   EAUG   =  605.392                                                                                
   DEXC   =    0.000                                                                                
   RMAX   =    1.553    core radius for proj-oper                                                   
   RAUG   =    1.300    factor for augmentation sphere                                              
   RDEP   =    1.550    radius for radial grids                                                     
   RDEPT  =    1.329    core radius for aug-charge                                                  
                                                                                                    
   Atomic configuration                                                                             
    4 entries                                                                                       
     n  l   j            E        occ.                                                              
     1  0  0.50      -514.6923   2.0000                                                             
     2  0  0.50       -23.9615   2.0000                                                             
     2  1  0.50        -9.0305   4.0000                                                             
     3  2  1.50        -9.5241   0.0000                                                             
   Description                                                                                      
     l       E           TYP  RCUT    TYP  RCUT                                                     
     0    -23.9615318     23  1.200                                                                 
     0     -9.5240782     23  1.200                                                                 
     1     -9.0304911     23  1.520                                                                 
     1      8.1634956     23  1.520                                                                 
     2     -9.5240782      7  1.500                                                                 
  local pseudopotential read in
  partial core-charges read in
  partial kinetic energy density read in
  kinetic energy density of atom read in
  atomic valenz-charges read in
  non local Contribution for L=           0  read in
    real space projection operators read in
  non local Contribution for L=           0  read in
    real space projection operators read in
  non local Contribution for L=           1  read in
    real space projection operators read in
  non local Contribution for L=           1  read in
    real space projection operators read in
    PAW grid and wavefunctions read in

   number of l-projection  operators is LMAX  =           4
   number of lm-projection operators is LMMAX =           8

 POTCAR:    PAW_PBE H 15Jun2001                   
   SHA256 =  030f79b5d3ab3cf0e668861823c8fb652ff669f3e15e46930bd03bfd63a607b6 H/POTCAR              
   COPYR  = (c) Copyright 15Jun2001 Georg Kresse                                                    
   COPYR  = This file is part of the software VASP. Any use, copying, and all other rights are regul
   COPYR  = If you do not have a valid VASP license, you may not use, copy or distribute this file. 
   VRHFIN =H: ultrasoft test                                                                        
   LEXCH  = PE                                                                                      
   EATOM  =    12.4884 eV,    0.9179 Ry                                                             
                                                                                                    
   TITEL  = PAW_PBE H 15Jun2001                                                                     
   LULTRA =        F    use ultrasoft PP ?                                                          
   IUNSCR =        0    unscreen: 0-lin 1-nonlin 2-no                                               
   RPACOR =    0.000    partial core radius                                                         
   POMASS =    1.000; ZVAL   =    1.000    mass and valenz                                          
   RCORE  =    1.100    outmost cutoff radius                                                       
   RWIGS  =    0.700; RWIGS  =    0.370    wigner-seitz radius (au A)                               
   ENMAX  =  250.000; ENMIN  =  200.000 eV                                                          
   RCLOC  =    0.701    cutoff for local pot                                                        
   LCOR   =        T    correct aug charges                                                         
   LPAW   =        T    paw PP                                                                      
   EAUG   =  400.000                                                                                
   RMAX   =    1.123    core radius for proj-oper                                                   
   RAUG   =    1.200    factor for augmentation sphere                                              
   RDEP   =    1.112    radius for radial grids                                                     
   RDEPT  =    0.926    core radius for aug-charge                                                  
                                                                                                    
   Atomic configuration                                                                             
    2 entries                                                                                       
     n  l   j            E        occ.                                                              
     1  0  0.50        -6.4927   1.0000                                                             
     2  1  0.50        -3.4015   0.0000                                                             
   Description                                                                                      
     l       E           TYP  RCUT    TYP  RCUT                                                     
     0     -6.4927494     23  1.100                                                                 
     0      6.8029130     23  1.100                                                                 
     1     -4.0817478     23  1.100                                                                 
  local pseudopotential read in
  atomic valenz-charges read in
  non local Contribution for L=           0  read in
    real space projection operators read in
  non local Contribution for L=           0  read in
    real space projection operators read in
  non local Contribution for L=           1  read in
    real space projection operators read in
    PAW grid and wavefunctions read in

   number of l-projection  operators is LMAX  =           3
   number of lm-projection operators is LMMAX =           5

 POTCAR:    PAW_PBE Mg_pv 13Apr2007               
   SHA256 =  f474ac0dd33840b9ae76c01d57fea79fdf77cdfbb07d5ade72c65f83c709b62b Mg_pv/POTCAR          
   COPYR  = (c) Copyright 13Apr2007 Georg Kresse                                                    
   COPYR  = This file is part of the software VASP. Any use, copying, and all other rights are regul
   COPYR  = If you do not have a valid VASP license, you may not use, copy or distribute this file. 
   VRHFIN =Mg: p6s2                                                                                 
   LEXCH  = PE                                                                                      
   EATOM  =  1056.7344 eV,   77.6678 Ry                                                             
                                                                                                    
   TITEL  = PAW_PBE Mg_pv 13Apr2007                                                                 
   LULTRA =        F    use ultrasoft PP ?                                                          
   IUNSCR =        1    unscreen: 0-lin 1-nonlin 2-no                                               
   RPACOR =    1.500    partial core radius                                                         
   POMASS =   24.305; ZVAL   =    8.000    mass and valenz                                          
   RCORE  =    2.000    outmost cutoff radius                                                       
   RWIGS  =    2.000; RWIGS  =    1.058    wigner-seitz radius (au A)                               
   ENMAX  =  403.929; ENMIN  =  302.947 eV                                                          
   RCLOC  =    1.506    cutoff for local pot                                                        
   LCOR   =        T    correct aug charges                                                         
   LPAW   =        T    paw PP                                                                      
   EAUG   =  758.780                                                                                
   DEXC   =    0.000                                                                                
   RMAX   =    2.045    core radius for proj-oper                                                   
   RAUG   =    1.300    factor for augmentation sphere                                              
   RDEP   =    2.025    radius for radial grids                                                     
   RDEPT  =    1.557    core radius for aug-charge                                                  
                                                                                                    
   Atomic configuration                                                                             
    5 entries                                                                                       
     n  l   j            E        occ.                                                              
     1  0  0.50     -1259.6230   2.0000                                                             
     2  0  0.50       -79.8442   2.0000                                                             
     2  1  1.50       -46.6121   6.0000                                                             
     3  0  0.50        -4.7055   2.0000                                                             
     3  2  1.50        -1.3606   0.0000                                                             
   Description                                                                                      
     l       E           TYP  RCUT    TYP  RCUT                                                     
     1    -46.6121073     23  1.600                                                                 
     1      2.7211652     23  1.600                                                                 
     0     -4.7054661     23  2.000                                                                 
     0     61.2262170     23  2.000                                                                 
     2     -1.3605826     23  2.000                                                                 
  local pseudopotential read in
  partial core-charges read in
  partial kinetic energy density read in
  atomic valenz-charges read in
  non local Contribution for L=           1  read in
    real space projection operators read in
  non local Contribution for L=           1  read in
    real space projection operators read in
  non local Contribution for L=           0  read in
    real space projection operators read in
  non local Contribution for L=           0  read in
    real space projection operators read in
  non local Contribution for L=           2  read in
    real space projection operators read in
    PAW grid and wavefunctions read in

   number of l-projection  operators is LMAX  =           5
   number of lm-projection operators is LMMAX =          13

 POTCAR:    PAW_PBE O 08Apr2002                   
   SHA256 =  818f92134a0a090dccd8ba1447fa70422a3b330e708bb4f08108d8ae51209ddf O/POTCAR              
   COPYR  = (c) Copyright 08Apr2002 Georg Kresse                                                    
   COPYR  = This file is part of the software VASP. Any use, copying, and all other rights are regul
   COPYR  = If you do not have a valid VASP license, you may not use, copy or distribute this file. 
   VRHFIN =O: s2p4                                                                                  
   LEXCH  = PE                                                                                      
   EATOM  =   432.3788 eV,   31.7789 Ry                                                             
                                                                                                    
   TITEL  = PAW_PBE O 08Apr2002                                                                     
   LULTRA =        F    use ultrasoft PP ?                                                          
   IUNSCR =        1    unscreen: 0-lin 1-nonlin 2-no                                               
   RPACOR =    1.200    partial core radius                                                         
   POMASS =   16.000; ZVAL   =    6.000    mass and valenz                                          
   RCORE  =    1.520    outmost cutoff radius                                                       
   RWIGS  =    1.550; RWIGS  =    0.820    wigner-seitz radius (au A)                               
   ENMAX  =  400.000; ENMIN  =  300.000 eV                                                          
   ICORE  =        2    local potential                                                             
   LCOR   =        T    correct aug charges                                                         
   LPAW   =        T    paw PP                                                                      
   EAUG   =  605.392                                                                                
   DEXC   =    0.000                                                                                
   RMAX   =    1.553    core radius for proj-oper                                                   
   RAUG   =    1.300    factor for augmentation sphere                                              
   RDEP   =    1.550    radius for radial grids                                                     
   RDEPT  =    1.329    core radius for aug-charge                                                  
                                                                                                    
   Atomic configuration                                                                             
    4 entries                                                                                       
     n  l   j            E        occ.                                                              
     1  0  0.50      -514.6923   2.0000                                                             
     2  0  0.50       -23.9615   2.0000                                                             
     2  1  0.50        -9.0305   4.0000                                                             
     3  2  1.50        -9.5241   0.0000                                                             
   Description                                                                                      
     l       E           TYP  RCUT    TYP  RCUT                                                     
     0    -23.9615318     23  1.200                                                                 
     0     -9.5240782     23  1.200                                                                 
     1     -9.0304911     23  1.520                                                                 
     1      8.1634956     23  1.520                                                                 
     2     -9.5240782      7  1.500                                                                 
  local pseudopotential read in
  partial core-charges read in
  partial kinetic energy density read in
  kinetic energy density of atom read in
  atomic valenz-charges read in
  non local Contribution for L=           0  read in
    real space projection operators read in
  non local Contribution for L=           0  read in
    real space projection operators read in
  non local Contribution for L=           1  read in
    real space projection operators read in
  non local Contribution for L=           1  read in
    real space projection operators read in
    PAW grid and wavefunctions read in

   number of l-projection  operators is LMAX  =           4
   number of lm-projection operators is LMMAX =           8

 -----------------------------------------------------------------------------
|                                                                             |
|               ----> ADVICE to this user running VASP <----                  |
|                                                                             |
|     You have a (more or less) 'large supercell' and for larger cells it     |
|     might be more efficient to use real-space projection operators.         |
|     Therefore, try LREAL= Auto in the INCAR file.                           |
|     Mind: For very accurate calculation, you might also keep the            |
|     reciprocal projection scheme (i.e. LREAL=.FALSE.).                      |
|                                                                             |
 -----------------------------------------------------------------------------

  PAW_PBE C 08Apr2002                   :
 energy of atom  1       EATOM= -147.1560
 kinetic energy error for atom=    0.0057 (will be added to EATOM!!)
  PAW_PBE O 08Apr2002                   :
 energy of atom  2       EATOM= -432.3788
 kinetic energy error for atom=    0.0168 (will be added to EATOM!!)
  PAW_PBE H 15Jun2001                   :
 energy of atom  3       EATOM=  -12.4884
 kinetic energy error for atom=    0.0004 (will be added to EATOM!!)
  PAW_PBE Mg_pv 13Apr2007               :
 energy of atom  4       EATOM=-1056.7344
 kinetic energy error for atom=    0.0221 (will be added to EATOM!!)
  PAW_PBE O 08Apr2002                   :
 energy of atom  5       EATOM= -432.3788
 kinetic energy error for atom=    0.0168 (will be added to EATOM!!)


 POSCAR:  C  O  H Mg  O
  positions in direct lattice
  No initial velocities read in
 -----------------------------------------------------------------------------
|                                                                             |
|           W    W    AA    RRRRR   N    N  II  N    N   GGGG   !!!           |
|           W    W   A  A   R    R  NN   N  II  NN   N  G    G  !!!           |
|           W    W  A    A  R    R  N N  N  II  N N  N  G       !!!           |
|           W WW W  AAAAAA  RRRRR   N  N N  II  N  N N  G  GGG   !            |
|           WW  WW  A    A  R   R   N   NN  II  N   NN  G    G                |
|           W    W  A    A  R    R  N    N  II  N    N   GGGG   !!!           |
|                                                                             |
|     Specifying the vdW parameters                                           |
|     VDW_S8 = 1.201                                                          |
|     VDW_A1 = 0.401                                                          |
|     VDW_A2 = 5.029                                                          |
|     in the INCAR file will overwrite the defaults for pbe0. Please make     |
|     sure that is what you intended.                                         |
|                                                                             |
 -----------------------------------------------------------------------------

 exchange correlation table for  LEXCH =        8
   RHO(1)=    0.500       N(1)  =     2000
   RHO(2)=  100.500       N(2)  =     4000



--------------------------------------------------------------------------------------------------------


 ion  position               nearest neighbor table
   1  0.417  0.625  0.795-   3 1.10   6 1.10   5 1.11   2 1.43
   2  0.416  0.494  0.753-   4 1.02   1 1.43  22 2.24
   3  0.521  0.612  0.826-   1 1.10
   4  0.319  0.500  0.725-   2 1.02
   5  0.427  0.739  0.770-   1 1.11
   6  0.310  0.625  0.825-   1 1.10
   7  0.250  0.000  0.351-  39 2.12  41 2.12  42 2.12  49 2.12  58 2.12
   8  0.500  0.250  0.351-  40 2.12  41 2.12  42 2.12  50 2.12  57 2.12
   9  0.250  0.250  0.450-  41 2.12  40 2.12  39 2.12  47 2.12  56 2.12  45 2.13
  10  0.500  0.000  0.450-  46 2.11  42 2.12  39 2.12  40 2.12  48 2.12  55 2.12
  11  0.250  0.000  0.550-  46 2.11  62 2.12  45 2.12  39 2.12  53 2.12  43 2.15
  12  0.500  0.251  0.551-  54 2.11  44 2.11  61 2.12  45 2.12  46 2.13  40 2.14
  13  0.250  0.247  0.648-  43 2.09  45 2.10  44 2.12  60 2.12  51 2.15
  14  0.500  0.000  0.648-  44 2.10  46 2.10  52 2.11  59 2.12  43 2.13
  15  0.250  0.500  0.351-  47 2.12  41 2.12  49 2.12  50 2.12  66 2.12
  16  0.500  0.750  0.351-  48 2.12  42 2.12  49 2.12  50 2.12  65 2.12
  17  0.250  0.750  0.450-  49 2.12  47 2.12  48 2.12  39 2.12  64 2.12  53 2.12
  18  0.500  0.500  0.450-  50 2.12  47 2.12  48 2.12  40 2.12  63 2.12  54 2.14
  19  0.251  0.500  0.550-  54 2.10  45 2.11  53 2.11  70 2.12  47 2.13  51 2.19
  20  0.500  0.749  0.551-  54 2.11  69 2.12  53 2.12  46 2.12  52 2.13  48 2.14
  21  0.249  0.753  0.647-  53 2.08  43 2.09  68 2.11  52 2.12  51 2.14
  22  0.508  0.499  0.654-  67 2.07  44 2.13  52 2.14  54 2.21  51 2.23   2 2.24
  23  0.750  0.000  0.351-  55 2.12  42 2.12  57 2.12  58 2.12  65 2.12
  24  0.000  0.250  0.351-  56 2.12  41 2.12  57 2.12  58 2.12  66 2.12
  25  0.750  0.250  0.450-  57 2.12  55 2.12  56 2.12  40 2.12  63 2.12  61 2.12
  26  0.000  0.000  0.450-  58 2.12  55 2.12  56 2.12  39 2.12  64 2.12  62 2.12
  27  0.750  0.000  0.550-  46 2.12  61 2.12  69 2.12  62 2.12  55 2.12  59 2.15
  28  1.000  0.250  0.550-  61 2.11  45 2.11  70 2.12  62 2.12  56 2.13  60 2.15
  29  0.750  0.249  0.648-  61 2.11  59 2.11  60 2.12  44 2.12  67 2.13
  30  0.999  0.000  0.648-  62 2.11  60 2.11  59 2.11  68 2.11  43 2.12
  31  0.750  0.500  0.351-  63 2.12  57 2.12  50 2.12  65 2.12  66 2.12
  32  0.000  0.750  0.351-  64 2.12  58 2.12  49 2.12  65 2.12  66 2.12
  33  0.750  0.750  0.450-  65 2.12  55 2.12  63 2.12  64 2.12  48 2.12  69 2.12
  34  0.000  0.500  0.450-  66 2.12  56 2.12  63 2.12  64 2.12  47 2.12  70 2.12
  35  0.749  0.500  0.550-  54 2.11  61 2.12  69 2.12  70 2.13  63 2.13  67 2.14
  36  1.000  0.750  0.550-  69 2.11  70 2.11  53 2.12  62 2.12  64 2.13  68 2.15
  37  0.750  0.751  0.648-  69 2.10  59 2.11  68 2.11  52 2.12  67 2.13
  38  0.997  0.500  0.648-  67 2.07  51 2.09  70 2.10  60 2.12  68 2.13
  39  0.250  0.000  0.450-   7 2.12   9 2.12  10 2.12  17 2.12  26 2.12  11 2.12
  40  0.500  0.250  0.450-   8 2.12   9 2.12  10 2.12  18 2.12  25 2.12  12 2.14
  41  0.250  0.250  0.351-   9 2.12   8 2.12   7 2.12  15 2.12  24 2.12
  42  0.500  0.000  0.351-  10 2.12   8 2.12   7 2.12  16 2.12  23 2.12
  43  0.250  1.000  0.650-  21 2.09  13 2.09  30 2.12  14 2.13  11 2.15
  44  0.500  0.248  0.650-  14 2.10  12 2.11  13 2.12  29 2.12  22 2.13
  45  0.250  0.251  0.550-  13 2.10  19 2.11  28 2.11  11 2.12  12 2.12   9 2.13
  46  0.500  1.000  0.549-  14 2.10  11 2.11  10 2.11  27 2.12  20 2.12  12 2.13
  47  0.250  0.500  0.450-  15 2.12   9 2.12  17 2.12  18 2.12  34 2.12  19 2.13
  48  0.500  0.750  0.450-  16 2.12  10 2.12  17 2.12  18 2.12  33 2.12  20 2.14
  49  0.250  0.750  0.351-  17 2.12  15 2.12  16 2.12   7 2.12  32 2.12
  50  0.500  0.500  0.351-  18 2.12  15 2.12  16 2.12   8 2.12  31 2.12
  51  0.244  0.500  0.653-  38 2.09  21 2.14  13 2.15  19 2.19  22 2.23
  52  0.500  0.752  0.650-  14 2.11  21 2.12  37 2.12  20 2.13  22 2.14
  53  0.250  0.749  0.550-  21 2.08  19 2.11  36 2.12  20 2.12  17 2.12  11 2.12
  54  0.499  0.500  0.551-  19 2.10  20 2.11  12 2.11  35 2.11  18 2.14  22 2.21
  55  0.750  0.000  0.450-  23 2.12  10 2.12  25 2.12  26 2.12  33 2.12  27 2.12
  56  0.000  0.250  0.450-  24 2.12   9 2.12  25 2.12  26 2.12  34 2.12  28 2.13
  57  0.750  0.250  0.351-  25 2.12  23 2.12  24 2.12   8 2.12  31 2.12
  58  0.000  0.000  0.351-  26 2.12  23 2.12  24 2.12   7 2.12  32 2.12
  59  0.750  1.000  0.651-  37 2.11  29 2.11  30 2.11  14 2.12  27 2.15
  60  1.000  0.249  0.651-  30 2.11  29 2.12  13 2.12  38 2.12  28 2.15
  61  0.750  0.250  0.550-  29 2.11  28 2.11  35 2.12  27 2.12  12 2.12  25 2.12
  62  0.000  1.000  0.550-  30 2.11  11 2.12  36 2.12  26 2.12  28 2.12  27 2.12
  63  0.750  0.500  0.450-  31 2.12  25 2.12  18 2.12  33 2.12  34 2.12  35 2.13
  64  0.000  0.750  0.450-  32 2.12  26 2.12  17 2.12  33 2.12  34 2.12  36 2.13
  65  0.750  0.750  0.351-  33 2.12  23 2.12  31 2.12  32 2.12  16 2.12
  66  0.000  0.500  0.351-  34 2.12  24 2.12  31 2.12  32 2.12  15 2.12
  67  0.752  0.500  0.651-  22 2.07  38 2.07  37 2.13  29 2.13  35 2.14
  68  1.000  0.751  0.651-  30 2.11  21 2.11  37 2.11  38 2.13  36 2.15
  69  0.750  0.750  0.550-  37 2.10  36 2.11  35 2.12  20 2.12  27 2.12  33 2.12
  70  0.001  0.500  0.550-  38 2.10  36 2.11  28 2.12  19 2.12  34 2.12  35 2.13


IMPORTANT INFORMATION: All symmetrisations will be switched off!
NOSYMM: (Re-)initialisation of all symmetry stuff for point group C_1.


----------------------------------------------------------------------------------------

                                     Primitive cell                                     

  volume of cell :    1530.6606

  direct lattice vectors                    reciprocal lattice vectors
     8.467142631  0.000000000  0.000000000     0.118103597  0.000000000  0.000000000
     0.000000000  8.467142631  0.000000000     0.000000000  0.118103597  0.000000000
     0.000000000  0.000000000 21.350356973     0.000000000  0.000000000  0.046837624

  length of vectors
     8.467142631  8.467142631 21.350356973     0.118103597  0.118103597  0.046837624

  position of ions in fractional coordinates (direct lattice)
     0.417145731  0.625114314  0.795303178
     0.416243056  0.494284760  0.752737042
     0.520759118  0.612492048  0.825848349
     0.319024377  0.500476709  0.724771716
     0.426515024  0.738603189  0.769994501
     0.310123169  0.625357477  0.824736762
     0.250000000  0.000000000  0.351282183
     0.500000000  0.250000000  0.351282183
     0.250000000  0.250000000  0.450427394
     0.500000000  0.000000000  0.450427394
     0.250264722  0.000179902  0.549793077
     0.500125687  0.251070989  0.550545488
     0.250105550  0.247113388  0.648190854
     0.500497328  0.000424513  0.647948916
     0.250000000  0.500000000  0.351282183
     0.500000000  0.750000000  0.351282183
     0.250000000  0.750000000  0.450427394
     0.500000000  0.500000000  0.450427394
     0.251073756  0.499797192  0.550386800
     0.500184536  0.748846880  0.550541270
     0.249373373  0.752914129  0.647432335
     0.507533811  0.499240675  0.654115664
     0.750000000  0.000000000  0.351282183
     0.000000000  0.250000000  0.351282183
     0.750000000  0.250000000  0.450427394
     0.000000000  0.000000000  0.450427394
     0.749721423  0.000079796  0.549874252
     0.999836035  0.250139509  0.550088970
     0.749927135  0.248820074  0.648371929
     0.999422222  0.000106480  0.648224466
     0.750000000  0.500000000  0.351282183
     0.000000000  0.750000000  0.351282183
     0.750000000  0.750000000  0.450427394
     0.000000000  0.500000000  0.450427394
     0.749038345  0.499877441  0.550310009
     0.999712248  0.749776244  0.549993980
     0.750328273  0.751114337  0.648133803
     0.997197931  0.499753937  0.648253977
     0.250000000  0.000000000  0.450427394
     0.500000000  0.250000000  0.450427394
     0.250000000  0.250000000  0.351282183
     0.500000000  0.000000000  0.351282183
     0.249585705  0.999794051  0.650415851
     0.499887771  0.248315324  0.649562701
     0.249595584  0.250675159  0.549964277
     0.499770397  0.999748500  0.549441756
     0.250000000  0.500000000  0.450427394
     0.500000000  0.750000000  0.450427394
     0.250000000  0.750000000  0.351282183
     0.500000000  0.500000000  0.351282183
     0.243975175  0.500270639  0.653110089
     0.499755896  0.751671263  0.650354349
     0.249695542  0.749285646  0.549878961
     0.499469303  0.500158711  0.550804860
     0.750000000  0.000000000  0.450427394
     0.000000000  0.250000000  0.450427394
     0.750000000  0.250000000  0.351282183
     0.000000000  0.000000000  0.351282183
     0.750210766  0.999854473  0.650517997
     0.999885828  0.249221872  0.650631400
     0.750373023  0.250089999  0.549693431
     0.000178120  0.999903798  0.549631109
     0.750000000  0.500000000  0.450427394
     0.000000000  0.750000000  0.450427394
     0.750000000  0.750000000  0.351282183
     0.000000000  0.500000000  0.351282183
     0.752251552  0.500164108  0.650715413
     0.999902752  0.750713033  0.650595717
     0.750214129  0.749860014  0.549714451
     0.000506868  0.500023536  0.549879667

  ion indices of the primitive-cell ions
   primitive index   ion index
                 1           1
                 2           2
                 3           3
                 4           4
                 5           5
                 6           6
                 7           7
                 8           8
                 9           9
                10          10
                11          11
                12          12
                13          13
                14          14
                15          15
                16          16
                17          17
                18          18
                19          19
                20          20
                21          21
                22          22
                23          23
                24          24
                25          25
                26          26
                27          27
                28          28
                29          29
                30          30
                31          31
                32          32
                33          33
                34          34
                35          35
                36          36
                37          37
                38          38
                39          39
                40          40
                41          41
                42          42
                43          43
                44          44
                45          45
                46          46
                47          47
                48          48
                49          49
                50          50
                51          51
                52          52
                53          53
                54          54
                55          55
                56          56
                57          57
                58          58
                59          59
                60          60
                61          61
                62          62
                63          63
                64          64
                65          65
                66          66
                67          67
                68          68
                69          69
                70          70

----------------------------------------------------------------------------------------



 KPOINTS: pymatgen v2020.8.13 with grid density = 

Automatic generation of k-mesh.
 Grid dimensions read from file:
 generate k-points for:    2    2    1

 Generating k-lattice:

  Cartesian coordinates                     Fractional coordinates (reciprocal lattice)
     0.059051798  0.000000000  0.000000000     0.500000000  0.000000000  0.000000000
     0.000000000  0.059051798  0.000000000     0.000000000  0.500000000  0.000000000
     0.000000000  0.000000000  0.046837624     0.000000000  0.000000000  1.000000000

  Length of vectors
     0.059051798  0.059051798  0.046837624

  Shift w.r.t. Gamma in fractional coordinates (k-lattice)
     0.000000000  0.000000000  0.000000000

 
 Subroutine IBZKPT returns following result:
 ===========================================
 
 Found      4 irreducible k-points:
 
 Following reciprocal coordinates:
            Coordinates               Weight
  0.000000  0.000000  0.000000      1.000000
  0.500000  0.000000  0.000000      1.000000
  0.000000  0.500000  0.000000      1.000000
  0.500000  0.500000  0.000000      1.000000
 
 Following cartesian coordinates:
            Coordinates               Weight
  0.000000  0.000000  0.000000      1.000000
  0.059052  0.000000  0.000000      1.000000
  0.000000  0.059052  0.000000      1.000000
  0.059052  0.059052  0.000000      1.000000
 
 
 Subroutine IBZKPT_HF returns following result:
 ==============================================
 
 Found      4 k-points in 1st BZ
 the following      4 k-points will be used (e.g. in the exchange kernel)
 Following reciprocal coordinates:   # in IRBZ
  0.000000  0.000000  0.000000    0.25000000   1 t-inv F
  0.500000  0.000000  0.000000    0.25000000   2 t-inv F
  0.000000  0.500000  0.000000    0.25000000   3 t-inv F
  0.500000  0.500000  0.000000    0.25000000   4 t-inv F


--------------------------------------------------------------------------------------------------------




 Dimension of arrays:
   k-points           NKPTS =      4   k-points in BZ     NKDIM =      4   number of bands    NBANDS=    384
   number of dos      NEDOS =    301   number of ions     NIONS =     70
   non local maximal  LDIM  =      5   non local SUM 2l+1 LMDIM =     13
   total plane-waves  NPLWV = 882000
   max r-space proj   IRMAX =      1   max aug-charges    IRDMAX=  11554
   dimension x,y,z NGX =    70 NGY =   70 NGZ =  180
   dimension x,y,z NGXF=   140 NGYF=  140 NGZF=  360
   support grid    NGXF=   140 NGYF=  140 NGZF=  360
   ions per type =               1   1   4  32  32
   NGX,Y,Z   is equivalent  to a cutoff of  13.74, 13.74, 14.02 a.u.
   NGXF,Y,Z  is equivalent  to a cutoff of  27.49, 27.49, 28.03 a.u.

 SYSTEM =  MgO-rocksalt                            
 POSCAR =   C  O  H Mg  O                          

--------------------------------------------------------------------------------------------------------


  energy-cutoff  :      600.00
  volume of cell :     1530.66
      direct lattice vectors                 reciprocal lattice vectors
     8.467142631  0.000000000  0.000000000     0.118103597  0.000000000  0.000000000
     0.000000000  8.467142631  0.000000000     0.000000000  0.118103597  0.000000000
     0.000000000  0.000000000 21.350356973     0.000000000  0.000000000  0.046837624

  length of vectors
     8.467142631  8.467142631 21.350356973     0.118103597  0.118103597  0.046837624



 k-points in units of 2pi/SCALE and weight: pymatgen v2020.8.13 with grid density = 
   0.00000000  0.00000000  0.00000000       0.250
   0.05905180  0.00000000  0.00000000       0.250
   0.00000000  0.05905180  0.00000000       0.250
   0.05905180  0.05905180  0.00000000       0.250

 k-points in reciprocal lattice and weights: pymatgen v2020.8.13 with grid density = 
   0.00000000  0.00000000  0.00000000       0.250
   0.50000000  0.00000000  0.00000000       0.250
   0.00000000  0.50000000  0.00000000       0.250
   0.50000000  0.50000000  0.00000000       0.250

 position of ions in fractional coordinates (direct lattice) 
   0.41714573  0.62511431  0.79530318
   0.41624306  0.49428476  0.75273704
   0.52075912  0.61249205  0.82584835
   0.31902438  0.50047671  0.72477172
   0.42651502  0.73860319  0.76999450
   0.31012317  0.62535748  0.82473676
   0.25000000  0.00000000  0.35128218
   0.50000000  0.25000000  0.35128218
   0.25000000  0.25000000  0.45042739
   0.50000000  0.00000000  0.45042739
   0.25026472  0.00017990  0.54979308
   0.50012569  0.25107099  0.55054549
   0.25010555  0.24711339  0.64819085
   0.50049733  0.00042451  0.64794892
   0.25000000  0.50000000  0.35128218
   0.50000000  0.75000000  0.35128218
   0.25000000  0.75000000  0.45042739
   0.50000000  0.50000000  0.45042739
   0.25107376  0.49979719  0.55038680
   0.50018454  0.74884688  0.55054127
   0.24937337  0.75291413  0.64743234
   0.50753381  0.49924068  0.65411566
   0.75000000  0.00000000  0.35128218
   0.00000000  0.25000000  0.35128218
   0.75000000  0.25000000  0.45042739
   0.00000000  0.00000000  0.45042739
   0.74972142  0.00007980  0.54987425
   0.99983603  0.25013951  0.55008897
   0.74992713  0.24882007  0.64837193
   0.99942222  0.00010648  0.64822447
   0.75000000  0.50000000  0.35128218
   0.00000000  0.75000000  0.35128218
   0.75000000  0.75000000  0.45042739
   0.00000000  0.50000000  0.45042739
   0.74903835  0.49987744  0.55031001
   0.99971225  0.74977624  0.54999398
   0.75032827  0.75111434  0.64813380
   0.99719793  0.49975394  0.64825398
   0.25000000  0.00000000  0.45042739
   0.50000000  0.25000000  0.45042739
   0.25000000  0.25000000  0.35128218
   0.50000000  0.00000000  0.35128218
   0.24958571  0.99979405  0.65041585
   0.49988777  0.24831532  0.64956270
   0.24959558  0.25067516  0.54996428
   0.49977040  0.99974850  0.54944176
   0.25000000  0.50000000  0.45042739
   0.50000000  0.75000000  0.45042739
   0.25000000  0.75000000  0.35128218
   0.50000000  0.50000000  0.35128218
   0.24397518  0.50027064  0.65311009
   0.49975590  0.75167126  0.65035435
   0.24969554  0.74928565  0.54987896
   0.49946930  0.50015871  0.55080486
   0.75000000  0.00000000  0.45042739
   0.00000000  0.25000000  0.45042739
   0.75000000  0.25000000  0.35128218
   0.00000000  0.00000000  0.35128218
   0.75021077  0.99985447  0.65051800
   0.99988583  0.24922187  0.65063140
   0.75037302  0.25009000  0.54969343
   0.00017812  0.99990380  0.54963111
   0.75000000  0.50000000  0.45042739
   0.00000000  0.75000000  0.45042739
   0.75000000  0.75000000  0.35128218
   0.00000000  0.50000000  0.35128218
   0.75225155  0.50016411  0.65071541
   0.99990275  0.75071303  0.65059572
   0.75021413  0.74986001  0.54971445
   0.00050687  0.50002354  0.54987967

 position of ions in cartesian coordinates  (Angst):
   3.53203240  5.29293206 16.98000675
   3.52438933  4.18517956 16.07120455
   4.40934172  5.18605753 17.63215707
   2.70122491  4.23760767 15.47413487
   3.61136355  6.25385855 16.43965747
   2.62585711  5.29499095 17.60842428
   2.11678566  0.00000000  7.50000000
   4.23357132  2.11678566  7.50000000
   2.11678566  2.11678566  9.61678566
   4.23357132  0.00000000  9.61678566
   2.11902709  0.00152326 11.73827846
   4.23463553  2.12585387 11.75434271
   2.11767937  2.09234430 13.83910613
   4.23778226  0.00359441 13.83394065
   2.11678566  4.23357132  7.50000000
   4.23357132  6.35035697  7.50000000
   2.11678566  6.35035697  9.61678566
   4.23357132  4.23357132  9.61678566
   2.12587730  4.23185411 11.75095466
   4.23513381  6.34059334 11.75425265
   2.11147992  6.37503132 13.82291147
   4.29736117  4.22714201 13.96560293
   6.35035697  0.00000000  7.50000000
   0.00000000  2.11678566  7.50000000
   6.35035697  2.11678566  9.61678566
   0.00000000  0.00000000  9.61678566
   6.34799822  0.00067564 11.74001158
   8.46575431  2.11796690 11.74459587
   6.34974001  2.10679505 13.84297213
   8.46225050  0.00090158 13.83982375
   6.35035697  4.23357132  7.50000000
   0.00000000  6.35035697  7.50000000
   6.35035697  6.35035697  9.61678566
   0.00000000  4.23357132  9.61678566
   6.34221450  4.23253359 11.74931515
   8.46470620  6.34846240 11.74256780
   6.35313650  6.35979222 13.83788806
   8.44341711  4.23148787 13.84045382
   2.11678566  0.00000000  9.61678566
   4.23357132  2.11678566  9.61678566
   2.11678566  2.11678566  7.50000000
   4.23357132  0.00000000  7.50000000
   2.11327776  8.46539883 13.88661060
   4.23262106  2.10252127 13.86839554
   2.11336141  2.12250233 11.74193363
   4.23162724  8.46501314 11.73077763
   2.11678566  4.23357132  9.61678566
   4.23357132  6.35035697  9.61678566
   2.11678566  6.35035697  7.50000000
   4.23357132  4.23357132  7.50000000
   2.06577261  4.23586285 13.94413354
   4.23150445  6.36450779 13.88529751
   2.11420777  6.34430844 11.74011212
   4.22907783  4.23491515 11.75988039
   6.35035697  0.00000000  9.61678566
   0.00000000  2.11678566  9.61678566
   6.35035697  2.11678566  7.50000000
   0.00000000  0.00000000  7.50000000
   6.35214156  8.46591043 13.88879145
   8.46617592  2.11019714 13.89121264
   6.35351541  2.11754769 11.73615097
   0.00150816  8.46632807 11.73482039
   6.35035697  4.23357132  9.61678566
   0.00000000  6.35035697  9.61678566
   6.35035697  6.35035697  7.50000000
   0.00000000  4.23357132  7.50000000
   6.36942118  4.23496084 13.89300636
   8.46631922  6.35639432 13.89045080
   6.35217003  6.34917169 11.73659977
   0.00429172  4.23377060 11.74012718



--------------------------------------------------------------------------------------------------------

--------------------------------------- Iteration      FINAL  ---------------------------------------


--------------------OUTCAR has been truncated-------------------------


--------------------OUTCAR has been truncated-------------------------


--------------------OUTCAR has been truncated-------------------------


--------------------OUTCAR has been truncated-------------------------


--------------------OUTCAR has been truncated-------------------------


--------------------OUTCAR has been truncated-------------------------


--------------------OUTCAR has been truncated-------------------------


--------------------OUTCAR has been truncated-------------------------


--------------------OUTCAR has been truncated-------------------------


--------------------OUTCAR has been truncated-------------------------



 VOLUME and BASIS-vectors are now :
 -----------------------------------------------------------------------------
  energy-cutoff  :      600.00
  volume of cell :     1530.66
      direct lattice vectors                 reciprocal lattice vectors
     8.467142631  0.000000000  0.000000000     0.118103597  0.000000000  0.000000000
     0.000000000  8.467142631  0.000000000     0.000000000  0.118103597  0.000000000
     0.000000000  0.000000000 21.350356973     0.000000000  0.000000000  0.046837624

  length of vectors
     8.467142631  8.467142631 21.350356973     0.118103597  0.118103597  0.046837624


 FORCES acting on ions:
    Electron-Ion                     Ewald-Force                    Non-Local-Force
 -----------------------------------------------------------------------------------------------
   -.230E+01 -.949E+02 -.101E+04   0.257E+01 0.994E+02 0.102E+04   -.247E+00 -.443E+01 -.344E+01
   -.292E+02 0.137E+03 -.159E+04   0.534E+02 -.169E+03 0.159E+04   -.212E+02 0.275E+02 -.474E-01
   -.487E+02 -.312E+01 -.244E+03   0.530E+02 0.259E+01 0.247E+03   -.438E+01 0.527E+00 -.327E+01
   0.672E+02 0.600E+01 -.250E+03   -.723E+02 -.591E+01 0.247E+03   0.534E+01 -.137E+00 0.389E+01
   -.457E+01 -.606E+02 -.238E+03   0.506E+01 0.652E+02 0.236E+03   -.470E+00 -.467E+01 0.265E+01
   0.488E+02 -.894E+01 -.243E+03   -.532E+02 0.895E+01 0.246E+03   0.440E+01 -.228E-01 -.311E+01
   0.930E-01 -.115E+00 0.208E+04   -.882E-01 0.116E+00 -.207E+04   -.298E-02 -.886E-03 -.673E+01
   -.794E-01 -.234E-01 0.208E+04   0.822E-01 0.304E-01 -.207E+04   -.168E-02 -.466E-02 -.677E+01
   0.157E+00 0.145E+00 0.729E+03   -.138E+00 -.611E-01 -.729E+03   -.102E-01 -.535E-01 0.526E+00
   -.467E+00 -.514E+00 0.730E+03   0.498E+00 0.499E+00 -.730E+03   -.194E-01 0.102E-01 0.264E+00
   0.444E+01 -.211E+01 -.605E+03   -.436E+01 0.217E+01 0.605E+03   -.685E-01 -.526E-01 -.108E+00
   -.208E+01 0.454E+01 -.602E+03   0.213E+01 -.421E+01 0.603E+03   -.449E-01 -.283E+00 -.998E+00
   0.267E+02 0.312E+02 -.193E+04   -.268E+02 -.324E+02 0.192E+04   -.532E-02 0.105E+01 0.597E+01
   -.929E+01 -.102E+02 -.195E+04   0.949E+01 0.103E+02 0.194E+04   -.184E+00 -.153E+00 0.585E+01
   0.610E-01 0.115E+00 0.208E+04   -.518E-01 -.117E+00 -.207E+04   -.603E-02 0.903E-03 -.676E+01
   -.911E-01 0.230E-01 0.208E+04   0.942E-01 -.302E-01 -.207E+04   -.192E-02 0.482E-02 -.677E+01
   0.199E+00 -.159E+00 0.730E+03   -.156E+00 0.751E-01 -.730E+03   -.257E-01 0.537E-01 0.521E+00
   -.521E+00 0.504E+00 0.727E+03   0.495E+00 -.493E+00 -.728E+03   0.179E-01 -.760E-02 0.629E+00
   0.395E+01 0.220E+01 -.608E+03   -.367E+01 -.226E+01 0.607E+03   -.249E+00 0.507E-01 0.848E+00
   -.275E+01 -.455E+01 -.601E+03   0.283E+01 0.422E+01 0.601E+03   -.706E-01 0.287E+00 -.630E+00
   0.335E+02 -.327E+02 -.190E+04   -.337E+02 0.339E+02 0.189E+04   0.201E+00 -.105E+01 0.604E+01
   -.408E+02 0.140E+02 -.185E+04   0.430E+02 -.142E+02 0.184E+04   -.201E+01 0.140E+00 0.269E+01
   -.923E-01 -.103E+00 0.208E+04   0.874E-01 0.104E+00 -.207E+04   0.303E-02 -.575E-03 -.675E+01
   0.789E-01 0.789E-02 0.208E+04   -.817E-01 -.533E-02 -.207E+04   0.174E-02 -.159E-02 -.675E+01
   -.152E+00 0.397E-02 0.729E+03   0.132E+00 0.869E-02 -.729E+03   0.109E-01 -.734E-02 0.393E+00
   0.440E+00 -.461E+00 0.728E+03   -.473E+00 0.472E+00 -.729E+03   0.204E-01 -.714E-02 0.382E+00
   -.428E+01 -.147E+01 -.612E+03   0.422E+01 0.150E+01 0.612E+03   0.626E-01 -.271E-01 -.120E+00
   0.210E+01 0.350E+01 -.613E+03   -.216E+01 -.344E+01 0.613E+03   0.502E-01 -.485E-01 -.245E+00
   -.227E+02 0.193E+02 -.196E+04   0.227E+02 -.197E+02 0.195E+04   -.149E-01 0.378E+00 0.588E+01
   0.800E+01 -.496E+01 -.197E+04   -.818E+01 0.501E+01 0.197E+04   0.159E+00 -.463E-01 0.581E+01
   -.604E-01 0.104E+00 0.208E+04   0.513E-01 -.105E+00 -.207E+04   0.595E-02 0.628E-03 -.675E+01
   0.901E-01 -.861E-02 0.208E+04   -.934E-01 0.586E-02 -.207E+04   0.210E-02 0.171E-02 -.675E+01
   -.196E+00 -.145E-01 0.729E+03   0.148E+00 0.534E-03 -.730E+03   0.285E-01 0.820E-02 0.418E+00
   0.517E+00 0.463E+00 0.728E+03   -.489E+00 -.478E+00 -.729E+03   -.188E-01 0.916E-02 0.436E+00
   -.525E+01 0.154E+01 -.605E+03   0.500E+01 -.157E+01 0.605E+03   0.229E+00 0.241E-01 -.325E+00
   0.274E+01 -.351E+01 -.609E+03   -.282E+01 0.346E+01 0.609E+03   0.761E-01 0.479E-01 -.192E+00
   -.274E+02 -.200E+02 -.195E+04   0.276E+02 0.204E+02 0.194E+04   -.162E+00 -.358E+00 0.589E+01
   0.180E+02 0.521E+01 -.195E+04   -.184E+02 -.527E+01 0.194E+04   0.380E+00 0.565E-01 0.570E+01
   0.462E+00 -.333E+00 0.547E+03   -.440E+00 0.329E+00 -.547E+03   -.275E-01 0.464E-02 0.129E-01
   -.169E+00 -.377E-01 0.545E+03   0.189E+00 -.313E-01 -.545E+03   -.250E-01 0.790E-01 -.185E+00
   0.516E-01 -.160E-02 0.156E+04   -.462E-01 0.101E-01 -.156E+04   -.640E-02 -.102E-01 0.304E+01
   -.647E-01 -.844E-01 0.156E+04   0.708E-01 0.840E-01 -.156E+04   -.718E-02 0.485E-03 0.303E+01
   0.119E+02 -.794E+01 -.149E+04   -.118E+02 0.799E+01 0.149E+04   -.768E-01 -.355E-01 -.461E+01
   -.120E+02 0.337E+02 -.145E+04   0.119E+02 -.332E+02 0.146E+04   0.104E+00 -.438E+00 -.476E+01
   0.315E+01 0.273E+01 -.448E+03   -.309E+01 -.281E+01 0.448E+03   -.487E-01 0.659E-01 0.508E+00
   -.209E+01 -.147E+01 -.445E+03   0.213E+01 0.150E+01 0.445E+03   -.279E-01 -.213E-01 0.359E+00
   0.285E+00 0.339E+00 0.546E+03   -.333E+00 -.334E+00 -.546E+03   0.527E-01 -.518E-02 -.134E+00
   -.239E+00 0.328E-01 0.546E+03   0.255E+00 0.415E-01 -.546E+03   -.198E-01 -.852E-01 -.197E+00
   0.545E-01 0.126E-02 0.156E+04   -.464E-01 -.977E-02 -.156E+04   -.966E-02 0.102E-01 0.304E+01
   -.695E-01 0.847E-01 0.156E+04   0.690E-01 -.842E-01 -.156E+04   0.662E-03 -.700E-03 0.302E+01
   0.449E+02 0.945E+01 -.141E+04   -.448E+02 -.950E+01 0.141E+04   -.115E+00 0.422E-01 -.118E+01
   -.172E+02 -.360E+02 -.143E+04   0.171E+02 0.355E+02 0.144E+04   0.881E-01 0.438E+00 -.447E+01
   0.330E+01 -.274E+01 -.443E+03   -.325E+01 0.282E+01 0.442E+03   -.388E-01 -.597E-01 0.719E+00
   -.687E+00 0.154E+01 -.457E+03   0.710E+00 -.157E+01 0.458E+03   -.192E-01 0.280E-01 -.793E+00
   -.448E+00 -.269E+00 0.546E+03   0.427E+00 0.272E+00 -.546E+03   0.257E-01 -.377E-02 -.650E-01
   0.161E+00 0.957E-01 0.546E+03   -.179E+00 -.937E-01 -.546E+03   0.230E-01 -.185E-02 -.108E+00
   -.512E-01 -.682E-02 0.156E+04   0.458E-01 0.867E-02 -.156E+04   0.634E-02 -.222E-02 0.303E+01
   0.642E-01 -.815E-01 0.156E+04   -.702E-01 0.838E-01 -.156E+04   0.712E-02 -.269E-02 0.304E+01
   -.109E+02 -.470E+01 -.150E+04   0.109E+02 0.471E+01 0.150E+04   0.708E-01 -.115E-01 -.459E+01
   0.880E+01 0.111E+02 -.150E+04   -.870E+01 -.109E+02 0.150E+04   -.919E-01 -.236E+00 -.460E+01
   -.313E+01 0.291E+01 -.451E+03   0.306E+01 -.292E+01 0.450E+03   0.583E-01 0.275E-02 0.332E+00
   0.196E+01 -.125E+01 -.455E+03   -.198E+01 0.125E+01 0.454E+03   0.189E-01 -.186E-02 0.294E+00
   -.275E+00 0.269E+00 0.546E+03   0.320E+00 -.270E+00 -.546E+03   -.493E-01 0.182E-02 -.104E+00
   0.224E+00 -.109E+00 0.546E+03   -.233E+00 0.111E+00 -.546E+03   0.128E-01 -.344E-02 -.745E-01
   -.537E-01 0.666E-02 0.156E+04   0.458E-01 -.847E-02 -.156E+04   0.943E-02 0.219E-02 0.303E+01
   0.691E-01 0.821E-01 0.156E+04   -.686E-01 -.842E-01 -.156E+04   -.590E-03 0.252E-02 0.304E+01
   -.324E+02 0.514E+01 -.147E+04   0.325E+02 -.516E+01 0.148E+04   -.110E+00 0.210E-01 -.442E+01
   0.118E+02 -.113E+02 -.149E+04   -.118E+02 0.110E+02 0.150E+04   -.549E-01 0.255E+00 -.461E+01
   -.329E+01 -.295E+01 -.448E+03   0.323E+01 0.296E+01 0.448E+03   0.463E-01 -.176E-02 0.416E+00
   0.162E+01 0.129E+01 -.449E+03   -.163E+01 -.130E+01 0.449E+03   0.249E-02 0.959E-02 0.435E+00
 -----------------------------------------------------------------------------------------------
   0.219E+02 -.230E+02 0.223E+02   -.682E-12 0.142E-12 -.409E-11   -.184E+02 0.189E+02 -.193E+02


 POSITION                                       TOTAL-FORCE (eV/Angst)
 -----------------------------------------------------------------------------------
      3.53203      5.29293     16.98001         0.017537     -0.199588     -0.172850
      3.52439      4.18518     16.07120        -0.466401      0.522733     -0.078049
      4.40934      5.18606     17.63216        -0.225685      0.022525     -0.177776
      2.70122      4.23761     15.47413         0.478600     -0.058697      0.255211
      3.61136      6.25386     16.43966        -0.012175     -0.285213      0.154912
      2.62586      5.29499     17.60842         0.247607     -0.011670     -0.167383
      2.11679      0.00000      7.50000         0.001370      0.000354      0.623330
      4.23357      2.11679      7.50000         0.000790      0.001561      0.632956
      2.11679      2.11679      9.61679         0.006562      0.021663      0.037366
      4.23357      0.00000      9.61679         0.008844     -0.003779      0.058744
      2.11903      0.00152     11.73828        -0.004024      0.001872     -0.035687
      4.23464      2.12585     11.75434        -0.000157      0.011460     -0.018550
      2.11768      2.09234     13.83911        -0.009152     -0.005242     -0.188622
      4.23778      0.00359     13.83394         0.001246      0.003703     -0.182606
      2.11679      4.23357      7.50000         0.002235     -0.000350      0.631410
      4.23357      6.35036      7.50000         0.000859     -0.001620      0.634479
      2.11679      6.35036      9.61679         0.012662     -0.021667      0.034383
      4.23357      4.23357      9.61679        -0.006019      0.002351      0.070925
      2.12588      4.23185     11.75095         0.000356      0.000173     -0.024985
      4.23513      6.34059     11.75425         0.000832     -0.009771     -0.020117
      2.11148      6.37503     13.82291        -0.016721      0.010222     -0.203178
      4.29736      4.22714     13.96560        -0.027597     -0.008469     -0.094134
      6.35036      0.00000      7.50000        -0.001347      0.000264      0.630491
      0.00000      2.11679      7.50000        -0.000814      0.000683      0.630068
      6.35036      2.11679      9.61679        -0.007263      0.003989      0.042940
      0.00000      0.00000      9.61679        -0.009079      0.003089      0.031941
      6.34800      0.00068     11.74001         0.000494     -0.000061     -0.031115
      8.46575      2.11797     11.74460        -0.000494      0.003542     -0.027483
      6.34974      2.10680     13.84297         0.002567     -0.003126     -0.178181
      8.46225      0.00090     13.83982        -0.003007      0.001988     -0.183284
      6.35036      4.23357      7.50000        -0.002212     -0.000262      0.629139
      0.00000      6.35036      7.50000        -0.000921     -0.000749      0.627834
      6.35036      6.35036      9.61679        -0.014610     -0.004350      0.038680
      0.00000      4.23357      9.61679         0.007058     -0.004435      0.060209
      6.34221      4.23253     11.74932        -0.001520      0.000349     -0.025406
      8.46471      6.34846     11.74257        -0.002166     -0.001790     -0.031023
      6.35314      6.35979     13.83789         0.002518      0.005672     -0.179364
      8.44342      4.23149     13.84045         0.009195      0.001858     -0.182353
      2.11679      0.00000      9.61679        -0.010449      0.000859      0.058291
      4.23357      2.11679      9.61679        -0.009523      0.024566      0.065471
      2.11679      2.11679      7.50000        -0.002177     -0.003547     -0.371891
      4.23357      0.00000      7.50000        -0.002413      0.000176     -0.374183
      2.11328      8.46540     13.88661         0.004147     -0.002925     -0.150817
      4.23262      2.10252     13.86840         0.009078     -0.019135     -0.165168
      2.11336      2.12250     11.74193         0.003037     -0.005389      0.013800
      4.23163      8.46501     11.73078         0.001419      0.000662      0.015965
      2.11679      4.23357      9.61679         0.014827     -0.001062      0.065195
      4.23357      6.35036      9.61679        -0.007920     -0.026512      0.059599
      2.11679      6.35036      7.50000        -0.003304      0.003545     -0.371360
      4.23357      4.23357      7.50000         0.000287     -0.000256     -0.376577
      2.06577      4.23586     13.94413         0.011297      0.005801     -0.061213
      4.23150      6.36451     13.88530         0.008347      0.016412     -0.160656
      2.11421      6.34431     11.74011         0.003081      0.006536      0.017849
      4.22908      4.23492     11.75988         0.001446     -0.000135     -0.021027
      6.35036      0.00000      9.61679         0.009744     -0.001701      0.038055
      0.00000      2.11679      9.61679         0.009033     -0.000321      0.044755
      6.35036      2.11679      7.50000         0.002171     -0.000791     -0.374070
      0.00000      0.00000      7.50000         0.002401     -0.000913     -0.371024
      6.35214      8.46591     13.88879         0.001603     -0.000176     -0.158417
      8.46618      2.11020     13.89121        -0.005628     -0.014097     -0.154209
      6.35352      2.11755     11.73615        -0.001743     -0.004028      0.011829
      0.00151      8.46633     11.73482        -0.001416      0.001031      0.003993
      6.35036      4.23357      9.61679        -0.014175      0.001101      0.070637
      0.00000      6.35036      9.61679         0.005931     -0.001208      0.046839
      6.35036      6.35036      7.50000         0.003226      0.000776     -0.373710
      0.00000      4.23357      7.50000        -0.000260      0.000848     -0.372181
      6.36942      4.23496     13.89301        -0.008158      0.000269     -0.147739
      8.46632      6.35639     13.89045        -0.003620      0.014854     -0.149915
      6.35217      6.34917     11.73660        -0.001571      0.005118      0.013721
      0.00429      4.23377     11.74013        -0.008682      0.000431      0.005284
 -----------------------------------------------------------------------------------
    total drift:                               -0.000258      0.000056      0.011523


--------------------------------------------------------------------------------------------------------



  FREE ENERGIE OF THE ION-ELECTRON SYSTEM (eV)
  ---------------------------------------------------
  free  energy   TOTEN  =      -509.50224143 eV

  energy  without entropy=     -509.50224143  energy(sigma->0) =     -509.50224143



--------------------------------------------------------------------------------------------------------


    POTLOK:  cpu time      0.3978: real time      0.3978


--------------------------------------------------------------------------------------------------------


     LOOP+:  cpu time   2604.8124: real time   2605.6069
    4ORBIT:  cpu time      0.0000: real time      0.0000

 total amount of memory used by VASP MPI-rank0   191183. kBytes
=======================================================================

   base      :      30000. kBytes
   nonl-proj :      20889. kBytes
   fftplans  :       7830. kBytes
   grid      :       8596. kBytes
   one-center:         73. kBytes
   HF        :        101. kBytes
   nonlr-proj:       7141. kBytes
   wavefun   :       3831. kBytes
   fock_wrk  :     112722. kBytes

  
  
 General timing and accounting informations for this job:
 ========================================================
  
                  Total CPU time used (sec):     2671.066
                            User time (sec):     2664.316
                          System time (sec):        6.751
                         Elapsed time (sec):     2696.806
  
                   Maximum memory used (kb):      443488.
                   Average memory used (kb):          N/A
  
                          Minor page faults:       265817
                          Major page faults:           52
                 Voluntary context switches:        25705
