 vasp.6.4.2 20Jul23 (build Feb 22 2024 13:53:45) complex                         
 executed on              LinuxNV date 2024.08.27  14:40:42
 running    4 mpi-ranks, with    1 threads/rank, on    1 nodes
 distrk:  each k-point on    4 cores,    1 groups
 distr:  one band on NCORE=   1 cores,    4 groups
 OpenACC runtime initialized ...    4 GPUs detected


--------------------------------------------------------------------------------------------------------


 INCAR:
   SYSTEM = Oxide-Surface
   ISMEAR = 0
   SIGMA = 0.05
   EDIFF = 1E-5
   ALGO = Normal
   IBRION = -1
   NSW = 0
   ISYM = 0
   DIPOL = 0.5 0.5 0.5
   IDIPOL = 3
   LDIPOL = .TRUE.
   ISTART = 1
   METAGGA = SCAN
   LUSE_VDW = .TRUE.
   BPARAM = 15.7
   CPARAM = 0.0093
   ENCUT = 1000
   PREC = Normal
   PRECFOCK = Normal
   LASPH = .TRUE.
   LREAL = Auto
   ISPIN = 1
   NELM = 200
   NELMIN = 8
   NCORE = 1
   KPAR = 1
   LWAVE = .FALSE.
   LCHARG = .FALSE.

 POTCAR:    PAW_PBE Ti_sv 26Sep2005               
 POTCAR:    PAW_PBE O_h 06Feb2004                 
 -----------------------------------------------------------------------------
|                                                                             |
|               ----> ADVICE to this user running VASP <----                  |
|                                                                             |
|     You have switched on vdW-DFT.                                           |
|     This routine was written and supplied by Jiri Klimes. We recommend      |
|     that you carefully read and cite the following publications:            |
|       J. Klimes, D.R. Bowler, A. Michelides                                 |
|          J. Phys.: Cond Matt. 22 022201 (2010)                              |
|       J. Klimes, D.R. Bowler, A. Michelides                                 |
|          Phys. Rev. B. 83, 195131 (2011)                                    |
|     and references therein.                                                 |
|                                                                             |
 -----------------------------------------------------------------------------

 POTCAR:    PAW_PBE Ti_sv 26Sep2005               
   SHA256 =  4d747badb5a5ea28d858fbac70885b3f8929d6fd9e5b0dbe1ecb9878dc164da1 Ti_sv/POTCAR          
   COPYR  = (c) Copyright 26Sep2005 Georg Kresse                                                    
   COPYR  = This file is part of the software VASP. Any use, copying, and all other rights are regul
   COPYR  = If you do not have a valid VASP license, you may not use, copy or distribute this file. 
   VRHFIN =Ti: 3p4s3d                                                                               
   LEXCH  = PE                                                                                      
   EATOM  =  1588.0892 eV,  116.7213 Ry                                                             
                                                                                                    
   TITEL  = PAW_PBE Ti_sv 26Sep2005                                                                 
   LULTRA =        F    use ultrasoft PP ?                                                          
   IUNSCR =        1    unscreen: 0-lin 1-nonlin 2-no                                               
   RPACOR =    2.000    partial core radius                                                         
   POMASS =   47.880; ZVAL   =   12.000    mass and valenz                                          
   RCORE  =    2.300    outmost cutoff radius                                                       
   RWIGS  =    2.300; RWIGS  =    1.217    wigner-seitz radius (au A)                               
   ENMAX  =  274.610; ENMIN  =  205.957 eV                                                          
   ICORE  =        3    local potential                                                             
   LCOR   =        T    correct aug charges                                                         
   LPAW   =        T    paw PP                                                                      
   EAUG   =  482.848                                                                                
   RMAX   =    2.348    core radius for proj-oper                                                   
   RAUG   =    1.300    factor for augmentation sphere                                              
   RDEP   =    2.381    radius for radial grids                                                     
   RDEPT  =    1.930    core radius for aug-charge                                                  
                                                                                                    
   Atomic configuration                                                                             
    8 entries                                                                                       
     n  l   j            E        occ.                                                              
     1  0  0.50     -4865.3608   2.0000                                                             
     2  0  0.50      -533.1368   2.0000                                                             
     2  1  1.50      -440.5031   6.0000                                                             
     3  0  0.50       -59.3186   2.0000                                                             
     4  0  0.50        -3.7291   1.0000                                                             
     3  1  1.50       -35.7012   6.0000                                                             
     3  2  2.50        -1.9157   3.0000                                                             
     4  3  2.50        -1.3606   0.0000                                                             
   Description                                                                                      
     l       E           TYP  RCUT    TYP  RCUT                                                     
     0    -59.3185931     23  1.800                                                                 
     0     -3.7290822     23  2.300                                                                 
     1    -35.7012045     23  2.300                                                                 
     1     -1.3605826     23  2.300                                                                 
     2     -1.9156920     23  2.300                                                                 
     2     -0.0236318     23  2.300                                                                 
     3     -1.3605826     23  2.300                                                                 
  local pseudopotential read in
  partial core-charges read in
  partial kinetic energy density read in
  atomic valenz-charges read in
  non local Contribution for L=            0  read in
    real space projection operators read in
  non local Contribution for L=            0  read in
    real space projection operators read in
  non local Contribution for L=            1  read in
    real space projection operators read in
  non local Contribution for L=            1  read in
    real space projection operators read in
  non local Contribution for L=            2  read in
    real space projection operators read in
  non local Contribution for L=            2  read in
    real space projection operators read in
    PAW grid and wavefunctions read in
 
   number of l-projection  operators is LMAX  =            6
   number of lm-projection operators is LMMAX =           18
 
 POTCAR:    PAW_PBE O_h 06Feb2004                 
   SHA256 =  7d3976308dcfb86c51a8aa000428ccf502aeca0a26316d98530ed0719b164db2 O_h/POTCAR            
   COPYR  = (c) Copyright 06Feb2004 Georg Kresse                                                    
   COPYR  = This file is part of the software VASP. Any use, copying, and all other rights are regul
   COPYR  = If you do not have a valid VASP license, you may not use, copy or distribute this file. 
   VRHFIN =O: s2p4                                                                                  
   LEXCH  = PE                                                                                      
   EATOM  =   432.3788 eV,   31.7789 Ry                                                             
                                                                                                    
   TITEL  = PAW_PBE O_h 06Feb2004                                                                   
   LULTRA =        F    use ultrasoft PP ?                                                          
   IUNSCR =        1    unscreen: 0-lin 1-nonlin 2-no                                               
   RPACOR =    0.800    partial core radius                                                         
   POMASS =   16.000; ZVAL   =    6.000    mass and valenz                                          
   RCORE  =    1.100    outmost cutoff radius                                                       
   RWIGS  =    1.400; RWIGS  =    0.741    wigner-seitz radius (au A)                               
   ENMAX  =  700.000; ENMIN  =  500.000 eV                                                          
   ICORE  =        2    local potential                                                             
   LCOR   =        T    correct aug charges                                                         
   LPAW   =        T    paw PP                                                                      
   EAUG   =  888.804                                                                                
   DEXC   =    0.000                                                                                
   RMAX   =    1.128    core radius for proj-oper                                                   
   RAUG   =    1.300    factor for augmentation sphere                                              
   RDEP   =    1.125    radius for radial grids                                                     
   RDEPT  =    1.088    core radius for aug-charge                                                  
                                                                                                    
   Atomic configuration                                                                             
    4 entries                                                                                       
     n  l   j            E        occ.                                                              
     1  0  0.50      -514.6923   2.0000                                                             
     2  0  0.50       -23.9615   2.0000                                                             
     2  1  0.50        -9.0305   4.0000                                                             
     3  2  1.50        -9.5241   0.0000                                                             
   Description                                                                                      
     l       E           TYP  RCUT    TYP  RCUT                                                     
     0    -23.9615319     23  1.100                                                                 
     0    -25.3221145     23  1.100                                                                 
     1     -9.0304911     23  1.100                                                                 
     1     -5.4802209     23  1.100                                                                 
     2     -9.5240782      7  1.100                                                                 
  local pseudopotential read in
  partial core-charges read in
  partial kinetic energy density read in
  atomic valenz-charges read in
  non local Contribution for L=            0  read in
    real space projection operators read in
  non local Contribution for L=            0  read in
    real space projection operators read in
  non local Contribution for L=            1  read in
    real space projection operators read in
  non local Contribution for L=            1  read in
    real space projection operators read in
    PAW grid and wavefunctions read in
 
   number of l-projection  operators is LMAX  =            4
   number of lm-projection operators is LMMAX =            8
 
 Optimization of the real space projectors (new method)

 maximal supplied QI-value         = 16.25
 optimisation between [QCUT,QGAM] = [ 16.09, 32.34] = [ 72.49,292.89] Ry 
 Optimized for a Real-space Cutoff    1.24 Angstroem

   l    n(q)    QCUT    max X(q) W(low)/X(q) W(high)/X(q)  e(spline) 
   0     12    16.089    12.277    0.23E-04    0.54E-05    0.15E-06
   0     12    16.089    11.419    0.26E-04    0.82E-06    0.19E-06
   1     12    16.089     4.010    0.40E-04    0.12E-04    0.58E-06
   1     12    16.089     6.182    0.55E-05    0.28E-04    0.27E-06
   2     11    16.089    47.177    0.17E-03    0.26E-03    0.90E-06
   2     11    16.089    42.437    0.17E-03    0.25E-03    0.88E-06
 Optimization of the real space projectors (new method)

 maximal supplied QI-value         = 34.20
 optimisation between [QCUT,QGAM] = [ 16.08, 32.15] = [ 72.37,289.48] Ry 
 Optimized for a Real-space Cutoff    0.71 Angstroem

   l    n(q)    QCUT    max X(q) W(low)/X(q) W(high)/X(q)  e(spline) 
   0      7    16.076   280.207    0.42E-03    0.69E-03    0.60E-07
   0      7    16.076   228.978    0.42E-03    0.69E-03    0.61E-07
   1      6    16.076    86.127    0.11E-03    0.66E-03    0.10E-06
   1      6    16.076    65.368    0.11E-03    0.65E-03    0.10E-06
  PAW_PBE Ti_sv 26Sep2005               :
 energy of atom  1       EATOM=-1588.0892
 kinetic energy error for atom=    0.0004 (will be added to EATOM!!)
  PAW_PBE O_h 06Feb2004                 :
 energy of atom  2       EATOM= -432.3788
 kinetic energy error for atom=    0.0171 (will be added to EATOM!!)
 
 
 POSCAR: Ti  O
  positions in direct lattice
  No initial velocities read in

 METAGGA = SCAN                                        LMAXTAU =  6    LMIXTAU =  F

 exchange correlation table for  LEXCH =        8
   RHO(1)=    0.500       N(1)  =     2000
   RHO(2)=  100.500       N(2)  =     4000
 


--------------------------------------------------------------------------------------------------------


 ion  position               nearest neighbor table
   1  0.750  0.625  0.185-  82 1.95 142 1.95 141 1.95  81 1.95  84 1.98 163 1.98
   2  0.000  0.750  0.185-  83 1.95  84 1.95 103 1.95 104 1.95  85 1.98
   3  0.000  0.625  0.315-  85 1.95 145 1.95  86 1.95 146 1.95  88 1.98  87 1.98
   4  0.750  0.750  0.315-  87 1.95 107 1.95 168 1.95 188 1.95  89 1.98  82 1.98
   5  0.750  0.625  0.445-  89 1.95  90 1.95 149 1.95 150 1.95  92 1.98 171 1.98
   6  0.000  0.750  0.445-  91 1.95  92 1.95 111 1.95 112 1.95  86 1.98  93 2.00
   7  0.007  0.625  0.572-  96 1.87 153 1.90  93 1.90  94 2.02 154 2.02  95 2.03
   8  0.756  0.750  0.580-  97 1.87  95 1.93 115 1.93 176 2.01 196 2.01  90 2.09
   9  0.751  0.626  0.713-  98 1.83 158 1.87 179 2.00 100 2.02  97 2.08 157 2.09
  10  1.000  0.750  0.699-  94 1.81 119 1.94 120 1.94  99 1.95 100 1.96
  11  0.750  0.875  0.185-  82 1.95 102 1.95 101 1.95  81 1.95 104 1.98 183 1.98
  12  0.000  0.000  0.185- 103 1.95 104 1.95 123 1.95 124 1.95 105 1.98
  13  0.000  0.875  0.315-  85 1.95 105 1.95  86 1.95 106 1.95 108 1.98 107 1.98
  14  0.750  0.000  0.315- 107 1.95 127 1.95 188 1.95 208 1.95 109 1.98 102 1.98
  15  0.750  0.875  0.445-  89 1.95  90 1.95 109 1.95 110 1.95 112 1.98 191 1.98
  16  0.000  0.000  0.445- 111 1.95 112 1.95 131 1.95 132 1.95 106 1.98 113 2.00
  17  0.007  0.875  0.572- 116 1.87  93 1.90 113 1.90 114 2.02  94 2.02 115 2.04
  18  0.756  0.000  0.580- 117 1.87 115 1.93 135 1.93 216 2.01 196 2.02 110 2.10
  19  0.750  0.875  0.714- 118 1.84  98 1.84 199 2.02 120 2.04  97 2.09 117 2.09
  20  0.000  1.000  0.699- 114 1.81 120 1.95 140 1.95 139 1.95 119 1.95
  21  0.750  0.125  0.185- 102 1.95 122 1.95 121 1.95 101 1.95 124 1.98 203 1.98
  22  0.000  0.250  0.185- 123 1.95 124 1.95 143 1.95 144 1.95 125 1.98
  23  0.000  0.125  0.315- 105 1.95 125 1.95 106 1.95 126 1.95 128 1.98 127 1.98
  24  0.750  0.250  0.315- 127 1.95 147 1.95 208 1.95 228 1.95 129 1.98 122 1.98
  25  0.750  0.125  0.445- 109 1.95 110 1.95 129 1.95 130 1.95 132 1.98 211 1.98
  26  0.000  0.250  0.445- 131 1.95 132 1.95 151 1.95 152 1.95 126 1.98 133 2.00
  27  0.007  0.125  0.572- 136 1.86 133 1.90 113 1.90 114 2.02 134 2.02 135 2.04
  28  0.756  0.250  0.579- 137 1.87 135 1.93 155 1.93 216 2.01 236 2.01 130 2.09
  29  0.750  0.124  0.714- 118 1.83 138 1.84 219 2.02 140 2.04 117 2.09 137 2.10
  30  0.000  0.250  0.699- 134 1.81 139 1.94 140 1.94 159 1.95 160 1.96
  31  0.750  0.375  0.185- 122 1.95 142 1.95 141 1.95 121 1.95 144 1.98 223 1.98
  32  0.000  0.500  0.185-  83 1.95  84 1.95 143 1.95 144 1.95 145 1.98
  33  0.000  0.375  0.315- 125 1.95 145 1.95 126 1.95 146 1.95 148 1.98 147 1.98
  34  0.750  0.500  0.315-  87 1.95 147 1.95 168 1.95 228 1.95 149 1.98 142 1.98
  35  0.750  0.375  0.445- 129 1.95 130 1.95 149 1.95 150 1.95 152 1.98 231 1.98
  36  0.000  0.500  0.445-  91 1.95  92 1.95 151 1.95 152 1.95 146 1.98 153 2.00
  37  0.007  0.375  0.572- 156 1.87 153 1.90 133 1.90 134 2.02 154 2.02 155 2.03
  38  0.756  0.500  0.580- 157 1.86 155 1.93  95 1.93 236 2.02 176 2.02 150 2.10
  39  0.751  0.373  0.713- 138 1.83 158 1.87 160 2.01 239 2.02 137 2.06 157 2.10
  40  0.001  0.500  0.699- 154 1.81 159 1.94  99 1.94 100 1.95 160 1.95
  41  0.250  0.625  0.185- 162 1.95 222 1.95 221 1.95 161 1.95  83 1.98 164 1.98
  42  0.500  0.750  0.185- 163 1.95 164 1.95 183 1.95 184 1.95 165 1.98
  43  0.500  0.625  0.315- 165 1.95 225 1.95 166 1.95 226 1.95 168 1.98 167 1.98
  44  0.250  0.750  0.315- 167 1.95 187 1.95  88 1.95 108 1.95 169 1.98 162 1.98
  45  0.250  0.625  0.445- 169 1.95 170 1.95 229 1.95 230 1.95  91 1.98 172 1.98
  46  0.500  0.750  0.445- 171 1.95 172 1.95 191 1.95 192 1.95 166 1.98 173 1.99
  47  0.507  0.623  0.574- 176 1.88 233 1.90 173 1.93 234 1.98 174 2.01 175 2.04  77 2.90
  48  0.256  0.750  0.580- 177 1.87 175 1.92 195 1.92  96 2.02 116 2.02 170 2.10
  49  0.250  0.625  0.714- 178 1.83 238 1.84  99 2.03 180 2.04 177 2.09 237 2.09
  50  0.501  0.750  0.698- 174 1.80 179 1.91 180 1.94 199 1.95 200 1.96
  51  0.250  0.875  0.185- 162 1.95 182 1.95 181 1.95 161 1.95 103 1.98 184 1.98
  52  0.500  0.000  0.185- 183 1.95 184 1.95 203 1.95 204 1.95 185 1.98
  53  0.500  0.875  0.315- 165 1.95 185 1.95 166 1.95 186 1.95 188 1.98 187 1.98
  54  0.250  0.000  0.315- 187 1.95 207 1.95 108 1.95 128 1.95 189 1.98 182 1.98
  55  0.250  0.875  0.445- 169 1.95 170 1.95 189 1.95 190 1.95 111 1.98 192 1.98
  56  0.500  0.000  0.445- 191 1.95 192 1.95 211 1.95 212 1.95 186 1.98 193 1.98
  57  0.507  0.874  0.571- 196 1.88 173 1.88 193 1.90 174 2.00 194 2.03 195 2.04
  58  0.256  1.000  0.580- 197 1.86 195 1.92 215 1.92 136 2.02 116 2.02 190 2.11
  59  0.251  0.875  0.714- 198 1.83 178 1.84 200 2.02 119 2.04 197 2.10 177 2.10
  60  0.499  1.000  0.698- 194 1.80 200 1.94 220 1.94 219 1.96 199 1.96
  61  0.250  0.125  0.185- 182 1.95 202 1.95 201 1.95 181 1.95 123 1.98 204 1.98
  62  0.500  0.250  0.185- 203 1.95 204 1.95 223 1.95 224 1.95 205 1.98
  63  0.500  0.125  0.315- 185 1.95 205 1.95 186 1.95 206 1.95 208 1.98 207 1.98
  64  0.250  0.250  0.315- 207 1.95 227 1.95 128 1.95 148 1.95 209 1.98 202 1.98
  65  0.250  0.125  0.445- 189 1.95 190 1.95 209 1.95 210 1.95 131 1.98 212 1.98
  66  0.500  0.250  0.445- 211 1.95 212 1.95 231 1.95 232 1.95 206 1.98 213 1.99
  67  0.507  0.126  0.571- 216 1.88 213 1.88 193 1.90 214 2.00 194 2.03 215 2.04
  68  0.256  0.250  0.580- 217 1.86 235 1.92 215 1.93 156 2.02 136 2.02 210 2.11
  69  0.251  0.125  0.714- 198 1.83 218 1.84 220 2.02 139 2.04 217 2.10 197 2.10
  70  0.501  0.250  0.698- 214 1.80 239 1.92 240 1.94 219 1.95 220 1.96
  71  0.250  0.375  0.185- 202 1.95 222 1.95 221 1.95 201 1.95 143 1.98 224 1.98
  72  0.500  0.500  0.185- 163 1.95 164 1.95 223 1.95 224 1.95 225 1.98
  73  0.500  0.375  0.315- 205 1.95 225 1.95 206 1.95 226 1.95 228 1.98 227 1.98
  74  0.250  0.500  0.315- 167 1.95 227 1.95  88 1.95 148 1.95 229 1.98 222 1.98
  75  0.250  0.375  0.445- 209 1.95 210 1.95 229 1.95 230 1.95 151 1.98 232 1.98
  76  0.500  0.500  0.445- 171 1.95 172 1.95 231 1.95 232 1.95 226 1.98 233 2.00
  77  0.507  0.377  0.574- 236 1.88 233 1.90 213 1.94 234 1.98 214 2.01 235 2.04  47 2.90
  78  0.256  0.500  0.580- 237 1.86 175 1.92 235 1.93 156 2.02  96 2.02 230 2.11
  79  0.250  0.375  0.714- 218 1.83 238 1.84 159 2.03 240 2.03 217 2.10 237 2.10
  80  0.501  0.499  0.704- 234 1.91 240 1.93 180 1.94 239 1.96 179 1.99
  81  0.750  0.750  0.134-   1 1.95  11 1.95
  82  0.750  0.750  0.236-   1 1.95  11 1.95   4 1.98
  83  0.098  0.625  0.185-   2 1.95  32 1.95  41 1.98
  84  0.902  0.625  0.185-   2 1.95  32 1.95   1 1.98
  85  0.000  0.750  0.264-   3 1.95  13 1.95   2 1.98
  86  0.000  0.750  0.366-   3 1.95  13 1.95   6 1.98
  87  0.848  0.625  0.315-   4 1.95  34 1.95   3 1.98
  88  0.152  0.625  0.315-  44 1.95  74 1.95   3 1.98
  89  0.750  0.750  0.394-   5 1.95  15 1.95   4 1.98
  90  0.750  0.750  0.496-   5 1.95  15 1.95   8 2.09
  91  0.098  0.625  0.445-   6 1.95  36 1.95  45 1.98
  92  0.902  0.625  0.445-   6 1.95  36 1.95   5 1.98
  93  0.001  0.750  0.525-  17 1.90   7 1.90   6 2.00
  94  1.000  0.750  0.627-  10 1.81   7 2.02  17 2.02
  95  0.851  0.625  0.575-   8 1.93  38 1.93   7 2.03
  96  0.150  0.625  0.576-   7 1.87  78 2.02  48 2.02
  97  0.754  0.751  0.654-   8 1.87   9 2.08  19 2.09
  98  0.749  0.749  0.757-   9 1.83  19 1.84
  99  0.095  0.625  0.712-  40 1.94  10 1.95  49 2.03
 100  0.906  0.624  0.713-  40 1.95  10 1.96   9 2.02
 101  0.750  0.000  0.134-  11 1.95  21 1.95
 102  0.750  0.000  0.236-  11 1.95  21 1.95  14 1.98
 103  0.098  0.875  0.185-   2 1.95  12 1.95  51 1.98
 104  0.902  0.875  0.185-   2 1.95  12 1.95  11 1.98
 105  0.000  0.000  0.264-  13 1.95  23 1.95  12 1.98
 106  0.000  0.000  0.366-  13 1.95  23 1.95  16 1.98
 107  0.848  0.875  0.315-   4 1.95  14 1.95  13 1.98
 108  0.152  0.875  0.315-  44 1.95  54 1.95  13 1.98
 109  0.750  0.000  0.394-  15 1.95  25 1.95  14 1.98
 110  0.750  0.000  0.496-  15 1.95  25 1.95  18 2.10
 111  0.098  0.875  0.445-   6 1.95  16 1.95  55 1.98
 112  0.902  0.875  0.445-   6 1.95  16 1.95  15 1.98
 113  0.001  0.000  0.525-  27 1.90  17 1.90  16 2.00
 114  0.000  0.000  0.627-  20 1.81  27 2.02  17 2.02
 115  0.851  0.876  0.575-  18 1.93   8 1.93  17 2.04
 116  0.150  0.875  0.576-  17 1.87  48 2.02  58 2.02
 117  0.751  0.000  0.655-  18 1.87  29 2.09  19 2.09
 118  0.750  1.000  0.758-  29 1.83  19 1.84
 119  0.094  0.875  0.712-  10 1.94  20 1.95  59 2.04
 120  0.906  0.875  0.713-  10 1.94  20 1.95  19 2.04
 121  0.750  0.250  0.134-  21 1.95  31 1.95
 122  0.750  0.250  0.236-  21 1.95  31 1.95  24 1.98
 123  0.098  0.125  0.185-  12 1.95  22 1.95  61 1.98
 124  0.902  0.125  0.185-  12 1.95  22 1.95  21 1.98
 125  0.000  0.250  0.264-  23 1.95  33 1.95  22 1.98
 126  0.000  0.250  0.366-  23 1.95  33 1.95  26 1.98
 127  0.848  0.125  0.315-  14 1.95  24 1.95  23 1.98
 128  0.152  0.125  0.315-  54 1.95  64 1.95  23 1.98
 129  0.750  0.250  0.394-  25 1.95  35 1.95  24 1.98
 130  0.750  0.250  0.496-  25 1.95  35 1.95  28 2.09
 131  0.098  0.125  0.445-  16 1.95  26 1.95  65 1.98
 132  0.902  0.125  0.445-  16 1.95  26 1.95  25 1.98
 133  0.001  0.250  0.525-  37 1.90  27 1.90  26 2.00
 134  0.000  0.250  0.627-  30 1.81  37 2.02  27 2.02
 135  0.851  0.125  0.576-  18 1.93  28 1.93  27 2.04
 136  0.150  0.125  0.576-  27 1.86  58 2.02  68 2.02
 137  0.753  0.250  0.654-  28 1.87  39 2.06  29 2.10
 138  0.749  0.251  0.757-  39 1.83  29 1.84
 139  0.094  0.125  0.712-  30 1.94  20 1.95  69 2.04
 140  0.906  0.125  0.712-  30 1.94  20 1.95  29 2.04
 141  0.750  0.500  0.134-   1 1.95  31 1.95
 142  0.750  0.500  0.236-   1 1.95  31 1.95  34 1.98
 143  0.098  0.375  0.185-  22 1.95  32 1.95  71 1.98
 144  0.902  0.375  0.185-  22 1.95  32 1.95  31 1.98
 145  0.000  0.500  0.264-   3 1.95  33 1.95  32 1.98
 146  0.000  0.500  0.366-   3 1.95  33 1.95  36 1.98
 147  0.848  0.375  0.315-  24 1.95  34 1.95  33 1.98
 148  0.152  0.375  0.315-  64 1.95  74 1.95  33 1.98
 149  0.750  0.500  0.394-   5 1.95  35 1.95  34 1.98
 150  0.750  0.500  0.496-   5 1.95  35 1.95  38 2.10
 151  0.098  0.375  0.445-  26 1.95  36 1.95  75 1.98
 152  0.902  0.375  0.445-  26 1.95  36 1.95  35 1.98
 153  0.001  0.500  0.525-  37 1.90   7 1.90  36 2.00
 154  0.000  0.500  0.627-  40 1.81   7 2.02  37 2.02
 155  0.851  0.375  0.575-  28 1.93  38 1.93  37 2.03
 156  0.150  0.375  0.576-  37 1.87  78 2.02  68 2.02
 157  0.755  0.500  0.654-  38 1.86   9 2.09  39 2.10
 158  0.740  0.500  0.757-   9 1.87  39 1.87
 159  0.095  0.375  0.712-  40 1.94  30 1.95  79 2.03
 160  0.906  0.376  0.713-  40 1.95  30 1.96  39 2.01
 161  0.250  0.750  0.134-  41 1.95  51 1.95
 162  0.250  0.750  0.236-  41 1.95  51 1.95  44 1.98
 163  0.598  0.625  0.185-  42 1.95  72 1.95   1 1.98
 164  0.402  0.625  0.185-  42 1.95  72 1.95  41 1.98
 165  0.500  0.750  0.264-  43 1.95  53 1.95  42 1.98
 166  0.500  0.750  0.366-  43 1.95  53 1.95  46 1.98
 167  0.348  0.625  0.315-  44 1.95  74 1.95  43 1.98
 168  0.652  0.625  0.315-   4 1.95  34 1.95  43 1.98
 169  0.250  0.750  0.394-  45 1.95  55 1.95  44 1.98
 170  0.250  0.750  0.496-  45 1.95  55 1.95  48 2.10
 171  0.598  0.625  0.445-  46 1.95  76 1.95   5 1.98
 172  0.402  0.625  0.445-  46 1.95  76 1.95  45 1.98
 173  0.501  0.749  0.524-  57 1.88  47 1.93  46 1.99
 174  0.498  0.752  0.626-  50 1.80  57 2.00  47 2.01
 175  0.350  0.625  0.576-  48 1.92  78 1.92  47 2.04
 176  0.651  0.625  0.576-  47 1.88   8 2.01  38 2.02
 177  0.251  0.750  0.655-  48 1.87  49 2.09  59 2.10
 178  0.251  0.750  0.758-  49 1.83  59 1.84
 179  0.597  0.630  0.706-  50 1.91  80 1.99   9 2.00
 180  0.408  0.626  0.713-  80 1.94  50 1.94  49 2.04
 181  0.250  0.000  0.134-  51 1.95  61 1.95
 182  0.250  0.000  0.236-  51 1.95  61 1.95  54 1.98
 183  0.598  0.875  0.185-  42 1.95  52 1.95  11 1.98
 184  0.402  0.875  0.185-  42 1.95  52 1.95  51 1.98
 185  0.500  0.000  0.264-  53 1.95  63 1.95  52 1.98
 186  0.500  0.000  0.366-  53 1.95  63 1.95  56 1.98
 187  0.348  0.875  0.315-  44 1.95  54 1.95  53 1.98
 188  0.652  0.875  0.315-   4 1.95  14 1.95  53 1.98
 189  0.250  0.000  0.394-  55 1.95  65 1.95  54 1.98
 190  0.250  0.000  0.496-  55 1.95  65 1.95  58 2.11
 191  0.598  0.875  0.445-  46 1.95  56 1.95  15 1.98
 192  0.402  0.875  0.445-  46 1.95  56 1.95  55 1.98
 193  0.500  0.000  0.524-  57 1.90  67 1.90  56 1.98
 194  0.500  1.000  0.626-  60 1.80  57 2.03  67 2.03
 195  0.350  0.875  0.575-  58 1.92  48 1.92  57 2.04
 196  0.651  0.875  0.576-  57 1.88   8 2.01  18 2.02
 197  0.250  1.000  0.654-  58 1.86  59 2.10  69 2.10
 198  0.250  0.000  0.757-  59 1.83  69 1.83
 199  0.595  0.875  0.711-  50 1.95  60 1.96  19 2.02
 200  0.406  0.876  0.712-  60 1.94  50 1.96  59 2.02
 201  0.250  0.250  0.134-  61 1.95  71 1.95
 202  0.250  0.250  0.236-  61 1.95  71 1.95  64 1.98
 203  0.598  0.125  0.185-  52 1.95  62 1.95  21 1.98
 204  0.402  0.125  0.185-  52 1.95  62 1.95  61 1.98
 205  0.500  0.250  0.264-  63 1.95  73 1.95  62 1.98
 206  0.500  0.250  0.366-  63 1.95  73 1.95  66 1.98
 207  0.348  0.125  0.315-  54 1.95  64 1.95  63 1.98
 208  0.652  0.125  0.315-  14 1.95  24 1.95  63 1.98
 209  0.250  0.250  0.394-  65 1.95  75 1.95  64 1.98
 210  0.250  0.250  0.496-  65 1.95  75 1.95  68 2.11
 211  0.598  0.125  0.445-  56 1.95  66 1.95  25 1.98
 212  0.402  0.125  0.445-  56 1.95  66 1.95  65 1.98
 213  0.501  0.251  0.525-  67 1.88  77 1.94  66 1.99
 214  0.499  0.248  0.626-  70 1.80  67 2.00  77 2.01
 215  0.350  0.125  0.575-  58 1.92  68 1.93  67 2.04
 216  0.651  0.125  0.576-  67 1.88  28 2.01  18 2.01
 217  0.250  0.250  0.654-  68 1.86  69 2.10  79 2.10
 218  0.251  0.250  0.757-  79 1.83  69 1.84
 219  0.595  0.125  0.711-  70 1.95  60 1.96  29 2.02
 220  0.406  0.124  0.712-  60 1.94  70 1.96  69 2.02
 221  0.250  0.500  0.134-  41 1.95  71 1.95
 222  0.250  0.500  0.236-  41 1.95  71 1.95  74 1.98
 223  0.598  0.375  0.185-  62 1.95  72 1.95  31 1.98
 224  0.402  0.375  0.185-  62 1.95  72 1.95  71 1.98
 225  0.500  0.500  0.264-  43 1.95  73 1.95  72 1.98
 226  0.500  0.500  0.366-  43 1.95  73 1.95  76 1.98
 227  0.348  0.375  0.315-  64 1.95  74 1.95  73 1.98
 228  0.652  0.375  0.315-  24 1.95  34 1.95  73 1.98
 229  0.250  0.500  0.394-  45 1.95  75 1.95  74 1.98
 230  0.250  0.500  0.496-  45 1.95  75 1.95  78 2.11
 231  0.598  0.375  0.445-  66 1.95  76 1.95  35 1.98
 232  0.402  0.375  0.445-  66 1.95  76 1.95  75 1.98
 233  0.501  0.500  0.525-  47 1.90  77 1.90  76 2.00
 234  0.500  0.500  0.628-  80 1.91  47 1.98  77 1.98
 235  0.350  0.375  0.576-  68 1.92  78 1.93  77 2.04
 236  0.651  0.375  0.576-  77 1.88  28 2.01  38 2.02
 237  0.250  0.500  0.655-  78 1.86  49 2.09  79 2.10
 238  0.252  0.500  0.757-  79 1.84  49 1.84
 239  0.597  0.371  0.707-  70 1.92  80 1.96  39 2.02
 240  0.407  0.374  0.711-  80 1.93  70 1.94  79 2.03
 

IMPORTANT INFORMATION: All symmetrisations will be switched off!
NOSYMM: (Re-)initialisation of all symmetry stuff for point group C_1.


----------------------------------------------------------------------------------------

                                     Primitive cell                                     

  volume of cell :    3846.0501

  direct lattice vectors                    reciprocal lattice vectors
    13.003980404  0.000000000  0.000000000     0.076899531  0.000000000  0.000000000
     0.000000000 11.830378115  0.000000000     0.000000000  0.084528152  0.000000000
     0.000000000  0.000000000 25.000000000     0.000000000  0.000000000  0.040000000

  length of vectors
    13.003980404 11.830378115 25.000000000     0.076899531  0.084528152  0.040000000

  position of ions in fractional coordinates (direct lattice)
     0.750010663  0.625004961  0.184773010
     0.000010663  0.750004961  0.184773010
     0.000010663  0.625004961  0.314812814
     0.750010663  0.750004961  0.314812814
     0.750010663  0.625004961  0.444852618
     0.000010663  0.750004961  0.444852618
     0.007004437  0.625078947  0.572008516
     0.756144220  0.750119383  0.579538884
     0.750770416  0.625802808  0.712619678
     0.999989337  0.750346962  0.699268567
     0.750010663  0.875004961  0.184773010
     0.000010663  0.000004961  0.184773010
     0.000010663  0.875004961  0.314812814
     0.750010663  0.000004961  0.314812814
     0.750010663  0.875004961  0.444852618
     0.000010663  0.000004961  0.444852618
     0.007115791  0.875054039  0.572076102
     0.755710742  0.000055089  0.579920543
     0.749639513  0.874945154  0.713922526
     0.000259023  0.999950542  0.699228467
     0.750010663  0.125004961  0.184773010
     0.000010663  0.250004961  0.184773010
     0.000010663  0.125004961  0.314812814
     0.750010663  0.250004961  0.314812814
     0.750010663  0.125004961  0.444852618
     0.000010663  0.250004961  0.444852618
     0.007282824  0.124972857  0.572087558
     0.756031323  0.249874285  0.579456177
     0.749601559  0.124221820  0.713929795
     0.000202769  0.249636124  0.699257736
     0.750010663  0.375004961  0.184773010
     0.000010663  0.500004961  0.184773010
     0.000010663  0.375004961  0.314812814
     0.750010663  0.500004961  0.314812814
     0.750010663  0.375004961  0.444852618
     0.000010663  0.500004961  0.444852618
     0.006995650  0.374987490  0.571986700
     0.756370748  0.500013538  0.579738455
     0.751452610  0.373227846  0.712661921
     0.000833076  0.500130655  0.699185531
     0.250010663  0.625004961  0.184773010
     0.500010663  0.750004961  0.184773010
     0.500010663  0.625004961  0.314812814
     0.250010663  0.750004961  0.314812814
     0.250010663  0.625004961  0.444852618
     0.500010663  0.750004961  0.444852618
     0.507173520  0.622679804  0.573626488
     0.256156716  0.749997173  0.579847416
     0.250347362  0.625327763  0.713801464
     0.500769269  0.750133312  0.697680947
     0.250010663  0.875004961  0.184773010
     0.500010663  0.000004961  0.184773010
     0.500010663  0.875004961  0.314812814
     0.250010663  0.000004961  0.314812814
     0.250010663  0.875004961  0.444852618
     0.500010663  0.000004961  0.444852618
     0.507094282  0.874032167  0.570763339
     0.256014811  0.999995039  0.579989833
     0.251050318  0.875168015  0.714037056
     0.499496718  0.999979059  0.697981859
     0.250010663  0.125004961  0.184773010
     0.500010663  0.250004961  0.184773010
     0.500010663  0.125004961  0.314812814
     0.250010663  0.250004961  0.314812814
     0.250010663  0.125004961  0.444852618
     0.500010663  0.250004961  0.444852618
     0.506958443  0.126163007  0.570895784
     0.256070082  0.250144125  0.579975262
     0.250839414  0.125045849  0.713995710
     0.500673653  0.249747165  0.698134615
     0.250010663  0.375004961  0.184773010
     0.500010663  0.500004961  0.184773010
     0.500010663  0.375004961  0.314812814
     0.250010663  0.500004961  0.314812814
     0.250010663  0.375004961  0.444852618
     0.500010663  0.500004961  0.444852618
     0.507145099  0.377369822  0.573855394
     0.255718828  0.500070831  0.580020650
     0.250337365  0.375030427  0.713965551
     0.500767540  0.499475845  0.704030949
     0.750010663  0.750004961  0.133797642
     0.750010663  0.750004961  0.235748378
     0.098010212  0.625004961  0.184773010
     0.902011115  0.625004961  0.184773010
     0.000010663  0.750004961  0.263837446
     0.000010663  0.750004961  0.365788182
     0.848010212  0.625004961  0.314812814
     0.152011115  0.625004961  0.314812814
     0.750010663  0.750004961  0.393877250
     0.750010663  0.750004961  0.495827986
     0.098010212  0.625004961  0.444852618
     0.902011115  0.625004961  0.444852618
     0.000626307  0.750156686  0.524686253
     0.999890718  0.749853986  0.627029978
     0.850916830  0.625295859  0.575083267
     0.150480619  0.625209447  0.575655044
     0.753951644  0.750905754  0.654327742
     0.748505746  0.748915918  0.757174094
     0.094594327  0.625132107  0.712240263
     0.906262223  0.624290135  0.713334191
     0.750010663  0.000004961  0.133797642
     0.750010663  0.000004961  0.235748378
     0.098010212  0.875004961  0.184773010
     0.902011115  0.875004961  0.184773010
     0.000010663  0.000004961  0.263837446
     0.000010663  0.000004961  0.365788182
     0.848010212  0.875004961  0.314812814
     0.152011115  0.875004961  0.314812814
     0.750010663  0.000004961  0.393877250
     0.750010663  0.000004961  0.495827986
     0.098010212  0.875004961  0.444852618
     0.902011115  0.875004961  0.444852618
     0.000693048  0.000031774  0.524703614
     0.000258429  0.000021458  0.626996580
     0.850699561  0.875521257  0.575468865
     0.150474173  0.874891319  0.575766812
     0.750916583  0.000047418  0.654697368
     0.750113421  0.999782465  0.757553790
     0.094393534  0.874554344  0.711947907
     0.906271110  0.875026818  0.712691719
     0.750010663  0.250004961  0.133797642
     0.750010663  0.250004961  0.235748378
     0.098010212  0.125004961  0.184773010
     0.902011115  0.125004961  0.184773010
     0.000010663  0.250004961  0.263837446
     0.000010663  0.250004961  0.365788182
     0.848010212  0.125004961  0.314812814
     0.152011115  0.125004961  0.314812814
     0.750010663  0.250004961  0.393877250
     0.750010663  0.250004961  0.495827986
     0.098010212  0.125004961  0.444852618
     0.902011115  0.125004961  0.444852618
     0.000605122  0.249889140  0.524694914
     0.000056675  0.250196989  0.627036943
     0.850634559  0.124738433  0.575579933
     0.150471179  0.125037219  0.575653146
     0.753124838  0.249800865  0.654371584
     0.749310131  0.250636032  0.757101777
     0.094261433  0.125331551  0.712101841
     0.906216754  0.124984628  0.712446262
     0.750010663  0.500004961  0.133797642
     0.750010663  0.500004961  0.235748378
     0.098010212  0.375004961  0.184773010
     0.902011115  0.375004961  0.184773010
     0.000010663  0.500004961  0.263837446
     0.000010663  0.500004961  0.365788182
     0.848010212  0.375004961  0.314812814
     0.152011115  0.375004961  0.314812814
     0.750010663  0.500004961  0.393877250
     0.750010663  0.500004961  0.495827986
     0.098010212  0.375004961  0.444852618
     0.902011115  0.375004961  0.444852618
     0.000722500  0.500029619  0.524670263
     0.000104201  0.500045008  0.626958558
     0.850901104  0.374722497  0.575117045
     0.150491920  0.374982074  0.575629251
     0.755456779  0.500070458  0.654156474
     0.739616446  0.499864660  0.757236474
     0.094511476  0.375098146  0.712233725
     0.906298461  0.375729531  0.713304168
     0.250010663  0.750004961  0.133797642
     0.250010663  0.750004961  0.235748378
     0.598010212  0.625004961  0.184773010
     0.402011115  0.625004961  0.184773010
     0.500010663  0.750004961  0.263837446
     0.500010663  0.750004961  0.365788182
     0.348010212  0.625004961  0.314812814
     0.652011115  0.625004961  0.314812814
     0.250010663  0.750004961  0.393877250
     0.250010663  0.750004961  0.495827986
     0.598010212  0.625004961  0.444852618
     0.402011115  0.625004961  0.444852618
     0.500827712  0.748799538  0.524456115
     0.498069375  0.751636801  0.625718408
     0.350083496  0.624924698  0.575598680
     0.651300050  0.625314899  0.576288103
     0.251310422  0.749739219  0.654521760
     0.250934322  0.749846350  0.757500153
     0.597229522  0.629841731  0.705781677
     0.407577943  0.625646483  0.712787633
     0.250010663  0.000004961  0.133797642
     0.250010663  0.000004961  0.235748378
     0.598010212  0.875004961  0.184773010
     0.402011115  0.875004961  0.184773010
     0.500010663  0.000004961  0.263837446
     0.500010663  0.000004961  0.365788182
     0.348010212  0.875004961  0.314812814
     0.652011115  0.875004961  0.314812814
     0.250010663  0.000004961  0.393877250
     0.250010663  0.000004961  0.495827986
     0.598010212  0.875004961  0.444852618
     0.402011115  0.875004961  0.444852618
     0.500422516  0.000158555  0.524118136
     0.500323822  0.999959150  0.626038241
     0.350156394  0.875264268  0.575250250
     0.650987451  0.874855526  0.575542391
     0.250408695  0.999975610  0.654490529
     0.249750850  0.000050229  0.757451871
     0.594541146  0.874914553  0.711425773
     0.406104217  0.875997644  0.711836570
     0.250010663  0.250004961  0.133797642
     0.250010663  0.250004961  0.235748378
     0.598010212  0.125004961  0.184773010
     0.402011115  0.125004961  0.184773010
     0.500010663  0.250004961  0.263837446
     0.500010663  0.250004961  0.365788182
     0.348010212  0.125004961  0.314812814
     0.652011115  0.125004961  0.314812814
     0.250010663  0.250004961  0.393877250
     0.250010663  0.250004961  0.495827986
     0.598010212  0.125004961  0.444852618
     0.402011115  0.125004961  0.444852618
     0.500752402  0.251378486  0.524594806
     0.499136633  0.248435587  0.626076189
     0.350253649  0.124923089  0.575430718
     0.651022950  0.125190086  0.575512039
     0.250320932  0.249990894  0.654481515
     0.250706852  0.250251892  0.757397816
     0.594588828  0.124801980  0.711480224
     0.406018044  0.124349687  0.711673459
     0.250010663  0.500004961  0.133797642
     0.250010663  0.500004961  0.235748378
     0.598010212  0.375004961  0.184773010
     0.402011115  0.375004961  0.184773010
     0.500010663  0.500004961  0.263837446
     0.500010663  0.500004961  0.365788182
     0.348010212  0.375004961  0.314812814
     0.652011115  0.375004961  0.314812814
     0.250010663  0.500004961  0.393877250
     0.250010663  0.500004961  0.495827986
     0.598010212  0.375004961  0.444852618
     0.402011115  0.375004961  0.444852618
     0.500918371  0.499902299  0.524926019
     0.499956620  0.500356070  0.627589559
     0.350142348  0.375062356  0.575851124
     0.651274130  0.374994700  0.576261986
     0.250227622  0.500347526  0.654535532
     0.252078539  0.500251088  0.757395720
     0.596699290  0.371481052  0.707003926
     0.406538645  0.374101435  0.711108178

  ion indices of the primitive-cell ions
   primitive index   ion index
                 1           1
                 2           2
                 3           3
                 4           4
                 5           5
                 6           6
                 7           7
                 8           8
                 9           9
                10          10
                11          11
                12          12
                13          13
                14          14
                15          15
                16          16
                17          17
                18          18
                19          19
                20          20
                21          21
                22          22
                23          23
                24          24
                25          25
                26          26
                27          27
                28          28
                29          29
                30          30
                31          31
                32          32
                33          33
                34          34
                35          35
                36          36
                37          37
                38          38
                39          39
                40          40
                41          41
                42          42
                43          43
                44          44
                45          45
                46          46
                47          47
                48          48
                49          49
                50          50
                51          51
                52          52
                53          53
                54          54
                55          55
                56          56
                57          57
                58          58
                59          59
                60          60
                61          61
                62          62
                63          63
                64          64
                65          65
                66          66
                67          67
                68          68
                69          69
                70          70
                71          71
                72          72
                73          73
                74          74
                75          75
                76          76
                77          77
                78          78
                79          79
                80          80
                81          81
                82          82
                83          83
                84          84
                85          85
                86          86
                87          87
                88          88
                89          89
                90          90
                91          91
                92          92
                93          93
                94          94
                95          95
                96          96
                97          97
                98          98
                99          99
               100         100
               101         101
               102         102
               103         103
               104         104
               105         105
               106         106
               107         107
               108         108
               109         109
               110         110
               111         111
               112         112
               113         113
               114         114
               115         115
               116         116
               117         117
               118         118
               119         119
               120         120
               121         121
               122         122
               123         123
               124         124
               125         125
               126         126
               127         127
               128         128
               129         129
               130         130
               131         131
               132         132
               133         133
               134         134
               135         135
               136         136
               137         137
               138         138
               139         139
               140         140
               141         141
               142         142
               143         143
               144         144
               145         145
               146         146
               147         147
               148         148
               149         149
               150         150
               151         151
               152         152
               153         153
               154         154
               155         155
               156         156
               157         157
               158         158
               159         159
               160         160
               161         161
               162         162
               163         163
               164         164
               165         165
               166         166
               167         167
               168         168
               169         169
               170         170
               171         171
               172         172
               173         173
               174         174
               175         175
               176         176
               177         177
               178         178
               179         179
               180         180
               181         181
               182         182
               183         183
               184         184
               185         185
               186         186
               187         187
               188         188
               189         189
               190         190
               191         191
               192         192
               193         193
               194         194
               195         195
               196         196
               197         197
               198         198
               199         199
               200         200
               201         201
               202         202
               203         203
               204         204
               205         205
               206         206
               207         207
               208         208
               209         209
               210         210
               211         211
               212         212
               213         213
               214         214
               215         215
               216         216
               217         217
               218         218
               219         219
               220         220
               221         221
               222         222
               223         223
               224         224
               225         225
               226         226
               227         227
               228         228
               229         229
               230         230
               231         231
               232         232
               233         233
               234         234
               235         235
               236         236
               237         237
               238         238
               239         239
               240         240

----------------------------------------------------------------------------------------

 
 
 KPOINTS: pymatgen v2020.8.13 with grid density = 

Automatic generation of k-mesh.
 Grid dimensions read from file:
 generate k-points for:    2    2    1

 Generating k-lattice:

  Cartesian coordinates                     Fractional coordinates (reciprocal lattice)
     0.038449766  0.000000000  0.000000000     0.500000000  0.000000000  0.000000000
     0.000000000  0.042264076  0.000000000     0.000000000  0.500000000  0.000000000
     0.000000000  0.000000000  0.040000000     0.000000000  0.000000000  1.000000000

  Length of vectors
     0.038449766  0.042264076  0.040000000

  Shift w.r.t. Gamma in fractional coordinates (k-lattice)
     0.000000000  0.000000000  0.000000000

 
 Subroutine IBZKPT returns following result:
 ===========================================
 
 Found      4 irreducible k-points:
 
 Following reciprocal coordinates:
            Coordinates               Weight
  0.000000  0.000000  0.000000      1.000000
  0.500000  0.000000  0.000000      1.000000
  0.000000  0.500000  0.000000      1.000000
  0.500000  0.500000  0.000000      1.000000
 
 Following cartesian coordinates:
            Coordinates               Weight
  0.000000  0.000000  0.000000      1.000000
  0.038450  0.000000  0.000000      1.000000
  0.000000  0.042264  0.000000      1.000000
  0.038450  0.042264  0.000000      1.000000
 


--------------------------------------------------------------------------------------------------------




 Dimension of arrays:
   k-points           NKPTS =      4   k-points in BZ     NKDIM =      4   number of bands    NBANDS=   1152
   number of dos      NEDOS =    301   number of ions     NIONS =    240
   non local maximal  LDIM  =      6   non local SUM 2l+1 LMDIM =     18
   total plane-waves  NPLWV = ******
   max r-space proj   IRMAX =   4319   max aug-charges    IRDMAX=  20711
   dimension x,y,z NGX =   108 NGY =   96 NGZ =  196
   dimension x,y,z NGXF=   216 NGYF=  192 NGZF=  392
   support grid    NGXF=   216 NGYF=  192 NGZF=  392
   ions per type =              80 160
   NGX,Y,Z   is equivalent  to a cutoff of  13.81, 13.49, 13.03 a.u.
   NGXF,Y,Z  is equivalent  to a cutoff of  27.61, 26.98, 26.07 a.u.

 SYSTEM =  Oxide-Surface                           
 POSCAR =  Ti  O                                   

    13.003980404 11.830378115 25.000000000     0.076899531  0.084528152  0.040000000


 
 old parameters found on file WAVECAR:
  energy-cutoff  :     1000.00
  volume of cell :     3846.05
      direct lattice vectors                 reciprocal lattice vectors
    13.003980404  0.000000000  0.000000000     0.076899531  0.000000000  0.000000000
     0.000000000 11.830378115  0.000000000     0.000000000  0.084528152  0.000000000
     0.000000000  0.000000000 25.000000000     0.000000000  0.000000000  0.040000000

  length of vectors

 
 k-points in units of 2pi/SCALE and weight: pymatgen v2020.8.13 with grid density = 
   0.00000000  0.00000000  0.00000000       0.250
   0.03844977  0.00000000  0.00000000       0.250
   0.00000000  0.04226408  0.00000000       0.250
   0.03844977  0.04226408  0.00000000       0.250
 
 k-points in reciprocal lattice and weights: pymatgen v2020.8.13 with grid density = 
   0.00000000  0.00000000  0.00000000       0.250
   0.50000000  0.00000000  0.00000000       0.250
   0.00000000  0.50000000  0.00000000       0.250
   0.50000000  0.50000000  0.00000000       0.250
 
 position of ions in fractional coordinates (direct lattice) 
   0.75001066  0.62500496  0.18477301
   0.00001066  0.75000496  0.18477301
   0.00001066  0.62500496  0.31481281
   0.75001066  0.75000496  0.31481281
   0.75001066  0.62500496  0.44485262
   0.00001066  0.75000496  0.44485262
   0.00700444  0.62507895  0.57200852
   0.75614422  0.75011938  0.57953888
   0.75077042  0.62580281  0.71261968
   0.99998934  0.75034696  0.69926857
   0.75001066  0.87500496  0.18477301
   0.00001066  0.00000496  0.18477301
   0.00001066  0.87500496  0.31481281
   0.75001066  0.00000496  0.31481281
   0.75001066  0.87500496  0.44485262
   0.00001066  0.00000496  0.44485262
   0.00711579  0.87505404  0.57207610
   0.75571074  0.00005509  0.57992054
   0.74963951  0.87494515  0.71392253
   0.00025902  0.99995054  0.69922847
   0.75001066  0.12500496  0.18477301
   0.00001066  0.25000496  0.18477301
   0.00001066  0.12500496  0.31481281
   0.75001066  0.25000496  0.31481281
   0.75001066  0.12500496  0.44485262
   0.00001066  0.25000496  0.44485262
   0.00728282  0.12497286  0.57208756
   0.75603132  0.24987428  0.57945618
   0.74960156  0.12422182  0.71392979
   0.00020277  0.24963612  0.69925774
   0.75001066  0.37500496  0.18477301
   0.00001066  0.50000496  0.18477301
   0.00001066  0.37500496  0.31481281
   0.75001066  0.50000496  0.31481281
   0.75001066  0.37500496  0.44485262
   0.00001066  0.50000496  0.44485262
   0.00699565  0.37498749  0.57198670
   0.75637075  0.50001354  0.57973846
   0.75145261  0.37322785  0.71266192
   0.00083308  0.50013065  0.69918553
   0.25001066  0.62500496  0.18477301
   0.50001066  0.75000496  0.18477301
   0.50001066  0.62500496  0.31481281
   0.25001066  0.75000496  0.31481281
   0.25001066  0.62500496  0.44485262
   0.50001066  0.75000496  0.44485262
   0.50717352  0.62267980  0.57362649
   0.25615672  0.74999717  0.57984742
   0.25034736  0.62532776  0.71380146
   0.50076927  0.75013331  0.69768095
   0.25001066  0.87500496  0.18477301
   0.50001066  0.00000496  0.18477301
   0.50001066  0.87500496  0.31481281
   0.25001066  0.00000496  0.31481281
   0.25001066  0.87500496  0.44485262
   0.50001066  0.00000496  0.44485262
   0.50709428  0.87403217  0.57076334
   0.25601481  0.99999504  0.57998983
   0.25105032  0.87516801  0.71403706
   0.49949672  0.99997906  0.69798186
   0.25001066  0.12500496  0.18477301
   0.50001066  0.25000496  0.18477301
   0.50001066  0.12500496  0.31481281
   0.25001066  0.25000496  0.31481281
   0.25001066  0.12500496  0.44485262
   0.50001066  0.25000496  0.44485262
   0.50695844  0.12616301  0.57089578
   0.25607008  0.25014413  0.57997526
   0.25083941  0.12504585  0.71399571
   0.50067365  0.24974717  0.69813462
   0.25001066  0.37500496  0.18477301
   0.50001066  0.50000496  0.18477301
   0.50001066  0.37500496  0.31481281
   0.25001066  0.50000496  0.31481281
   0.25001066  0.37500496  0.44485262
   0.50001066  0.50000496  0.44485262
   0.50714510  0.37736982  0.57385539
   0.25571883  0.50007083  0.58002065
   0.25033737  0.37503043  0.71396555
   0.50076754  0.49947585  0.70403095
   0.75001066  0.75000496  0.13379764
   0.75001066  0.75000496  0.23574838
   0.09801021  0.62500496  0.18477301
   0.90201112  0.62500496  0.18477301
   0.00001066  0.75000496  0.26383745
   0.00001066  0.75000496  0.36578818
   0.84801021  0.62500496  0.31481281
   0.15201112  0.62500496  0.31481281
   0.75001066  0.75000496  0.39387725
   0.75001066  0.75000496  0.49582799
   0.09801021  0.62500496  0.44485262
   0.90201112  0.62500496  0.44485262
   0.00062631  0.75015669  0.52468625
   0.99989072  0.74985399  0.62702998
   0.85091683  0.62529586  0.57508327
   0.15048062  0.62520945  0.57565504
   0.75395164  0.75090575  0.65432774
   0.74850575  0.74891592  0.75717409
   0.09459433  0.62513211  0.71224026
   0.90626222  0.62429014  0.71333419
   0.75001066  0.00000496  0.13379764
   0.75001066  0.00000496  0.23574838
   0.09801021  0.87500496  0.18477301
   0.90201112  0.87500496  0.18477301
   0.00001066  0.00000496  0.26383745
   0.00001066  0.00000496  0.36578818
   0.84801021  0.87500496  0.31481281
   0.15201112  0.87500496  0.31481281
   0.75001066  0.00000496  0.39387725
   0.75001066  0.00000496  0.49582799
   0.09801021  0.87500496  0.44485262
   0.90201112  0.87500496  0.44485262
   0.00069305  0.00003177  0.52470361
   0.00025843  0.00002146  0.62699658
   0.85069956  0.87552126  0.57546887
   0.15047417  0.87489132  0.57576681
   0.75091658  0.00004742  0.65469737
   0.75011342  0.99978246  0.75755379
   0.09439353  0.87455434  0.71194791
   0.90627111  0.87502682  0.71269172
   0.75001066  0.25000496  0.13379764
   0.75001066  0.25000496  0.23574838
   0.09801021  0.12500496  0.18477301
   0.90201112  0.12500496  0.18477301
   0.00001066  0.25000496  0.26383745
   0.00001066  0.25000496  0.36578818
   0.84801021  0.12500496  0.31481281
   0.15201112  0.12500496  0.31481281
   0.75001066  0.25000496  0.39387725
   0.75001066  0.25000496  0.49582799
   0.09801021  0.12500496  0.44485262
   0.90201112  0.12500496  0.44485262
   0.00060512  0.24988914  0.52469491
   0.00005668  0.25019699  0.62703694
   0.85063456  0.12473843  0.57557993
   0.15047118  0.12503722  0.57565315
   0.75312484  0.24980087  0.65437158
   0.74931013  0.25063603  0.75710178
   0.09426143  0.12533155  0.71210184
   0.90621675  0.12498463  0.71244626
   0.75001066  0.50000496  0.13379764
   0.75001066  0.50000496  0.23574838
   0.09801021  0.37500496  0.18477301
   0.90201112  0.37500496  0.18477301
   0.00001066  0.50000496  0.26383745
   0.00001066  0.50000496  0.36578818
   0.84801021  0.37500496  0.31481281
   0.15201112  0.37500496  0.31481281
   0.75001066  0.50000496  0.39387725
   0.75001066  0.50000496  0.49582799
   0.09801021  0.37500496  0.44485262
   0.90201112  0.37500496  0.44485262
   0.00072250  0.50002962  0.52467026
   0.00010420  0.50004501  0.62695856
   0.85090110  0.37472250  0.57511705
   0.15049192  0.37498207  0.57562925
   0.75545678  0.50007046  0.65415647
   0.73961645  0.49986466  0.75723647
   0.09451148  0.37509815  0.71223372
   0.90629846  0.37572953  0.71330417
   0.25001066  0.75000496  0.13379764
   0.25001066  0.75000496  0.23574838
   0.59801021  0.62500496  0.18477301
   0.40201112  0.62500496  0.18477301
   0.50001066  0.75000496  0.26383745
   0.50001066  0.75000496  0.36578818
   0.34801021  0.62500496  0.31481281
   0.65201112  0.62500496  0.31481281
   0.25001066  0.75000496  0.39387725
   0.25001066  0.75000496  0.49582799
   0.59801021  0.62500496  0.44485262
   0.40201112  0.62500496  0.44485262
   0.50082771  0.74879954  0.52445611
   0.49806937  0.75163680  0.62571841
   0.35008350  0.62492470  0.57559868
   0.65130005  0.62531490  0.57628810
   0.25131042  0.74973922  0.65452176
   0.25093432  0.74984635  0.75750015
   0.59722952  0.62984173  0.70578168
   0.40757794  0.62564648  0.71278763
   0.25001066  0.00000496  0.13379764
   0.25001066  0.00000496  0.23574838
   0.59801021  0.87500496  0.18477301
   0.40201112  0.87500496  0.18477301
   0.50001066  0.00000496  0.26383745
   0.50001066  0.00000496  0.36578818
   0.34801021  0.87500496  0.31481281
   0.65201112  0.87500496  0.31481281
   0.25001066  0.00000496  0.39387725
   0.25001066  0.00000496  0.49582799
   0.59801021  0.87500496  0.44485262
   0.40201112  0.87500496  0.44485262
   0.50042252  0.00015855  0.52411814
   0.50032382  0.99995915  0.62603824
   0.35015639  0.87526427  0.57525025
   0.65098745  0.87485553  0.57554239
   0.25040869  0.99997561  0.65449053
   0.24975085  0.00005023  0.75745187
   0.59454115  0.87491455  0.71142577
   0.40610422  0.87599764  0.71183657
   0.25001066  0.25000496  0.13379764
   0.25001066  0.25000496  0.23574838
   0.59801021  0.12500496  0.18477301
   0.40201112  0.12500496  0.18477301
   0.50001066  0.25000496  0.26383745
   0.50001066  0.25000496  0.36578818
   0.34801021  0.12500496  0.31481281
   0.65201112  0.12500496  0.31481281
   0.25001066  0.25000496  0.39387725
   0.25001066  0.25000496  0.49582799
   0.59801021  0.12500496  0.44485262
   0.40201112  0.12500496  0.44485262
   0.50075240  0.25137849  0.52459481
   0.49913663  0.24843559  0.62607619
   0.35025365  0.12492309  0.57543072
   0.65102295  0.12519009  0.57551204
   0.25032093  0.24999089  0.65448151
   0.25070685  0.25025189  0.75739782
   0.59458883  0.12480198  0.71148022
   0.40601804  0.12434969  0.71167346
   0.25001066  0.50000496  0.13379764
   0.25001066  0.50000496  0.23574838
   0.59801021  0.37500496  0.18477301
   0.40201112  0.37500496  0.18477301
   0.50001066  0.50000496  0.26383745
   0.50001066  0.50000496  0.36578818
   0.34801021  0.37500496  0.31481281
   0.65201112  0.37500496  0.31481281
   0.25001066  0.50000496  0.39387725
   0.25001066  0.50000496  0.49582799
   0.59801021  0.37500496  0.44485262
   0.40201112  0.37500496  0.44485262
   0.50091837  0.49990230  0.52492602
   0.49995662  0.50035607  0.62758956
   0.35014235  0.37506236  0.57585112
   0.65127413  0.37499470  0.57626199
   0.25022762  0.50034753  0.65453553
   0.25207854  0.50025109  0.75739572
   0.59669929  0.37148105  0.70700393
   0.40653865  0.37410143  0.71110818
 
 position of ions in cartesian coordinates  (Angst):
   9.75312397  7.39404502  4.61932524
   0.00013867  8.87284228  4.61932524
   0.00013867  7.39404502  7.87032034
   9.75312397  8.87284228  7.87032034
   9.75312397  7.39404502 11.12131545
   0.00013867  8.87284228 11.12131545
   0.09108556  7.39492030 14.30021291
   9.83288462  8.87419593 14.48847209
   9.76300378  7.40348384 17.81549195
  13.00384174  8.87688827 17.48171418
   9.75312397 10.35163954  4.61932524
   0.00013867  0.00005869  4.61932524
   0.00013867 10.35163954  7.87032034
   9.75312397  0.00005869  7.87032034
   9.75312397 10.35163954 11.12131545
   0.00013867  0.00005869 11.12131545
   0.09253360 10.35222015 14.30190254
   9.82724769  0.00065173 14.49801358
   9.74829754 10.35093200 17.84806314
   0.00336833 11.82979301 17.48071167
   9.75312397  1.47885596  4.61932524
   0.00013867  2.95765322  4.61932524
   0.00013867  1.47885596  7.87032034
   9.75312397  2.95765322  7.87032034
   9.75312397  1.47885596 11.12131545
   0.00013867  2.95765322 11.12131545
   0.09470570  1.47847615 14.30218895
   9.83141650  2.95610727 14.48640442
   9.74780399  1.46959111 17.84824487
   0.00263680  2.95328974 17.48144339
   9.75312397  4.43645049  4.61932524
   0.00013867  5.91524775  4.61932524
   0.00013867  4.43645049  7.87032034
   9.75312397  5.91524775  7.87032034
   9.75312397  4.43645049 11.12131545
   0.00013867  5.91524775 11.12131545
   0.09097130  4.43624379 14.29966749
   9.83583038  5.91534922 14.49346138
   9.77187501  4.41542654 17.81654803
   0.01083330  5.91673475 17.47963829
   3.25113377  7.39404502  4.61932524
   6.50212887  8.87284228  4.61932524
   6.50212887  7.39404502  7.87032034
   3.25113377  8.87284228  7.87032034
   3.25113377  7.39404502 11.12131545
   6.50212887  8.87284228 11.12131545
   6.59527452  7.36653753 14.34066219
   3.33105691  8.87275015 14.49618540
   3.25551219  7.39786388 17.84503659
   6.51199376  8.87436071 17.44202367
   3.25113377 10.35163954  4.61932524
   6.50212887  0.00005869  4.61932524
   6.50212887 10.35163954  7.87032034
   3.25113377  0.00005869  7.87032034
   3.25113377 10.35163954 11.12131545
   6.50212887  0.00005869 11.12131545
   6.59424410 10.34013102 14.26908347
   3.32921159 11.83031942 14.49974583
   3.26465341 10.35356853 17.85092640
   6.49544553 11.83013037 17.44954646
   3.25113377  1.47885596  4.61932524
   6.50212887  2.95765322  4.61932524
   6.50212887  1.47885596  7.87032034
   3.25113377  2.95765322  7.87032034
   3.25113377  1.47885596 11.12131545
   6.50212887  2.95765322 11.12131545
   6.59247766  1.49255608 14.27239460
   3.32993032  2.95929959 14.49938156
   3.26191083  1.47933968 17.84989274
   6.51075037  2.95460340 17.45336539
   3.25113377  4.43645049  4.61932524
   6.50212887  5.91524775  4.61932524
   6.50212887  4.43645049  7.87032034
   3.25113377  5.91524775  7.87032034
   3.25113377  4.43645049 11.12131545
   6.50212887  5.91524775 11.12131545
   6.59490493  4.46442768 14.34638484
   3.32536262  5.91602702 14.50051625
   3.25538219  4.43675176 17.84913876
   6.51197128  5.90898811 17.60077372
   9.75312397  8.87284228  3.34494104
   9.75312397  8.87284228  5.89370945
   1.27452287  7.39404502  4.61932524
  11.72973487  7.39404502  4.61932524
   0.00013867  8.87284228  6.59593614
   0.00013867  8.87284228  9.14470455
  11.02750817  7.39404502  7.87032034
   1.97674956  7.39404502  7.87032034
   9.75312397  8.87284228  9.84693124
   9.75312397  8.87284228 12.39569965
   1.27452287  7.39404502 11.12131545
  11.72973487  7.39404502 11.12131545
   0.00814449  8.87463724 13.11715632
  13.00255930  8.87105619 15.67574946
  11.06530579  7.39748645 14.37708167
   1.95684702  7.39646416 14.39137610
   9.80437240  8.88349900 16.35819356
   9.73355405  8.85995849 18.92935234
   1.23010278  7.39554920 17.80600658
  11.78501619  7.38558835 17.83335478
   9.75312397  0.00005869  3.34494104
   9.75312397  0.00005869  5.89370945
   1.27452287 10.35163954  4.61932524
  11.72973487 10.35163954  4.61932524
   0.00013867  0.00005869  6.59593614
   0.00013867  0.00005869  9.14470455
  11.02750817 10.35163954  7.87032034
   1.97674956 10.35163954  7.87032034
   9.75312397  0.00005869  9.84693124
   9.75312397  0.00005869 12.39569965
   1.27452287 10.35163954 11.12131545
  11.72973487 10.35163954 11.12131545
   0.00901238  0.00037590 13.11759035
   0.00336060  0.00025386 15.67491451
  11.06248041 10.35774751 14.38672163
   1.95676320 10.35029511 14.39417030
   9.76490452  0.00056097 16.36743420
   9.75446022 11.82780459 18.93884476
   1.22749167 10.34630857 17.79869769
  11.78513176 10.35189812 17.81729299
   9.75312397  2.95765322  3.34494104
   9.75312397  2.95765322  5.89370945
   1.27452287  1.47885596  4.61932524
  11.72973487  1.47885596  4.61932524
   0.00013867  2.95765322  6.59593614
   0.00013867  2.95765322  9.14470455
  11.02750817  1.47885596  7.87032034
   1.97674956  1.47885596  7.87032034
   9.75312397  2.95765322  9.84693124
   9.75312397  2.95765322 12.39569965
   1.27452287  1.47885596 11.12131545
  11.72973487  1.47885596 11.12131545
   0.00786899  2.95628302 13.11737285
   0.00073700  2.95992499 15.67592358
  11.06163514  1.47570282 14.38949833
   1.95672427  1.47923757 14.39132865
   9.79362063  2.95523869 16.35928960
   9.74401426  2.96511903 18.92754443
   1.22577383  1.48271964 17.80254603
  11.78442491  1.47861541 17.81115655
   9.75312397  5.91524775  3.34494104
   9.75312397  5.91524775  5.89370945
   1.27452287  4.43645049  4.61932524
  11.72973487  4.43645049  4.61932524
   0.00013867  5.91524775  6.59593614
   0.00013867  5.91524775  9.14470455
  11.02750817  4.43645049  7.87032034
   1.97674956  4.43645049  7.87032034
   9.75312397  5.91524775  9.84693124
   9.75312397  5.91524775 12.39569965
   1.27452287  4.43645049 11.12131545
  11.72973487  4.43645049 11.12131545
   0.00939538  5.91553946 13.11675657
   0.00135503  5.91572152 15.67396396
  11.06510128  4.43310882 14.37792613
   1.95699398  4.43617972 14.39073129
   9.82394515  5.91602260 16.35391185
   9.61795777  5.91358793 18.93091185
   1.22902538  4.43755289 17.80584312
  11.78548743  4.44502242 17.83260420
   3.25113377  8.87284228  3.34494104
   3.25113377  8.87284228  5.89370945
   7.77651307  7.39404502  4.61932524
   5.22774466  7.39404502  4.61932524
   6.50212887  8.87284228  6.59593614
   6.50212887  8.87284228  9.14470455
   4.52551797  7.39404502  7.87032034
   8.47873976  7.39404502  7.87032034
   3.25113377  8.87284228  9.84693124
   3.25113377  8.87284228 12.39569965
   7.77651307  7.39404502 11.12131545
   5.22774466  7.39404502 11.12131545
   6.51275375  8.85858166 13.11140287
   6.47688439  8.89214756 15.64296020
   4.55247893  7.39309547 14.38996700
   8.46949309  7.39771170 14.40720257
   3.26803581  8.86969844 16.36304401
   3.26314500  8.87096584 18.93750383
   7.76636100  7.45126583 17.64454191
   5.30013558  7.40163446 17.81969083
   3.25113377  0.00005869  3.34494104
   3.25113377  0.00005869  5.89370945
   7.77651307 10.35163954  4.61932524
   5.22774466 10.35163954  4.61932524
   6.50212887  0.00005869  6.59593614
   6.50212887  0.00005869  9.14470455
   4.52551797 10.35163954  7.87032034
   8.47873976 10.35163954  7.87032034
   3.25113377  0.00005869  9.84693124
   3.25113377  0.00005869 12.39569965
   7.77651307 10.35163954 11.12131545
   5.22774466 10.35163954 11.12131545
   6.50748460  0.00187576 13.10295341
   6.50620118 11.82989484 15.65095603
   4.55342688 10.35470724 14.38125624
   8.46542806 10.34987167 14.38855977
   3.25630976 11.83008957 16.36226322
   3.24775516  0.00059423 18.93629676
   7.73140142 10.35056998 17.78564432
   5.28097129 10.36338336 17.79591424
   3.25113377  2.95765322  3.34494104
   3.25113377  2.95765322  5.89370945
   7.77651307  1.47885596  4.61932524
   5.22774466  1.47885596  4.61932524
   6.50212887  2.95765322  6.59593614
   6.50212887  2.95765322  9.14470455
   4.52551797  1.47885596  7.87032034
   8.47873976  1.47885596  7.87032034
   3.25113377  2.95765322  9.84693124
   3.25113377  2.95765322 12.39569965
   7.77651307  1.47885596 11.12131545
   5.22774466  1.47885596 11.12131545
   6.51177442  2.97390254 13.11487015
   6.49076300  2.93908694 15.65190472
   4.55469158  1.47788738 14.38576796
   8.46588969  1.48104605 14.38780097
   3.25516849  2.95748680 16.36203787
   3.26018699  2.96057450 18.93494540
   7.73202147  1.47645461 17.78700561
   5.27985068  1.47110382 17.79183648
   3.25113377  5.91524775  3.34494104
   3.25113377  5.91524775  5.89370945
   7.77651307  4.43645049  4.61932524
   5.22774466  4.43645049  4.61932524
   6.50212887  5.91524775  6.59593614
   6.50212887  5.91524775  9.14470455
   4.52551797  4.43645049  7.87032034
   8.47873976  4.43645049  7.87032034
   3.25113377  5.91524775  9.84693124
   3.25113377  5.91524775 12.39569965
   7.77651307  4.43645049 11.12131545
   5.22774466  4.43645049 11.12131545
   6.51393267  5.91403322 13.12315048
   6.50142609  5.91940150 15.68973899
   4.55324423  4.43712949 14.39627810
   8.46915602  4.43632909 14.40654964
   3.25395510  5.91930042 16.36338830
   3.27802438  5.91815953 18.93489300
   7.75946587  4.39476131 17.67509816
   5.28662057  4.42576143 17.77770446
 


--------------------------------------------------------------------------------------------------------

--------------------------------------- Iteration      FINAL  ---------------------------------------


--------------------OUTCAR has been truncated-------------------------


--------------------OUTCAR has been truncated-------------------------


--------------------OUTCAR has been truncated-------------------------


--------------------OUTCAR has been truncated-------------------------


--------------------OUTCAR has been truncated-------------------------


--------------------OUTCAR has been truncated-------------------------


--------------------OUTCAR has been truncated-------------------------


--------------------OUTCAR has been truncated-------------------------


--------------------OUTCAR has been truncated-------------------------


--------------------OUTCAR has been truncated-------------------------


    MIXING:  cpu time      0.1351: real time      0.1355
    OFIELD:  cpu time      0.0001: real time      0.0001

  FORCE on cell =-STRESS in cart. coord.  units (eV):
  Direction    XX          YY          ZZ          XY          YZ          ZX
  --------------------------------------------------------------------------------------
  Alpha Z  4551.47410  4551.47410  4551.47410
  Ewald  509974.74058533099.05572************    -6.63866     0.75772   -35.66854
  Hartree566585.17546580198.31345************    -3.13981     0.51799   -22.08130
  E(xc)  -10455.38893-10442.10384-10454.71370    -0.01920    -0.00135    -0.08122
  Local  ************************************     9.87133    -1.18574    59.08818
  n-local -4489.77569 -4696.85299 -4535.30406     0.16997     0.35121     0.81244
  augment  4986.33474  5047.84450  4988.38279    -0.05800    -0.09369    -0.63639
  Kinetic 43101.94801 42894.73345 43144.17150    -0.24152    -0.19489    -0.43340
  Fock        0.00000     0.00000     0.00000     0.00000     0.00000     0.00000
  -------------------------------------------------------------------------------------
  Total      -9.17166   -66.51329   -59.91862    -0.05589     0.15123     0.99976
  in kB      -3.82071   -27.70793   -24.96074    -0.02328     0.06300     0.41648
  external pressure =      -18.83 kB  Pullay stress =        0.00 kB


 VOLUME and BASIS-vectors are now :
 -----------------------------------------------------------------------------
  energy-cutoff  :     1000.00
  volume of cell :     3846.05
      direct lattice vectors                 reciprocal lattice vectors
    13.003980404  0.000000000  0.000000000     0.076899531  0.000000000  0.000000000
     0.000000000 11.830378115  0.000000000     0.000000000  0.084528152  0.000000000
     0.000000000  0.000000000 25.000000000     0.000000000  0.000000000  0.040000000

  length of vectors
    13.003980404 11.830378115 25.000000000     0.076899531  0.084528152  0.040000000


 FORCES acting on ions
    electron-ion (+dipol)            ewald-force                    non-local-force                 convergence-correction
 -----------------------------------------------------------------------------------------------
   0.292E-01 0.442E-01 0.370E+04   -.260E-01 -.436E-01 -.370E+04   -.682E-02 -.824E-03 0.124E+01   -.957E-05 -.502E-04 0.294E-02
   -.816E-02 0.381E-01 0.391E+04   0.320E-02 -.378E-01 -.391E+04   0.429E-02 -.352E-03 -.583E+01   -.218E-05 -.179E-04 0.289E-02
   -.971E-01 0.827E-01 0.188E+04   0.109E+00 -.823E-01 -.188E+04   -.451E-02 -.455E-03 -.218E+00   -.379E-05 0.477E-05 0.159E-02
   -.326E-01 0.233E+00 0.187E+04   0.202E-01 -.232E+00 -.187E+04   0.109E-01 -.814E-03 0.329E+00   0.465E-05 0.376E-05 0.152E-02
   0.534E+00 0.867E+00 -.288E+02   -.553E+00 -.886E+00 0.297E+02   -.380E-02 0.284E-02 -.256E+00   0.116E-04 0.988E-05 0.178E-02
   0.218E+01 -.261E-01 -.119E+02   -.219E+01 0.329E-01 0.106E+02   -.152E-03 -.421E-02 0.583E+00   -.671E-05 0.184E-04 0.185E-02
   0.190E+02 0.690E-01 -.186E+04   -.184E+02 -.589E-01 0.186E+04   -.759E+00 -.107E-01 0.841E+00   -.780E-05 0.702E-05 0.281E-02
   0.118E+02 -.219E+01 -.191E+04   -.112E+02 0.223E+01 0.191E+04   -.617E+00 -.160E-01 -.114E+01   0.701E-04 0.470E-05 0.272E-02
   -.176E+02 0.203E+02 -.367E+04   0.176E+02 -.208E+02 0.367E+04   0.202E+00 -.958E-02 -.169E+01   -.127E-03 -.123E-03 0.205E-02
   -.197E+00 0.613E+01 -.374E+04   0.181E+00 -.606E+01 0.374E+04   -.447E-01 -.100E+00 0.302E+01   0.182E-04 -.191E-04 0.161E-02
   0.957E-02 0.321E-01 0.370E+04   -.683E-02 -.320E-01 -.370E+04   -.664E-02 -.727E-03 0.124E+01   0.784E-05 0.198E-04 0.299E-02
   -.102E-01 -.713E-02 0.391E+04   0.531E-02 0.701E-02 -.391E+04   0.428E-02 -.285E-03 -.583E+01   -.952E-05 0.215E-04 0.288E-02
   -.669E-01 0.334E-01 0.188E+04   0.785E-01 -.337E-01 -.188E+04   -.452E-02 -.328E-03 -.218E+00   -.279E-05 0.117E-05 0.160E-02
   -.199E+00 -.418E-01 0.187E+04   0.186E+00 0.411E-01 -.187E+04   0.110E-01 -.482E-03 0.329E+00   0.105E-04 0.371E-05 0.150E-02
   -.195E+01 0.188E+00 -.282E+02   0.195E+01 -.156E+00 0.292E+02   -.924E-02 -.581E-02 -.262E+00   0.220E-04 0.254E-05 0.179E-02
   0.264E+01 -.999E-01 -.126E+02   -.265E+01 0.997E-01 0.113E+02   -.114E-02 -.776E-03 0.581E+00   0.107E-05 -.222E-04 0.186E-02
   0.218E+02 0.126E+00 -.186E+04   -.212E+02 -.115E+00 0.186E+04   -.795E+00 -.141E-01 0.840E+00   -.187E-05 0.115E-04 0.280E-02
   0.112E+02 -.265E+00 -.192E+04   -.106E+02 0.261E+00 0.192E+04   -.620E+00 0.345E-02 -.112E+01   0.588E-04 -.701E-05 0.276E-02
   -.375E+00 -.136E+01 -.367E+04   0.354E+00 0.123E+01 0.367E+04   0.737E-01 0.392E-02 -.170E+01   -.504E-04 -.373E-04 0.180E-02
   -.207E+01 0.309E+00 -.374E+04   0.198E+01 -.321E+00 0.374E+04   0.305E-01 0.226E-02 0.309E+01   0.102E-04 0.236E-04 0.159E-02
   0.125E-01 -.442E-01 0.370E+04   -.962E-02 0.435E-01 -.370E+04   -.670E-02 -.595E-03 0.124E+01   0.412E-05 -.553E-05 0.299E-02
   -.990E-02 -.380E-01 0.391E+04   0.502E-02 0.378E-01 -.391E+04   0.427E-02 -.228E-03 -.583E+01   -.134E-04 -.266E-05 0.286E-02
   -.736E-01 -.778E-01 0.188E+04   0.857E-01 0.776E-01 -.188E+04   -.469E-02 -.415E-03 -.218E+00   -.267E-05 -.253E-05 0.159E-02
   0.174E-02 -.233E+00 0.187E+04   -.137E-01 0.232E+00 -.187E+04   0.108E-01 -.423E-03 0.330E+00   0.413E-05 -.567E-05 0.150E-02
   -.183E+01 -.397E+00 -.283E+02   0.184E+01 0.346E+00 0.293E+02   -.865E-02 0.962E-02 -.259E+00   0.917E-05 -.146E-04 0.179E-02
   0.216E+01 0.669E-01 -.121E+02   -.217E+01 -.740E-01 0.108E+02   -.159E-02 0.298E-02 0.584E+00   0.564E-05 -.562E-05 0.186E-02
   0.234E+02 -.426E+00 -.186E+04   -.227E+02 0.407E+00 0.186E+04   -.813E+00 0.152E-01 0.838E+00   -.218E-04 -.158E-04 0.280E-02
   0.115E+02 0.156E+01 -.191E+04   -.109E+02 -.161E+01 0.191E+04   -.609E+00 0.216E-01 -.112E+01   0.793E-04 -.317E-05 0.274E-02
   0.432E+00 -.202E+01 -.367E+04   -.400E+00 0.199E+01 0.367E+04   0.653E-01 0.537E-01 -.171E+01   -.102E-04 0.646E-05 0.175E-02
   0.610E+00 -.654E+01 -.374E+04   -.642E+00 0.647E+01 0.374E+04   -.549E-01 0.972E-01 0.303E+01   -.330E-05 0.523E-05 0.164E-02
   0.321E-01 -.321E-01 0.370E+04   -.288E-01 0.321E-01 -.370E+04   -.688E-02 -.760E-03 0.124E+01   -.246E-05 0.347E-04 0.294E-02
   -.772E-02 0.715E-02 0.391E+04   0.276E-02 -.700E-02 -.391E+04   0.427E-02 -.319E-03 -.583E+01   -.405E-05 -.124E-05 0.285E-02
   -.105E+00 -.383E-01 0.188E+04   0.117E+00 0.384E-01 -.188E+04   -.468E-02 -.505E-03 -.218E+00   0.486E-07 -.301E-05 0.159E-02
   0.163E+00 0.413E-01 0.187E+04   -.174E+00 -.406E-01 -.187E+04   0.104E-01 -.780E-03 0.329E+00   -.390E-05 -.392E-06 0.149E-02
   0.688E+00 -.652E+00 -.289E+02   -.708E+00 0.689E+00 0.298E+02   -.320E-02 -.732E-02 -.253E+00   0.841E-05 0.181E-05 0.178E-02
   0.205E+01 0.110E+00 -.116E+02   -.206E+01 -.108E+00 0.103E+02   -.221E-02 -.125E-02 0.581E+00   -.161E-05 0.851E-05 0.185E-02
   0.195E+02 0.248E+00 -.186E+04   -.189E+02 -.251E+00 0.186E+04   -.755E+00 0.614E-02 0.849E+00   -.167E-04 -.478E-05 0.281E-02
   0.144E+02 0.193E+00 -.191E+04   -.137E+02 -.201E+00 0.191E+04   -.726E+00 0.130E-01 -.122E+01   0.852E-04 0.285E-05 0.274E-02
   -.142E+02 -.240E+02 -.366E+04   0.143E+02 0.245E+02 0.367E+04   0.847E-01 0.674E-01 -.167E+01   -.108E-03 0.157E-03 0.201E-02
   0.745E+00 0.202E+00 -.374E+04   -.931E+00 -.188E+00 0.374E+04   0.503E-01 -.105E-01 0.293E+01   -.904E-05 -.993E-05 0.167E-02
   -.264E-01 0.435E-01 0.370E+04   0.333E-01 -.429E-01 -.370E+04   -.831E-02 -.804E-03 0.124E+01   0.125E-04 -.414E-04 0.288E-02
   0.451E-02 0.685E-01 0.391E+04   -.106E-01 -.675E-01 -.391E+04   0.464E-02 -.516E-03 -.583E+01   -.740E-05 -.402E-04 0.283E-02
   0.285E+00 0.404E+00 0.188E+04   -.282E+00 -.387E+00 -.188E+04   -.223E-02 -.525E-02 -.222E+00   0.116E-04 -.607E-05 0.159E-02
   -.146E+00 0.273E+00 0.187E+04   0.148E+00 -.272E+00 -.187E+04   0.640E-02 -.905E-03 0.325E+00   -.174E-04 0.289E-05 0.155E-02
   -.243E+01 0.109E+01 -.308E+02   0.248E+01 -.110E+01 0.318E+02   -.264E-01 0.221E-02 -.271E+00   -.622E-05 0.961E-05 0.179E-02
   0.408E+01 0.370E+01 -.114E+02   -.411E+01 -.380E+01 0.103E+02   0.329E-02 0.462E-01 0.484E+00   -.573E-05 0.111E-04 0.186E-02
   0.245E+02 -.902E+01 -.187E+04   -.238E+02 0.924E+01 0.187E+04   -.762E+00 0.632E-01 0.661E+00   -.451E-04 -.109E-04 0.286E-02
   0.133E+02 -.110E+00 -.192E+04   -.128E+02 0.127E+00 0.192E+04   -.622E+00 0.123E-01 -.113E+01   0.670E-04 0.493E-05 0.285E-02
   0.436E+00 0.170E+01 -.365E+04   -.922E+00 -.159E+01 0.366E+04   0.274E+00 -.214E-01 -.172E+01   0.978E-04 0.260E-05 0.176E-02
   0.154E+02 -.851E+01 -.373E+04   -.150E+02 0.890E+01 0.373E+04   -.363E+00 0.514E-02 0.315E+01   -.336E-04 -.549E-04 0.183E-02
   -.688E-02 0.292E-01 0.370E+04   0.143E-01 -.286E-01 -.370E+04   -.851E-02 -.851E-03 0.124E+01   -.352E-05 0.258E-04 0.291E-02
   0.669E-02 -.118E-01 0.391E+04   -.129E-01 0.115E-01 -.391E+04   0.469E-02 -.225E-03 -.583E+01   0.619E-05 0.133E-04 0.286E-02
   0.262E+00 0.293E+00 0.188E+04   -.259E+00 -.291E+00 -.188E+04   -.202E-02 -.171E-02 -.223E+00   0.150E-04 0.804E-05 0.160E-02
   0.120E-01 -.562E-01 0.187E+04   -.967E-02 0.561E-01 -.187E+04   0.615E-02 -.568E-03 0.324E+00   -.243E-04 0.744E-05 0.152E-02
[...]
      9.74780      1.46959     17.84824         0.099810      0.026717      0.302157
      0.00264      2.95329     17.48144        -0.084462      0.035127      0.197234
      9.75312      4.43645      4.61933        -0.000953      0.000467     -3.759117
      0.00014      5.91525      4.61933         0.001933      0.000990      3.064303
      0.00014      4.43645      7.87032         0.010060      0.000765      0.490808
      9.75312      5.91525      7.87032         0.001794      0.001092     -0.787623
      9.75312      4.43645     11.12132        -0.020131      0.030902      0.667486
      0.00014      5.91525     11.12132        -0.007317      0.001689     -0.729024
      0.09097      4.43624     14.29967        -0.154030      0.004330      0.142864
      9.83583      5.91535     14.49346        -0.020012      0.006986      0.036675
      9.77188      4.41543     17.81655         0.230007      0.564479      0.733784
      0.01083      5.91673     17.47964        -0.133365      0.005128      0.222840
      3.25113      7.39405      4.61933         0.001230      0.000886     -3.756342
      6.50213      8.87284      4.61933         0.001149      0.001545      3.069105
      6.50213      7.39405      7.87032         0.003497      0.013117      0.503891
      3.25113      8.87284      7.87032         0.010589      0.001484     -0.777607
      3.25113      7.39405     11.12132         0.030284     -0.009822      0.705497
      6.50213      8.87284     11.12132        -0.024046     -0.043538     -0.638050
      6.59527      7.36654     14.34066        -0.053204      0.287060     -0.140727
      3.33106      8.87275     14.49619        -0.145733      0.030441     -0.071286
      3.25551      7.39786     17.84504        -0.209087      0.089566      0.290658
      6.51199      8.87436     17.44202         0.027180      0.396843      0.084669
      3.25113     10.35164      4.61933         0.001525      0.000955     -3.756570
      6.50213      0.00006      4.61933         0.001123      0.000651      3.069440
      6.50213     10.35164      7.87032         0.003132      0.001535      0.508449
      3.25113      0.00006      7.87032         0.011092      0.000514     -0.776583
      3.25113     10.35164     11.12132         0.021925      0.017833      0.709168
      6.50213      0.00006     11.12132        -0.030475      0.000172     -0.807451
      6.59424     10.34013     14.26908        -0.058038      0.058794      0.112023
      3.32921     11.83032     14.49975        -0.130939     -0.000813     -0.037222
      3.26465     10.35357     17.85093        -0.061847      0.006851      0.251450
      6.49545     11.83013     17.44955         0.085400     -0.055340      0.069823
      3.25113      1.47886      4.61933         0.001468     -0.000058     -3.756379
      6.50213      2.95765      4.61933         0.001119      0.000107      3.068923
      6.50213      1.47886      7.87032         0.002772     -0.002910      0.506823
      3.25113      2.95765      7.87032         0.010295     -0.000434     -0.775743
      3.25113      1.47886     11.12132         0.021200     -0.004787      0.717835
      6.50213      2.95765     11.12132        -0.027098      0.047365     -0.627470
      6.59248      1.49256     14.27239        -0.051822     -0.068381      0.095693
      3.32993      2.95930     14.49938        -0.152609     -0.034827     -0.070872
      3.26191      1.47934     17.84989        -0.071641     -0.068940      0.213485
      6.51075      2.95460     17.45337         0.058178     -0.453198     -0.082809
      3.25113      4.43645      4.61933         0.001211      0.000042     -3.756105
      6.50213      5.91525      4.61933         0.001177      0.001251      3.068616
      6.50213      4.43645      7.87032         0.003144     -0.008767      0.502461
      3.25113      5.91525      7.87032         0.009768      0.000516     -0.776210
      3.25113      4.43645     11.12132         0.030393     -0.000144      0.713220
      6.50213      5.91525     11.12132        -0.022029     -0.001060     -0.707538
      6.59490      4.46443     14.34638        -0.057881     -0.270638     -0.189413
      3.32536      5.91603     14.50052        -0.157292      0.003605     -0.079925
      3.25538      4.43675     17.84914        -0.307839      0.013148      0.219877
      6.51197      5.90899     17.60077         0.275014      0.190988     -1.944810
      9.75312      8.87284      3.34494         0.003156      0.004215      2.362984
      9.75312      8.87284      5.89371         0.003391     -0.003410      1.675184
      1.27452      7.39405      4.61933        -2.064060      0.000830     -0.827368
     11.72973      7.39405      4.61933         2.068701      0.000715     -0.825347
      0.00014      8.87284      6.59594         0.001594      0.005342     -1.323670
      0.00014      8.87284      9.14470         0.003126     -0.002611     -0.237426
     11.02751      7.39405      7.87032         0.377111      0.000508      0.069044
      1.97675      7.39405      7.87032        -0.368828      0.000737      0.068704
      9.75312      8.87284      9.84693         0.000894      0.003390     -0.009323
      9.75312      8.87284     12.39570         0.019810      0.000046     -0.100886
      1.27452      7.39405     11.12132        -0.569334      0.002400      0.077059
     11.72973      7.39405     11.12132         0.572365      0.001310      0.088926
      0.00814      8.87464     13.11716         0.017935     -0.002677      0.085487
     13.00256      8.87106     15.67575         0.022596     -0.005297     -0.120292
     11.06531      7.39749     14.37708        -0.034393     -0.027177      0.003038
      1.95685      7.39646     14.39138         0.128515     -0.020374      0.036821
      9.80437      8.88350     16.35819        -0.022136     -0.002049     -0.057820
      9.73355      8.85996     18.92935         0.030007      0.235284     -0.467086
      1.23010      7.39555     17.80601        -0.065183     -0.007281     -0.103511
     11.78502      7.38559     17.83335         0.277272      0.072139     -0.095384
      9.75312      0.00006      3.34494         0.003375      0.004640      2.363066
      9.75312      0.00006      5.89371         0.003630     -0.003007      1.675219
      1.27452     10.35164      4.61933        -2.064126      0.000854     -0.827815
     11.72973     10.35164      4.61933         2.068959      0.000798     -0.826002
      0.00014      0.00006      6.59594         0.001581      0.005471     -1.323602
      0.00014      0.00006      9.14470         0.003024     -0.002530     -0.236705
     11.02751     10.35164      7.87032         0.377090      0.000857      0.069284
      1.97675     10.35164      7.87032        -0.368872      0.000432      0.069006
      9.75312      0.00006      9.84693         0.000547      0.007974     -0.007973
      9.75312      0.00006     12.39570         0.009940      0.002317     -0.112580
      1.27452     10.35164     11.12132        -0.568524      0.000307      0.075043
     11.72973     10.35164     11.12132         0.571956      0.000355      0.087125
      0.00901      0.00038     13.11759         0.013110      0.004222      0.088274
      0.00336      0.00025     15.67491         0.033109      0.000134     -0.100572
     11.06248     10.35775     14.38672        -0.032125     -0.047958      0.016265
      1.95676     10.35030     14.39417         0.118214      0.001084      0.043512
      9.76490      0.00056     16.36743        -0.006939      0.004513      0.035372
      9.75446     11.82780     18.93884        -0.005911      0.023332     -0.378051
      1.22749     10.34631     17.79870        -0.110575      0.009443     -0.074494
     11.78513     10.35190     17.81729         0.185059      0.011163     -0.093451
      9.75312      2.95765      3.34494         0.003196      0.004696      2.362919
      9.75312      2.95765      5.89371         0.003429     -0.003009      1.675783
      1.27452      1.47886      4.61933        -2.064162      0.001022     -0.827226
     11.72973      1.47886      4.61933         2.068908      0.000963     -0.826782
      0.00014      2.95765      6.59594         0.001570      0.005500     -1.323579
      0.00014      2.95765      9.14470         0.002824     -0.002665     -0.236640
     11.02751      1.47886      7.87032         0.376963      0.001194      0.069660
      1.97675      1.47886      7.87032        -0.369068      0.000881      0.068720
      9.75312      2.95765      9.84693         0.000941      0.006546     -0.005099
      9.75312      2.95765     12.39570         0.016972      0.000252     -0.085320
      1.27452      1.47886     11.12132        -0.571261      0.001525      0.074065
     11.72973      1.47886     11.12132         0.569056      0.002675      0.088364
      0.00787      2.95628     13.11737         0.019746      0.011471      0.085430
      0.00074      2.95992     15.67592         0.033557      0.006203     -0.113817
     11.06164      1.47570     14.38950        -0.037825      0.031227      0.020281
      1.95672      1.47924     14.39133         0.119055      0.008696      0.039370
      9.79362      2.95524     16.35929        -0.038847     -0.032037     -0.042189
      9.74401      2.96512     18.92754        -0.014067     -0.215021     -0.410649
      1.22577      1.48272     17.80255        -0.100019     -0.006227     -0.096615
     11.78442      1.47862     17.81116         0.181887     -0.009072     -0.114044
      9.75312      5.91525      3.34494         0.002921      0.004376      2.362945
      9.75312      5.91525      5.89371         0.003291     -0.003296      1.675353
      1.27452      4.43645      4.61933        -2.064104      0.000971     -0.827465
     11.72973      4.43645      4.61933         2.068676      0.000845     -0.825583
      0.00014      5.91525      6.59594         0.001548      0.005348     -1.323674
      0.00014      5.91525      9.14470         0.003069     -0.002771     -0.237198
     11.02751      4.43645      7.87032         0.376929      0.000580      0.069048
      1.97675      4.43645      7.87032        -0.369003      0.000957      0.068694
      9.75312      5.91525      9.84693         0.003495      0.002363     -0.009332
      9.75312      5.91525     12.39570         0.006760     -0.003934     -0.115560
      1.27452      4.43645     11.12132        -0.572188     -0.001021      0.076860
     11.72973      4.43645     11.12132         0.569871     -0.000966      0.089943
      0.00940      5.91554     13.11676         0.011224      0.001508      0.087159
      0.00136      5.91572     15.67396         0.033446     -0.000085     -0.118714
     11.06510      4.43311     14.37793        -0.033209      0.026818      0.002075
      1.95699      4.43618     14.39073         0.128814      0.006162      0.035954
      9.82395      5.91602     16.35391        -0.051906     -0.015448     -0.154736
      9.61796      5.91359     18.93091         0.304851      0.014839     -1.091706
      1.22903      4.43755     17.80584        -0.054842     -0.007060     -0.099667
     11.78549      4.44502     17.83260         0.274604     -0.084533     -0.090621
      3.25113      8.87284      3.34494         0.002961      0.004145      2.361554
      3.25113      8.87284      5.89371         0.002272     -0.003425      1.672185
      7.77651      7.39405      4.61933        -2.062141      0.000257     -0.827016
      5.22774      7.39405      4.61933         2.068321      0.000397     -0.826884
      6.50213      8.87284      6.59594         0.002361      0.003470     -1.333085
      6.50213      8.87284      9.14470         0.005402     -0.006599     -0.277226
      4.52552      7.39405      7.87032         0.374284      0.000113      0.067028
      8.47874      7.39405      7.87032        -0.358941     -0.000144      0.069516
      3.25113      8.87284      9.84693        -0.004876      0.003660     -0.021160
      3.25113      8.87284     12.39570         0.009053     -0.006835     -0.086349
      7.77651      7.39405     11.12132        -0.529917     -0.030353      0.056276
      5.22774      7.39405     11.12132         0.563520     -0.031717      0.073397
      6.51275      8.85858     13.11140        -0.020950     -0.015754      0.158790
      6.47688      8.89215     15.64296         0.061337     -0.114018     -0.176110
      4.55248      7.39310     14.38997         0.052882     -0.014170      0.045305
      8.46949      7.39771     14.40720        -0.029717     -0.020320      0.055615
      3.26804      8.86970     16.36304         0.044836      0.006958      0.096738
      3.26315      8.87097     18.93750         0.005838     -0.013172     -0.429534
      7.76636      7.45127     17.64454        -0.664308     -0.599309      0.457936
      5.30014      7.40163     17.81969         0.363633     -0.360182      0.105029
      3.25113      0.00006      3.34494         0.002849      0.004586      2.361807
      3.25113      0.00006      5.89371         0.002198     -0.003141      1.671757
      7.77651     10.35164      4.61933        -2.062046      0.000716     -0.828792
      5.22774     10.35164      4.61933         2.068313      0.000761     -0.828457
      6.50213      0.00006      6.59594         0.002523      0.005858     -1.333792
      6.50213      0.00006      9.14470         0.004982     -0.001705     -0.277836
      4.52552     10.35164      7.87032         0.372416      0.000433      0.066707
      8.47874     10.35164      7.87032        -0.357070      0.000842      0.069293
      3.25113      0.00006      9.84693        -0.004189      0.003007     -0.023600
      3.25113      0.00006     12.39570        -0.002036     -0.001438     -0.109694
      7.77651     10.35164     11.12132        -0.529102      0.001997      0.075001
      5.22774     10.35164     11.12132         0.558886     -0.003119      0.082237
      6.50748      0.00188     13.10295         0.009157      0.000662      0.062158
      6.50620     11.82989     15.65096         0.002410      0.005524     -0.211739
      4.55343     10.35471     14.38126         0.005550     -0.042555      0.019325
      8.46543     10.34987     14.38856         0.025589      0.005720      0.015368
      3.25631     11.83009     16.36226         0.025808      0.012518      0.088575
      3.24776      0.00059     18.93630         0.020741      0.020495     -0.371761
      7.73140     10.35057     17.78564        -0.269342     -0.040163     -0.071904
      5.28097     10.36338     17.79591         0.195588     -0.061029     -0.093382
      3.25113      2.95765      3.34494         0.002879      0.004829      2.361403
      3.25113      2.95765      5.89371         0.002262     -0.002899      1.671769
      7.77651      1.47886      4.61933        -2.062020      0.001350     -0.828600
      5.22774      1.47886      4.61933         2.068406      0.001381     -0.828510
      6.50213      2.95765      6.59594         0.002475      0.007249     -1.332132
      6.50213      2.95765      9.14470         0.005430      0.001336     -0.268185
      4.52552      1.47886      7.87032         0.372951      0.001014      0.066873
      8.47874      1.47886      7.87032        -0.357326      0.001211      0.069589
      3.25113      2.95765      9.84693        -0.005101      0.006183     -0.024850
      3.25113      2.95765     12.39570         0.011288      0.003368     -0.084760
      7.77651      1.47886     11.12132        -0.528954      0.008101      0.076612
      5.22774      1.47886     11.12132         0.562529      0.010620      0.081697
      6.51177      2.97390     13.11487        -0.020303      0.022047      0.168483
      6.49076      2.93909     15.65190         0.071849      0.103212     -0.066832
      4.55469      1.47789     14.38577         0.002546      0.027787      0.022037
      8.46589      1.48105     14.38780         0.023157     -0.003972      0.014525
      3.25517      2.95749     16.36204         0.053740      0.028119      0.112013
      3.26019      2.96057     18.93495         0.049608      0.026987     -0.354104
      7.73202      1.47645     17.78701        -0.276334      0.085286     -0.034259
      5.27985      1.47110     17.79184         0.207349      0.083700     -0.026537
      3.25113      5.91525      3.34494         0.002969      0.004486      2.361129
      3.25113      5.91525      5.89371         0.002303     -0.003150      1.671936
      7.77651      4.43645      4.61933        -2.062007      0.001236     -0.827790
      5.22774      4.43645      4.61933         2.068608      0.001180     -0.829287
      6.50213      5.91525      6.59594         0.002535      0.005003     -1.330476
      6.50213      5.91525      9.14470         0.005330     -0.003445     -0.232090
      4.52552      4.43645      7.87032         0.374875      0.001421      0.067289
      8.47874      4.43645      7.87032        -0.359157      0.001077      0.069346
      3.25113      5.91525      9.84693        -0.006441      0.006864     -0.023647
      3.25113      5.91525     12.39570         0.010643     -0.003619     -0.079752
      7.77651      4.43645     11.12132        -0.529188      0.025254      0.055262
      5.22774      4.43645     11.12132         0.566375      0.028940      0.071224
      6.51393      5.91403     13.12315         0.003678      0.006802      0.224183
      6.50143      5.91940     15.68974        -0.066609     -0.031558      0.799549
      4.55324      4.43713     14.39628         0.053276      0.019693      0.069209
      8.46916      4.43633     14.40655        -0.034726      0.020555      0.056690
      3.25396      5.91930     16.36339         0.058462     -0.027924      0.111184
      3.27802      5.91816     18.93489         0.027663     -0.081572     -0.444981
      7.75947      4.39476     17.67510        -0.682031      0.383948      0.327256
      5.28662      4.42576     17.77770         0.416822      0.372061      0.322199
 -----------------------------------------------------------------------------------
    total drift:                               -0.629267     -0.279950      0.569739


--------------------------------------------------------------------------------------------------------



  FREE ENERGIE OF THE ION-ELECTRON SYSTEM (eV)
  ---------------------------------------------------
  free  energy   TOTEN  =     -3028.81500906 eV

  energy  without entropy=    -3028.81500906  energy(sigma->0) =    -3028.81500906
 


--------------------------------------------------------------------------------------------------------


    POTLOK:  cpu time     70.9001: real time     71.0755


--------------------------------------------------------------------------------------------------------


     LOOP+:  cpu time   1393.1357: real time   1396.5368
    4ORBIT:  cpu time      0.0000: real time      0.0000

 total amount of memory used by VASP MPI-rank0  5809055. kBytes
=======================================================================

   base      :      30000. kBytes
   nonlr-proj:      78574. kBytes
   fftplans  :     145087. kBytes
   grid      :     407586. kBytes
   one-center:       3732. kBytes
   wavefun   :    5144076. kBytes
 
  
  
 General timing and accounting informations for this job:
 ========================================================
  
                  Total CPU time used (sec):     1450.531
                            User time (sec):     1426.558
                          System time (sec):       23.973
                         Elapsed time (sec):     1455.944
  
                   Maximum memory used (kb):     9021284.
                   Average memory used (kb):          N/A
  
                          Minor page faults:       549586
                          Major page faults:            0
                 Voluntary context switches:        27185
