 vasp.6.3.0 20Jan22 (build Apr  1 2022 16:44:48) gamma-only                      
 executed on        HPECrayEX_GCC date 2023.01.23  22:37:56
 running  512 mpi-ranks, with    1 threads/rank
 distrk:  each k-point on  512 cores,    1 groups
 distr:  one band on NCORE=   8 cores,   64 groups


--------------------------------------------------------------------------------------------------------


 INCAR:
   SYSTEM = MgO-rocksalt
   ISMEAR = 0
   SIGMA = 0.05
   EDIFF = 1E-8
   ALGO = ALL
   ISTART = 0
   IBRION = 5
   POTIM = 0.01
   NFREE = 2
   ISYM = 0
   DIPOL = 0.5 0.5 0.5
   IDIPOL = 4
   LDIPOL = .TRUE.
   GGA = MK
   LUSE_VDW = .TRUE.
   PARAM1 = 0.1234
   PARAM2 = 0.711357
   ZAB_VDW = -1.8867
   AGGAC = 0.0
   ENCUT = 600
   PREC = Accurate
   LASPH = .TRUE.
   LREAL = .FALSE.
   ISPIN = 1
   NELM = 200
   NELMIN = 8
   NCORE = 8
   KPAR = 1
   LWAVE = .FALSE.
   LCHARG = .FALSE.

 POTCAR:    PAW_PBE C 08Apr2002                   
 POTCAR:    PAW_PBE O 08Apr2002                   
 -----------------------------------------------------------------------------
|                                                                             |
|               ----> ADVICE to this user running VASP <----                  |
|                                                                             |
|     You have switched on vdW-DFT.                                           |
|     This routine was written and supplied by Jiri Klimes. We recommend      |
|     that you carefully read and cite the following publications:            |
|       J. Klimes, D.R. Bowler, A. Michelides                                 |
|          J. Phys.: Cond Matt. 22 022201 (2010)                              |
|       J. Klimes, D.R. Bowler, A. Michelides                                 |
|          Phys. Rev. B. 83, 195131 (2011)                                    |
|     and references therein.                                                 |
|                                                                             |
 -----------------------------------------------------------------------------

 POTCAR:    PAW_PBE C 08Apr2002                   
   SHA256 =  253f7b50bb8d59471dbedb8285d89021f4a42ed1a2c5d38a03a736e69125dd95 C/POTCAR              
   COPYR  = (c) Copyright 08Apr2002 Georg Kresse                                                    
   COPYR  = This file is part of the software VASP. Any use, copying, and all other rights are regul
   COPYR  = If you do not have a valid VASP license, you may not use, copy or distribute this file. 
   VRHFIN =C: s2p2                                                                                  
   LEXCH  = PE                                                                                      
   EATOM  =   147.1560 eV,   10.8157 Ry                                                             
                                                                                                    
   TITEL  = PAW_PBE C 08Apr2002                                                                     
   LULTRA =        F    use ultrasoft PP ?                                                          
   IUNSCR =        1    unscreen: 0-lin 1-nonlin 2-no                                               
   RPACOR =    1.200    partial core radius                                                         
   POMASS =   12.011; ZVAL   =    4.000    mass and valenz                                          
   RCORE  =    1.500    outmost cutoff radius                                                       
   RWIGS  =    1.630; RWIGS  =    0.863    wigner-seitz radius (au A)                               
   ENMAX  =  400.000; ENMIN  =  300.000 eV                                                          
   ICORE  =        2    local potential                                                             
   LCOR   =        T    correct aug charges                                                         
   LPAW   =        T    paw PP                                                                      
   EAUG   =  644.873                                                                                
   DEXC   =    0.000                                                                                
   RMAX   =    1.529    core radius for proj-oper                                                   
   RAUG   =    1.300    factor for augmentation sphere                                              
   RDEP   =    1.501    radius for radial grids                                                     
   RDEPT  =    1.300    core radius for aug-charge                                                  
                                                                                                    
   Atomic configuration                                                                             
    4 entries                                                                                       
     n  l   j            E        occ.                                                              
     1  0  0.50      -273.3789   2.0000                                                             
     2  0  0.50       -13.7508   2.0000                                                             
     2  1  0.50        -5.2854   2.0000                                                             
     3  2  1.50        -5.4423   0.0000                                                             
   Description                                                                                      
     l       E           TYP  RCUT    TYP  RCUT                                                     
     0    -13.7508458     23  1.200                                                                 
     0     -8.2022199     23  1.200                                                                 
     1     -5.2854383     23  1.500                                                                 
     1     34.0145650     23  1.500                                                                 
     2     -5.4423304      7  1.500                                                                 
  local pseudopotential read in
  partial core-charges read in
  partial kinetic energy density read in
  atomic valenz-charges read in
  non local Contribution for L=           0  read in
    real space projection operators read in
  non local Contribution for L=           0  read in
    real space projection operators read in
  non local Contribution for L=           1  read in
    real space projection operators read in
  non local Contribution for L=           1  read in
    real space projection operators read in
    PAW grid and wavefunctions read in

   number of l-projection  operators is LMAX  =           4
   number of lm-projection operators is LMMAX =           8

 POTCAR:    PAW_PBE O 08Apr2002                   
   SHA256 =  818f92134a0a090dccd8ba1447fa70422a3b330e708bb4f08108d8ae51209ddf O/POTCAR              
   COPYR  = (c) Copyright 08Apr2002 Georg Kresse                                                    
   COPYR  = This file is part of the software VASP. Any use, copying, and all other rights are regul
   COPYR  = If you do not have a valid VASP license, you may not use, copy or distribute this file. 
   VRHFIN =O: s2p4                                                                                  
   LEXCH  = PE                                                                                      
   EATOM  =   432.3788 eV,   31.7789 Ry                                                             
                                                                                                    
   TITEL  = PAW_PBE O 08Apr2002                                                                     
   LULTRA =        F    use ultrasoft PP ?                                                          
   IUNSCR =        1    unscreen: 0-lin 1-nonlin 2-no                                               
   RPACOR =    1.200    partial core radius                                                         
   POMASS =   16.000; ZVAL   =    6.000    mass and valenz                                          
   RCORE  =    1.520    outmost cutoff radius                                                       
   RWIGS  =    1.550; RWIGS  =    0.820    wigner-seitz radius (au A)                               
   ENMAX  =  400.000; ENMIN  =  300.000 eV                                                          
   ICORE  =        2    local potential                                                             
   LCOR   =        T    correct aug charges                                                         
   LPAW   =        T    paw PP                                                                      
   EAUG   =  605.392                                                                                
   DEXC   =    0.000                                                                                
   RMAX   =    1.553    core radius for proj-oper                                                   
   RAUG   =    1.300    factor for augmentation sphere                                              
   RDEP   =    1.550    radius for radial grids                                                     
   RDEPT  =    1.329    core radius for aug-charge                                                  
                                                                                                    
   Atomic configuration                                                                             
    4 entries                                                                                       
     n  l   j            E        occ.                                                              
     1  0  0.50      -514.6923   2.0000                                                             
     2  0  0.50       -23.9615   2.0000                                                             
     2  1  0.50        -9.0305   4.0000                                                             
     3  2  1.50        -9.5241   0.0000                                                             
   Description                                                                                      
     l       E           TYP  RCUT    TYP  RCUT                                                     
     0    -23.9615318     23  1.200                                                                 
     0     -9.5240782     23  1.200                                                                 
     1     -9.0304911     23  1.520                                                                 
     1      8.1634956     23  1.520                                                                 
     2     -9.5240782      7  1.500                                                                 
  local pseudopotential read in
  partial core-charges read in
  partial kinetic energy density read in
  kinetic energy density of atom read in
  atomic valenz-charges read in
  non local Contribution for L=           0  read in
    real space projection operators read in
  non local Contribution for L=           0  read in
    real space projection operators read in
  non local Contribution for L=           1  read in
    real space projection operators read in
  non local Contribution for L=           1  read in
    real space projection operators read in
    PAW grid and wavefunctions read in

   number of l-projection  operators is LMAX  =           4
   number of lm-projection operators is LMMAX =           8

 -----------------------------------------------------------------------------
|                                                                             |
|               ----> ADVICE to this user running VASP <----                  |
|                                                                             |
|     You enforced a specific xc type in the INCAR file but a different       |
|     type was found in the POTCAR file.                                      |
|     I HOPE YOU KNOW WHAT YOU ARE DOING!                                     |
|                                                                             |
 -----------------------------------------------------------------------------

  PAW_PBE C 08Apr2002                   :
 energy of atom  1       EATOM= -147.1560
 kinetic energy error for atom=    0.0057 (will be added to EATOM!!)
  PAW_PBE O 08Apr2002                   :
 energy of atom  2       EATOM= -432.3788
 kinetic energy error for atom=    0.0168 (will be added to EATOM!!)


 POSCAR:  C  O
  positions in direct lattice
  No initial velocities read in
 exchange correlation table for  LEXCH =       43
   RHO(1)=    0.500       N(1)  =     2000
   RHO(2)=  100.500       N(2)  =     4000



--------------------------------------------------------------------------------------------------------


 ion  position               nearest neighbor table
   1  0.500  0.500  0.500-   2 1.17   3 1.17
   2  0.500  0.500  0.449-   1 1.17
   3  0.500  0.500  0.551-   1 1.17


IMPORTANT INFORMATION: All symmetrisations will be switched off!
NOSYMM: (Re-)initialisation of all symmetry stuff for point group C_1.


----------------------------------------------------------------------------------------

                                     Primitive cell                                     

  volume of cell :    9200.0000

  direct lattice vectors                    reciprocal lattice vectors
    20.000000000  0.000000000  0.000000000     0.050000000  0.000000000  0.000000000
     0.000000000 20.000000000  0.000000000     0.000000000  0.050000000  0.000000000
     0.000000000  0.000000000 23.000000000     0.000000000  0.000000000  0.043478261

  length of vectors
    20.000000000 20.000000000 23.000000000     0.050000000  0.050000000  0.043478261

  position of ions in fractional coordinates (direct lattice)
     0.500000000  0.500000001  0.499999836
     0.500000014  0.499999985  0.448916119
     0.499999986  0.500000013  0.551084045

  ion indices of the primitive-cell ions
   primitive index   ion index
                 1           1
                 2           2
                 3           3

----------------------------------------------------------------------------------------



 KPOINTS: pymatgen v2020.8.13 with grid density = 

Automatic generation of k-mesh.
 Grid dimensions read from file:
 generate k-points for:    1    1    1

 Generating k-lattice:

  Cartesian coordinates                     Fractional coordinates (reciprocal lattice)
     0.050000000  0.000000000  0.000000000     1.000000000  0.000000000  0.000000000
     0.000000000  0.050000000  0.000000000     0.000000000  1.000000000  0.000000000
     0.000000000  0.000000000  0.043478261     0.000000000  0.000000000  1.000000000

  Length of vectors
     0.050000000  0.050000000  0.043478261

  Shift w.r.t. Gamma in fractional coordinates (k-lattice)
     0.000000000  0.000000000  0.000000000

 
 Subroutine IBZKPT returns following result:
 ===========================================
 
 Found      1 irreducible k-points:
 
 Following reciprocal coordinates:
            Coordinates               Weight
  0.000000  0.000000  0.000000      1.000000
 
 Following cartesian coordinates:
            Coordinates               Weight
  0.000000  0.000000  0.000000      1.000000
 
 
 Subroutine IBZKPT_HF returns following result:
 ==============================================
 
 Found      1 k-points in 1st BZ
 the following      1 k-points will be used (e.g. in the exchange kernel)
 Following reciprocal coordinates:   # in IRBZ
  0.000000  0.000000  0.000000    1.00000000   1 t-inv F


--------------------------------------------------------------------------------------------------------




 Dimension of arrays:
   k-points           NKPTS =      1   k-points in BZ     NKDIM =      1   number of bands    NBANDS=     64
   number of dos      NEDOS =    301   number of ions     NIONS =      3
   non local maximal  LDIM  =      4   non local SUM 2l+1 LMDIM =      8
   total plane-waves  NPLWV = ******
   max r-space proj   IRMAX =      1   max aug-charges    IRDMAX=   7130
   dimension x,y,z NGX =   160 NGY =  160 NGZ =  192
   dimension x,y,z NGXF=   320 NGYF=  320 NGZF=  384
   support grid    NGXF=   320 NGYF=  320 NGZF=  384
   ions per type =               1   2
   NGX,Y,Z   is equivalent  to a cutoff of  13.30, 13.30, 13.88 a.u.
   NGXF,Y,Z  is equivalent  to a cutoff of  26.60, 26.60, 27.76 a.u.

 SYSTEM =  MgO-rocksalt                            
 POSCAR =   C  O                                   

--------------------------------------------------------------------------------------------------------


  energy-cutoff  :      600.00
  volume of cell :     9200.00
      direct lattice vectors                 reciprocal lattice vectors
    20.000000000  0.000000000  0.000000000     0.050000000  0.000000000  0.000000000
     0.000000000 20.000000000  0.000000000     0.000000000  0.050000000  0.000000000
     0.000000000  0.000000000 23.000000000     0.000000000  0.000000000  0.043478261

  length of vectors
    20.000000000 20.000000000 23.000000000     0.050000000  0.050000000  0.043478261



 k-points in units of 2pi/SCALE and weight: pymatgen v2020.8.13 with grid density = 
   0.00000000  0.00000000  0.00000000       1.000

 k-points in reciprocal lattice and weights: pymatgen v2020.8.13 with grid density = 
   0.00000000  0.00000000  0.00000000       1.000

 position of ions in fractional coordinates (direct lattice) 
   0.50000000  0.50000000  0.49999984
   0.50000001  0.49999999  0.44891612
   0.49999999  0.50000001  0.55108405

 position of ions in cartesian coordinates  (Angst):
  10.00000000 10.00000003 11.49999623
  10.00000028  9.99999971 10.32507073
   9.99999972 10.00000026 12.67493305



--------------------------------------------------------------------------------------------------------


--------------------------------------- Iteration      FINAL  ---------------------------------------


--------------------OUTCAR has been truncated-------------------------


--------------------OUTCAR has been truncated-------------------------


--------------------OUTCAR has been truncated-------------------------


--------------------OUTCAR has been truncated-------------------------


--------------------OUTCAR has been truncated-------------------------


--------------------OUTCAR has been truncated-------------------------


--------------------OUTCAR has been truncated-------------------------


--------------------OUTCAR has been truncated-------------------------


--------------------OUTCAR has been truncated-------------------------


--------------------OUTCAR has been truncated-------------------------


  FORCE on cell =-STRESS in cart. coord.  units (eV):
  Direction    XX          YY          ZZ          XY          YZ          ZX
  --------------------------------------------------------------------------------------
  Alpha Z     0.11627     0.11627     0.11627
  Ewald     -71.22742   -71.22742   707.42531    -0.00000     0.00019    -0.00019
  Hartree   351.23911   351.23911   707.34480    -0.00000     0.00009    -0.00009
  E(xc)     -75.17429   -75.17429   -73.09823     0.00000     0.00000    -0.00000
  Local    -512.91792  -512.91792 -1574.82985    -0.00000    -0.00027     0.00027
  n-local   -49.41548   -49.41548   -55.47711    -0.00000    -0.00000     0.00000
  augment    13.56867    13.56867    10.73837    -0.00000    -0.00000     0.00000
  Kinetic   343.71275   343.71275   278.89363     0.00000    -0.00002     0.00002
  Fock        0.00000     0.00000     0.00000     0.00000     0.00000     0.00000
  -------------------------------------------------------------------------------------
  Total      -0.09831    -0.09831     1.11319    -0.00000     0.00000    -0.00000
  in kB      -0.01712    -0.01712     0.19386    -0.00000     0.00000    -0.00000
  external pressure =        0.05 kB  Pullay stress =        0.00 kB


 VOLUME and BASIS-vectors are now :
 -----------------------------------------------------------------------------
  energy-cutoff  :      600.00
  volume of cell :     9200.00
      direct lattice vectors                 reciprocal lattice vectors
    20.000000000  0.000000000  0.000000000     0.050000000  0.000000000  0.000000000
     0.000000000 20.000000000  0.000000000     0.000000000  0.050000000  0.000000000
     0.000000000  0.000000000 23.000000000     0.000000000  0.000000000  0.043478261

  length of vectors
    20.000000000 20.000000000 23.000000000     0.050000000  0.050000000  0.043478261


 FORCES acting on ions:
    Electron-Ion                     Ewald-Force                    Non-Local-Force
 -----------------------------------------------------------------------------------------------
   -.357E-06 -.172E-04 0.334E+01   0.585E-06 0.171E-04 -.431E+01   0.503E-08 -.559E-06 0.434E-01
   -.672E-04 0.729E-04 0.280E+03   0.827E-04 -.907E-04 -.345E+03   -.155E-04 0.181E-04 0.644E+02
   0.675E-04 -.606E-04 -.283E+03   -.832E-04 0.736E-04 0.349E+03   0.155E-04 -.125E-04 -.650E+02
 -----------------------------------------------------------------------------------------------
   -.248E-07 -.492E-05 0.615E+00   0.171E-16 0.861E-17 0.000E+00   0.248E-07 0.495E-05 -.615E+00


 POSITION                                       TOTAL-FORCE (eV/Angst)
 -----------------------------------------------------------------------------------
     10.00000     10.00000     11.50000         0.000000     -0.000001     -0.922170
     10.00000     10.00000     10.32507         0.000000      0.000000     -0.068421
     10.00000     10.00000     12.66493        -0.000000      0.000000      0.990591
 -----------------------------------------------------------------------------------
    total drift:                               -0.000000      0.000000      0.000087


--------------------------------------------------------------------------------------------------------



  FREE ENERGIE OF THE ION-ELECTRON SYSTEM (eV)
  ---------------------------------------------------
  free  energy   TOTEN  =       -18.88815983 eV

  energy  without entropy=      -18.88815983  energy(sigma->0) =      -18.88815983

 d Force =-0.7339728E-03[-0.198E-01, 0.183E-01]  d Energy =-0.2762312E-03-0.458E-03
 d Force =-0.6876570E+01[-0.698E+01,-0.678E+01]  d Ewald  =-0.6875776E+01-0.794E-03


--------------------------------------------------------------------------------------------------------


    POTLOK:  cpu time      1.7578: real time      1.7580


--------------------------------------------------------------------------------------------------------


 Finite differences progress:
  Degree of freedom:   9/  9
  Displacement:        2/  2
  Total:              18/ 18

 SECOND DERIVATIVES (NOT SYMMETRIZED)
 ------------------------------------
               1X          1Y          1Z          2X          2Y          2Z          3X          3Y          3Z 
  1X   -12.731864   -0.000000    0.000073    6.365535    0.000000    0.000007    6.366329   -0.000000   -0.000080
  1Y    -0.002818  -12.729864   -0.000018    0.001409    6.364535   -0.000493    0.001409    6.365329    0.000512
  1Z     0.000039   -0.002501 -177.922304   -0.000020    0.001445   88.965214   -0.000019    0.001056   88.957090
  2X     6.363713   -0.000000   -0.000036   -3.185060   -0.000000    0.001257   -3.178653    0.000000   -0.001222
  2Y     0.000175    6.365245    0.002665    0.000906   -3.189333   -0.001280   -0.001081   -3.175911   -0.001385
  2Z    -0.000019   -0.000899   88.976318    0.000020    0.004228  -95.396633   -0.000001   -0.003329    6.420314
  3X     6.364966   -0.000000   -0.002154   -3.178110   -0.000000    0.001530   -3.186856    0.000000    0.000624
  3Y     0.000175    6.366041   -0.002622   -0.001077   -3.175908    0.001371    0.000902   -3.190134    0.001251
  3Z    -0.000020   -0.000949   88.991494   -0.000002   -0.003944    6.397740    0.000022    0.004893  -95.389234


 Eigenvectors and eigenvalues of the dynamical matrix
 ----------------------------------------------------


   1 f  =   70.566264 THz   443.380914 2PiTHz 2353.837207 cm-1   291.838488 meV
             X         Y         Z           dx          dy          dz
     10.000000 10.000000 11.499996    -0.000000    0.000003    0.852667  
     10.000000 10.000000 10.325071     0.000000   -0.000008   -0.369430  
     10.000000 10.000000 12.674933     0.000005    0.000005   -0.369434  

   2 f  =   39.433816 THz   247.769974 2PiTHz 1315.370518 cm-1   163.085086 meV
             X         Y         Z           dx          dy          dz
     10.000000 10.000000 11.499996    -0.000001   -0.000005   -0.000022  
     10.000000 10.000000 10.325071     0.000009    0.000029   -0.707135  
     10.000000 10.000000 12.674933     0.000004   -0.000028    0.707078  

   3 f  =   18.876043 THz   118.601677 2PiTHz  629.637028 cm-1    78.065007 meV
             X         Y         Z           dx          dy          dz
     10.000000 10.000000 11.499996     0.694653    0.494563    0.000022  
     10.000000 10.000000 10.325071    -0.300864   -0.214219    0.000022  
     10.000000 10.000000 12.674933    -0.300923   -0.214246    0.000032  

   4 f  =   18.874361 THz   118.591105 2PiTHz  629.580902 cm-1    78.058048 meV
             X         Y         Z           dx          dy          dz
     10.000000 10.000000 11.499996     0.494569   -0.694605   -0.000029  
     10.000000 10.000000 10.325071    -0.214205    0.300929   -0.000039  
     10.000000 10.000000 12.674933    -0.214247    0.300967   -0.000039  

   5 f  =    0.462110 THz     2.903522 2PiTHz   15.414326 cm-1     1.911132 meV
             X         Y         Z           dx          dy          dz
     10.000000 10.000000 11.499996    -0.001890    0.000095   -0.007023  
     10.000000 10.000000 10.325071     0.106180   -0.698622   -0.008121  
     10.000000 10.000000 12.674933    -0.110523    0.698752   -0.008066  

   6 f  =    0.337053 THz     2.117766 2PiTHz   11.242877 cm-1     1.393938 meV
             X         Y         Z           dx          dy          dz
     10.000000 10.000000 11.499996    -0.022875   -0.000152    0.002099  
     10.000000 10.000000 10.325071     0.671732    0.108162    0.002423  
     10.000000 10.000000 12.674933    -0.724407   -0.108498    0.002409  

   7 f/i=    0.000931 THz     0.005848 2PiTHz    0.031047 cm-1     0.003849 meV
             X         Y         Z           dx          dy          dz
     10.000000 10.000000 11.499996    -0.004703    0.522343    0.008135  
     10.000000 10.000000 10.325071    -0.005485    0.602789    0.009387  
     10.000000 10.000000 12.674933    -0.005256    0.602894    0.009390  

   8 f/i=    0.007817 THz     0.049113 2PiTHz    0.260734 cm-1     0.032327 meV
             X         Y         Z           dx          dy          dz
     10.000000 10.000000 11.499996     0.035421   -0.007864    0.521145  
     10.000000 10.000000 10.325071     0.041638   -0.018619    0.601382  
     10.000000 10.000000 12.674933     0.040135    0.000672    0.601447  

   9 f/i=    0.014908 THz     0.093668 2PiTHz    0.497266 cm-1     0.061653 meV
             X         Y         Z           dx          dy          dz
     10.000000 10.000000 11.499996    -0.520630   -0.005210    0.035318  
     10.000000 10.000000 10.325071    -0.631929   -0.008885    0.040747  
     10.000000 10.000000 12.674933    -0.570021   -0.003127    0.040762  

 Finite differences POTIM=   1.0000000000000000E-002
     LOOP+:  cpu time     60.6027: real time     60.7434
    4ORBIT:  cpu time      0.0000: real time      0.0000

 total amount of memory used by VASP MPI-rank0    82681. kBytes
=======================================================================

   base      :      30000. kBytes
   nonl-proj :       3379. kBytes
   fftplans  :      16846. kBytes
   grid      :      31534. kBytes
   one-center:          1. kBytes
   wavefun   :        921. kBytes

  
  
 General timing and accounting informations for this job:
 ========================================================
  
                  Total CPU time used (sec):     1229.010
                            User time (sec):     1216.580
                          System time (sec):       12.430
                         Elapsed time (sec):     1244.284
  
                   Maximum memory used (kb):      332108.
                   Average memory used (kb):          N/A
  
                          Minor page faults:      1231937
                          Major page faults:            0
                 Voluntary context switches:        22732
