 **********************************************************************
                          MRCC program system
 **********************************************************************
 
                              Written by
     Mihaly Kallay, Peter R. Nagy, David Mester, Laszlo Gyevi-Nagy,
        Jozsef Csoka, P. Bernat Szabo, Zoltan Rolik, Gyula Samu,
     Jozsef Csontos, Bence Hegely, Adam Ganyecz, Istvan Ladjanszki,
       Lorant Szegedy, Bence Ladoczki, Klara Petrov, Mate Farkas,
                    Pal D. Mezei, and Reka A. Horvath
 
        Department of Physical Chemistry and Materials Science
            Budapest University of Technology and Economics
                  Budapest P.O.Box 91, H-1521 Hungary
 
                              www.mrcc.hu
 
                      Release date: March 18, 2022

 ************************ 2022-11-17 20:32:28 *************************
 Executing minp...

 Reading input from MINP...
 
 Input file:
 
calc=LNO-CCSD(T)
scftype=rhf
verbosity=3
mem=300GB
symm=off
unit=angs
scfiguess=small
scfmaxit=1000
scfalg=locfit1


lcorthr=tight
bpedo=0.99999
ccmaxit=400
usedisk=0
ccsdalg=dfdirect
ccsdthreads=4
ccsdmkl=thr
ptthreads=4

charge=0
core=2

basis=special
aug-cc-pVDZ
aug-cc-pVDZ
aug-cc-pVDZ
aug-cc-pVDZ
aug-cc-pVDZ
aug-cc-pVDZ
aug-cc-pVDZ
aug-cc-pVDZ
bse_CVDZ
aug-cc-pVDZ
aug-cc-pVDZ
aug-cc-pVDZ
aug-cc-pVDZ
aug-cc-pVDZ

basis_sm=special
def2-SVP
def2-SVP
def2-SVP
def2-SVP
def2-SVP
def2-SVP
def2-SVP
def2-SVP
def2-SVP
def2-SVP
def2-SVP
def2-SVP
def2-SVP
def2-SVP

dfbasis_scf=special
def2-QZVPP-RI-JK
def2-QZVPP-RI-JK
def2-QZVPP-RI-JK
def2-QZVPP-RI-JK
def2-QZVPP-RI-JK
def2-QZVPP-RI-JK
def2-QZVPP-RI-JK
def2-QZVPP-RI-JK
def2-QZVPP-RI-JK
def2-QZVPP-RI-JK
def2-QZVPP-RI-JK
def2-QZVPP-RI-JK
def2-QZVPP-RI-JK
def2-QZVPP-RI-JK

dfbasis_cor=special
aug-cc-pVDZ-RI
aug-cc-pVDZ-RI
aug-cc-pVDZ-RI
aug-cc-pVDZ-RI
aug-cc-pVDZ-RI
aug-cc-pVDZ-RI
aug-cc-pVDZ-RI
aug-cc-pVDZ-RI
bse_CVDZ_mp2fit
aug-cc-pVDZ-RI
aug-cc-pVDZ-RI
aug-cc-pVDZ-RI
aug-cc-pVDZ-RI
aug-cc-pVDZ-RI

ecp=special
none
none
none
none
none
none
none
none
none
none
none
none
none
none

unit=angs
geom=xyz
14
C2 H6 Mg1 O5 ECP25
C    -0.41689822922   -0.02185305659    3.07794000557
C    -1.72242623808   -0.63612110120    3.57781821960
H    -0.59199935821    0.91149562795    2.52476034735
H     0.11313945014   -0.72351786700    2.41630228359
H     0.26642805910    0.21311051199    3.90478343526
H    -2.40717047785   -0.83187135322    2.74190428256
H    -2.24223250058    0.03463530165    4.27513805082
H    -1.54444920195   -1.58613834456    4.09937753601
Mg    0.00000000000    0.00000000000   -0.03652448019
O    -0.00005601345    2.10907390660   -0.00002665905
O    -0.00006236277   -2.11136123308    0.00000000000
O    -2.11222639314   -0.00131919639   -0.00560527220
O     2.11498488411   -0.00110503738   -0.00000303788
O     0.00271927821   -0.00281039503   -2.15376485956

ghost=serialno
9-14

 
 
 Checking keyword combinations...
 
 Keywords:
 
 active=none
--------------------Output has been truncated-------------------------


--------------------Output has been truncated-------------------------


--------------------Output has been truncated-------------------------


--------------------Output has been truncated-------------------------


--------------------Output has been truncated-------------------------


--------------------Output has been truncated-------------------------


--------------------Output has been truncated-------------------------


--------------------Output has been truncated-------------------------


--------------------Output has been truncated-------------------------


--------------------Output has been truncated-------------------------


 
 Final local CC results:
 
 Minimum number of correlated electrons:        14       (100.0%)
 Maximum number of correlated electrons:        14       (100.0%)
 Average number of correlated electrons:        14.0     (100.0%)
 Minimum number of correlated orbitals:         69       ( 28.8%)
 Maximum number of correlated orbitals:         77       ( 32.1%)
 Average number of correlated orbitals:         70.4     ( 29.3%)
 
 CPU time for integral calculations [min]:                  0.384
 Wall time for integral calculations [min]:                 0.016
 
 CPU time for SCF calculation [min]:                        2.061
 Wall time for SCF calculation [min]:                       0.075
 
 CPU time for orbital localization [min]:                   0.080
 Wall time for orbital localization [min]:                  0.004
 
 CPU time for integral transformations [min]:               7.867
 Wall time for integral transformations [min]:              0.328
 
 Reference energy [au]:                                   -79.237149052561
 
 LMP2 correlation energy [au]:                             -0.314530871375
 Total LMP2 energy [au]:                                  -79.551679923936
 
 Total MP2 correction for dropped NAFs [au]:               -0.000075775491
 Total MP2 correction [au]:                                -0.000231552478
 
 CPU time for CCSD calculations [min]:                      1.470
 Total CPU time for CCSD [min]:                            11.862
 Wall time for CCSD calculations [min]:                     0.050
 Total wall time for CCSD [min]:                            0.472
 
 CCSD correlation energy [au]:                             -0.351399385126
 Total CCSD energy [au]:                                  -79.588548437687
 CCSD correlation energy + 0.5 MP2 corrections [au]:       -0.351515161365
 Total LNO-CCSD energy with MP2 corrections [au]:         -79.588664213926
 
 CPU time for (T) corrections [min]:                        0.817
 Total CPU time for CCSD(T) [min]:                         12.678
 Wall time for (T) corrections [min]:                       0.030
 Total wall time for CCSD(T) [min]:                         0.502
 
 Total (T) correlation energy contribution [au]:           -0.009757025560
 Total (T) correlation energy+0.5 MP2 correction [au]:     -0.009872801799
 CCSD(T) correlation energy [au]:                          -0.361156410686
 Total CCSD(T) energy [au]:                               -79.598305463247
 CCSD(T) correlation energy + MP2 corrections [au]:        -0.361387963164
 Total LNO-CCSD(T) energy with MP2 corrections [au]:      -79.598537015725
 
 ======================================================================
 ======================================================================
 
 ************************ 2022-11-17 20:33:17 *************************
                      Normal termination of mrcc.
 **********************************************************************
