 vasp.6.3.0 20Jan22 (build Aug 21 2024 11:13:42) complex                         
 executed on        HPECrayEX_GCC date 2024.11.26  23:33:43
 running  512 mpi-ranks, with    1 threads/rank
 distrk:  each k-point on  512 cores,    1 groups
 distr:  one band on NCORE=  16 cores,   32 groups


--------------------------------------------------------------------------------------------------------


 INCAR:
   SYSTEM = TiO2
   ISMEAR = 0
   SIGMA = 0.05
   EDIFF = 1E-4
   ALGO = ALL
   ISTART = 0
   IBRION = -1
   NSW = 0
   ISYM = 0
   ISIF = 2
   EDIFFG = -0.01
   DIPOL = 0.5 0.5 0.5
   IDIPOL = 3
   LDIPOL = .TRUE.
   GGA = PE
   IVDW = 21
   ENCUT = 600
   PREC = Accurate
   LASPH = .TRUE.
   LREAL = .FALSE.
   ISPIN = 1
   NELM = 200
   NELMIN = 8
   NCORE = 16
   KPAR = 1
   LWAVE = .FALSE.
   LCHARG = .FALSE.

 POTCAR:    PAW_PBE N 08Apr2002                   
 POTCAR:    PAW_PBE H 15Jun2001                   
 POTCAR:    PAW_PBE N 08Apr2002                   
   SHA256 =  e053789ff3a61a86a1b75d8a110fcc91f86041011e7b0817c7c99e4e8a6349d7 N/POTCAR              
   COPYR  = (c) Copyright 08Apr2002 Georg Kresse                                                    
   COPYR  = This file is part of the software VASP. Any use, copying, and all other rights are regul
   COPYR  = If you do not have a valid VASP license, you may not use, copy or distribute this file. 
   VRHFIN =N: s2p3                                                                                  
   LEXCH  = PE                                                                                      
   EATOM  =   264.5486 eV,   19.4438 Ry                                                             
                                                                                                    
   TITEL  = PAW_PBE N 08Apr2002                                                                     
   LULTRA =        F    use ultrasoft PP ?                                                          
   IUNSCR =        1    unscreen: 0-lin 1-nonlin 2-no                                               
   RPACOR =    1.200    partial core radius                                                         
   POMASS =   14.001; ZVAL   =    5.000    mass and valenz                                          
   RCORE  =    1.500    outmost cutoff radius                                                       
   RWIGS  =    1.400; RWIGS  =    0.741    wigner-seitz radius (au A)                               
   ENMAX  =  400.000; ENMIN  =  300.000 eV                                                          
   ICORE  =        2    local potential                                                             
   LCOR   =        T    correct aug charges                                                         
   LPAW   =        T    paw PP                                                                      
   EAUG   =  627.112                                                                                
   DEXC   =    0.000                                                                                
   RMAX   =    1.529    core radius for proj-oper                                                   
   RAUG   =    1.300    factor for augmentation sphere                                              
   RDEP   =    1.514    radius for radial grids                                                     
   RDEPT  =    1.338    core radius for aug-charge                                                  
                                                                                                    
   Atomic configuration                                                                             
    4 entries                                                                                       
     n  l   j            E        occ.                                                              
     1  0  0.50      -384.7179   2.0000                                                             
     2  0  0.50       -18.5828   2.0000                                                             
     2  1  0.50        -7.0898   3.0000                                                             
     3  2  1.50        -6.8029   0.0000                                                             
   Description                                                                                      
     l       E           TYP  RCUT    TYP  RCUT                                                     
     0    -18.5828119     23  1.200                                                                 
     0    -13.5018863     23  1.200                                                                 
     1     -7.0897853     23  1.500                                                                 
     1      9.5240782     23  1.500                                                                 
     2     -6.8029130      7  1.500                                                                 
  local pseudopotential read in
  partial core-charges read in
  partial kinetic energy density read in
  atomic valenz-charges read in
  non local Contribution for L=           0  read in
    real space projection operators read in
  non local Contribution for L=           0  read in
    real space projection operators read in
  non local Contribution for L=           1  read in
    real space projection operators read in
  non local Contribution for L=           1  read in
    real space projection operators read in
    PAW grid and wavefunctions read in

   number of l-projection  operators is LMAX  =           4
   number of lm-projection operators is LMMAX =           8

 POTCAR:    PAW_PBE H 15Jun2001                   
   SHA256 =  030f79b5d3ab3cf0e668861823c8fb652ff669f3e15e46930bd03bfd63a607b6 H/POTCAR              
   COPYR  = (c) Copyright 15Jun2001 Georg Kresse                                                    
   COPYR  = This file is part of the software VASP. Any use, copying, and all other rights are regul
   COPYR  = If you do not have a valid VASP license, you may not use, copy or distribute this file. 
   VRHFIN =H: ultrasoft test                                                                        
   LEXCH  = PE                                                                                      
   EATOM  =    12.4884 eV,    0.9179 Ry                                                             
                                                                                                    
   TITEL  = PAW_PBE H 15Jun2001                                                                     
   LULTRA =        F    use ultrasoft PP ?                                                          
   IUNSCR =        0    unscreen: 0-lin 1-nonlin 2-no                                               
   RPACOR =    0.000    partial core radius                                                         
   POMASS =    1.000; ZVAL   =    1.000    mass and valenz                                          
   RCORE  =    1.100    outmost cutoff radius                                                       
   RWIGS  =    0.700; RWIGS  =    0.370    wigner-seitz radius (au A)                               
   ENMAX  =  250.000; ENMIN  =  200.000 eV                                                          
   RCLOC  =    0.701    cutoff for local pot                                                        
   LCOR   =        T    correct aug charges                                                         
   LPAW   =        T    paw PP                                                                      
   EAUG   =  400.000                                                                                
   RMAX   =    1.123    core radius for proj-oper                                                   
   RAUG   =    1.200    factor for augmentation sphere                                              
   RDEP   =    1.112    radius for radial grids                                                     
   RDEPT  =    0.926    core radius for aug-charge                                                  
                                                                                                    
   Atomic configuration                                                                             
    2 entries                                                                                       
     n  l   j            E        occ.                                                              
     1  0  0.50        -6.4927   1.0000                                                             
     2  1  0.50        -3.4015   0.0000                                                             
   Description                                                                                      
     l       E           TYP  RCUT    TYP  RCUT                                                     
     0     -6.4927494     23  1.100                                                                 
     0      6.8029130     23  1.100                                                                 
     1     -4.0817478     23  1.100                                                                 
  local pseudopotential read in
  atomic valenz-charges read in
  non local Contribution for L=           0  read in
    real space projection operators read in
  non local Contribution for L=           0  read in
    real space projection operators read in
  non local Contribution for L=           1  read in
    real space projection operators read in
    PAW grid and wavefunctions read in

   number of l-projection  operators is LMAX  =           3
   number of lm-projection operators is LMMAX =           5

  PAW_PBE N 08Apr2002                   :
 energy of atom  1       EATOM= -264.5486
 kinetic energy error for atom=    0.0103 (will be added to EATOM!!)
  PAW_PBE H 15Jun2001                   :
 energy of atom  2       EATOM=  -12.4884
 kinetic energy error for atom=    0.0004 (will be added to EATOM!!)


 POSCAR:  N  H
  positions in direct lattice
  No initial velocities read in
 exchange correlation table for  LEXCH =        8
   RHO(1)=    0.500       N(1)  =     2000
   RHO(2)=  100.500       N(2)  =     4000



--------------------------------------------------------------------------------------------------------


 ion  position               nearest neighbor table
   1  0.612  0.500  0.778-   2 1.02   4 1.02   3 1.02
   2  0.549  0.500  0.806-   1 1.02
   3  0.671  0.428  0.781-   1 1.02
   4  0.671  0.572  0.781-   1 1.02


IMPORTANT INFORMATION: All symmetrisations will be switched off!
NOSYMM: (Re-)initialisation of all symmetry stuff for point group C_1.


----------------------------------------------------------------------------------------

                                     Primitive cell                                     

  volume of cell :    3260.5577

  direct lattice vectors                    reciprocal lattice vectors
    10.272661001  0.000000000  0.000000000     0.097345761 -0.000000000  0.000000000
     0.000000000 11.368814841  0.000000000     0.000000000  0.087959916  0.000000000
     0.000000000  0.000000000 27.918606646     0.000000000  0.000000000  0.035818406

  length of vectors
    10.272661001 11.368814841 27.918606646     0.097345761  0.087959916  0.035818406

  position of ions in fractional coordinates (direct lattice)
     0.612266074  0.500000012  0.778103195
     0.549331825  0.499999976  0.806366391
     0.671374481  0.427981219  0.780864316
     0.671374458  0.572018707  0.780864315

  ion indices of the primitive-cell ions
   primitive index   ion index
                 1           1
                 2           2
                 3           3
                 4           4

----------------------------------------------------------------------------------------



 KPOINTS: pymatgen v2020.8.13 with grid density = 

Automatic generation of k-mesh.
 Grid dimensions read from file:
 generate k-points for:    3    3    1

 Generating k-lattice:

  Cartesian coordinates                     Fractional coordinates (reciprocal lattice)
     0.032448587 -0.000000000  0.000000000     0.333333333 -0.000000000  0.000000000
     0.000000000  0.029319972  0.000000000     0.000000000  0.333333333  0.000000000
     0.000000000  0.000000000  0.035818406     0.000000000  0.000000000  1.000000000

  Length of vectors
     0.032448587  0.029319972  0.035818406

  Shift w.r.t. Gamma in fractional coordinates (k-lattice)
     0.000000000  0.000000000  0.000000000

 
 Subroutine IBZKPT returns following result:
 ===========================================
 
 Found      5 irreducible k-points:
 
 Following reciprocal coordinates:
            Coordinates               Weight
  0.000000  0.000000  0.000000      1.000000
  0.333333  0.000000  0.000000      2.000000
  0.000000  0.333333  0.000000      2.000000
  0.333333  0.333333  0.000000      2.000000
  0.333333 -0.333333  0.000000      2.000000
 
 Following cartesian coordinates:
            Coordinates               Weight
  0.000000  0.000000  0.000000      1.000000
  0.032449  0.000000  0.000000      2.000000
  0.000000  0.029320  0.000000      2.000000
  0.032449  0.029320  0.000000      2.000000
  0.032449 -0.029320  0.000000      2.000000
 


--------------------------------------------------------------------------------------------------------




 Dimension of arrays:
   k-points           NKPTS =      5   k-points in BZ     NKDIM =      5   number of bands    NBANDS=     32
   number of dos      NEDOS =    301   number of ions     NIONS =      4
   non local maximal  LDIM  =      4   non local SUM 2l+1 LMDIM =      8
   total plane-waves  NPLWV = ******
   max r-space proj   IRMAX =      1   max aug-charges    IRDMAX=   7016
   dimension x,y,z NGX =    84 NGY =   96 NGZ =  224
   dimension x,y,z NGXF=   168 NGYF=  192 NGZF=  448
   support grid    NGXF=   168 NGYF=  192 NGZF=  448
   ions per type =               1   3
   NGX,Y,Z   is equivalent  to a cutoff of  13.59, 14.04, 13.34 a.u.
   NGXF,Y,Z  is equivalent  to a cutoff of  27.19, 28.08, 26.68 a.u.

 SYSTEM =  TiO2                                    
 POSCAR =   N  H                                   

--------------------------------------------------------------------------------------------------------


  energy-cutoff  :      600.00
  volume of cell :     3260.56
      direct lattice vectors                 reciprocal lattice vectors
    10.272661001  0.000000000  0.000000000     0.097345761 -0.000000000  0.000000000
     0.000000000 11.368814841  0.000000000     0.000000000  0.087959916  0.000000000
     0.000000000  0.000000000 27.918606646     0.000000000  0.000000000  0.035818406

  length of vectors
    10.272661001 11.368814841 27.918606646     0.097345761  0.087959916  0.035818406



 k-points in units of 2pi/SCALE and weight: pymatgen v2020.8.13 with grid density = 
   0.00000000  0.00000000  0.00000000       0.111
   0.03244859  0.00000000  0.00000000       0.222
   0.00000000  0.02931997  0.00000000       0.222
   0.03244859  0.02931997  0.00000000       0.222
   0.03244859 -0.02931997  0.00000000       0.222

 k-points in reciprocal lattice and weights: pymatgen v2020.8.13 with grid density = 
   0.00000000  0.00000000  0.00000000       0.111
   0.33333333  0.00000000  0.00000000       0.222
   0.00000000  0.33333333  0.00000000       0.222
   0.33333333  0.33333333  0.00000000       0.222
   0.33333333 -0.33333333  0.00000000       0.222

 position of ions in fractional coordinates (direct lattice) 
   0.61226607  0.50000001  0.77810319
   0.54933183  0.49999998  0.80636639
   0.67137448  0.42798122  0.78086432
   0.67137446  0.57201871  0.78086431

 position of ions in cartesian coordinates  (Angst):
   6.28960182  5.68440755 21.72355702
   5.64309962  5.68440715 22.51262607
   6.89680245  4.86563923 21.80064367
   6.89680221  6.50317476 21.80064365



--------------------------------------------------------------------------------------------------------

--------------------------------------- Iteration      FINAL  ---------------------------------------


--------------------OUTCAR has been truncated-------------------------


--------------------OUTCAR has been truncated-------------------------


--------------------OUTCAR has been truncated-------------------------


--------------------OUTCAR has been truncated-------------------------


--------------------OUTCAR has been truncated-------------------------


--------------------OUTCAR has been truncated-------------------------


--------------------OUTCAR has been truncated-------------------------


--------------------OUTCAR has been truncated-------------------------


--------------------OUTCAR has been truncated-------------------------


--------------------OUTCAR has been truncated-------------------------


  Hirshfeld charges:
            ion         q(e)     
   ------------------------------
      1     N          -0.293
      2     H           0.098
      3     H           0.098
      4     H           0.098

  Hirshfeld-I charges:
            ion         q(e)        dq(e)    
   ------------------------------------------
      1     N          -1.103     -0.428E-04
      2     H           0.369      0.144E-04
      3     H           0.367      0.142E-04
      4     H           0.367      0.142E-04

   Hirshfeld-I converged in  27 cycles. Convergence criterion |dq|< 0.500E-04 e

  Atomic reference data used in the T-S method for vdW correction:
            C6at              R0at           ALPHAat      REFSTATE
            (au)              (au)            (au)                
   ---------------------------------------------------------------
   N          24.200          3.345          7.400         0
   H           6.500          3.099          4.500         0

  Tkatchenko/Scheffler method for vdW energy calculation
  ---------------------------------------------------------------------------------------------

  Parameters of vdW forcefield:
            C6ts              R0ts           ALPHAts        RELVOL
            (au)              (au)            (au)                
   ---------------------------------------------------------------
   N          43.162          3.683          9.883          1.33549227
   H           0.757          2.166          1.536          0.34123552
   H           0.762          2.168          1.541          0.34240519
   H           0.762          2.168          1.541          0.34240491

  vdW correction parametrized for the method pbe       

  IVDW =  21
  VDW_RADIUS =    50.000 A
  VDW_IDAMPF =  0
  VDW_S6 =     1.000
  VDW_SR =     0.950
  VDW_D =    20.000
  LVDW_ONECELL = F F F
  LVDW_SAMETYPE T T
  LVDW_EWALD = F

  Number of pair interactions contributing to vdW energy:    1607
  Edisp (eV):   -0.00062
    FORVDW:  cpu time     14.9228: real time     14.9285

  FORCE on cell =-STRESS in cart. coord.  units (eV):
  Direction    XX          YY          ZZ          XY          YZ          ZX
  --------------------------------------------------------------------------------------
  Alpha Z     0.07080     0.07080     0.07080
  Ewald     125.74282   130.38621   -68.79708     0.00006    -0.00002   -33.69308
  Hartree   201.32665   193.58985    42.05338     0.00000    -0.00001    -6.41996
  E(xc)     -30.83262   -30.78502   -30.98428     0.00000    -0.00000    -0.11950
  Local    -400.31955  -392.59556   -58.20505    -0.00004     0.00002    30.48929
  n-local   -22.42924   -21.90561   -23.45617    -0.00000    -0.00000    -0.87993
  augment     1.32745     1.19036     1.65181    -0.00000     0.00000     0.26810
  Kinetic   124.82377   119.94231   137.66006    -0.00000     0.00001    10.43586
  Fock        0.00000     0.00000     0.00000     0.00000     0.00000     0.00000
  vdW         0.00160     0.00208     0.00061    -0.00000     0.00000    -0.00108
  -------------------------------------------------------------------------------------
  Total      -0.28832    -0.10458    -0.00592     0.00002     0.00000     0.07970
  in kB      -0.14168    -0.05139    -0.00291     0.00001     0.00000     0.03916
  external pressure =       -0.07 kB  Pullay stress =        0.00 kB


 VOLUME and BASIS-vectors are now :
 -----------------------------------------------------------------------------
  energy-cutoff  :      600.00
  volume of cell :     3260.56
      direct lattice vectors                 reciprocal lattice vectors
    10.272661001  0.000000000  0.000000000     0.097345761 -0.000000000  0.000000000
     0.000000000 11.368814841  0.000000000     0.000000000  0.087959916  0.000000000
     0.000000000  0.000000000 27.918606646     0.000000000  0.000000000  0.035818406

  length of vectors
    10.272661001 11.368814841 27.918606646     0.097345761  0.087959916  0.035818406


 FORCES acting on ions:
    Electron-Ion                     Ewald-Force                    Non-Local-Force
 -----------------------------------------------------------------------------------------------
   0.237E+02 0.285E-04 0.395E+02   -.378E+02 -.651E-04 -.641E+02   0.143E+02 -.116E-04 0.244E+02
   0.468E+02 0.253E-04 -.528E+02   -.514E+02 -.281E-04 0.583E+02   0.474E+01 0.301E-05 -.540E+01
   -.406E+02 0.571E+02 -.253E+01   0.446E+02 -.629E+02 0.293E+01   -.419E+01 0.577E+01 -.325E+00
   -.406E+02 -.571E+02 -.253E+01   0.446E+02 0.629E+02 0.293E+01   -.419E+01 -.577E+01 -.325E+00
 -----------------------------------------------------------------------------------------------
   -.106E+02 0.132E-04 -.184E+02   0.000E+00 0.000E+00 0.000E+00   0.106E+02 -.249E-04 0.184E+02


 POSITION                                       TOTAL-FORCE (eV/Angst)
 -----------------------------------------------------------------------------------
      6.28960      5.68441     21.72356         0.129867     -0.000045     -0.201653
      5.64310      5.68441     22.51263         0.126806      0.000003      0.039320
      6.89680      4.86564     21.80064        -0.128348      0.034957      0.081166
      6.89680      6.50317     21.80064        -0.128324     -0.034915      0.081167
 -----------------------------------------------------------------------------------
    total drift:                               -0.015164     -0.000012     -0.024677


--------------------------------------------------------------------------------------------------------



  FREE ENERGIE OF THE ION-ELECTRON SYSTEM (eV)
  ---------------------------------------------------
  free  energy   TOTEN  =       -19.54562131 eV

  energy  without entropy=      -19.54562131  energy(sigma->0) =      -19.54562131



--------------------------------------------------------------------------------------------------------


    POTLOK:  cpu time      0.1586: real time      0.1590


--------------------------------------------------------------------------------------------------------


     LOOP+:  cpu time     41.1788: real time     41.2626
    4ORBIT:  cpu time      0.0000: real time      0.0000

 total amount of memory used by VASP MPI-rank0    52888. kBytes
=======================================================================

   base      :      30000. kBytes
   nonl-proj :       4820. kBytes
   fftplans  :       6413. kBytes
   grid      :      10002. kBytes
   one-center:          3. kBytes
   wavefun   :       1650. kBytes

  
  
 General timing and accounting informations for this job:
 ========================================================
  
                  Total CPU time used (sec):       70.328
                            User time (sec):       69.727
                          System time (sec):        0.600
                         Elapsed time (sec):       83.757
  
                   Maximum memory used (kb):      185808.
                   Average memory used (kb):          N/A
  
                          Minor page faults:        21758
                          Major page faults:          600
                 Voluntary context switches:        10733
