 vasp.6.4.2 20Jul23 (build Feb 22 2024 13:53:45) complex                         
 executed on              LinuxNV date 2024.08.27  15:20:34
 running    4 mpi-ranks, with    1 threads/rank, on    1 nodes
 distrk:  each k-point on    4 cores,    1 groups
 distr:  one band on NCORE=   1 cores,    4 groups
 OpenACC runtime initialized ...    4 GPUs detected


--------------------------------------------------------------------------------------------------------


 INCAR:
   SYSTEM = Oxide-Surface
   ISMEAR = 0
   SIGMA = 0.05
   EDIFF = 1E-5
   ALGO = Normal
   IBRION = -1
   NSW = 0
   ISYM = 0
   DIPOL = 0.5 0.5 0.5
   IDIPOL = 3
   LDIPOL = .TRUE.
   ISTART = 0
   LHFCALC = .FALSE.
   GGA = PE
   IVDW = 21
   VDW_SR = 0.96
   HFRCUT = -1
   ENCUT = 520
   PREC = Normal
   PRECFOCK = Normal
   LASPH = .TRUE.
   LREAL = Auto
   ISPIN = 1
   NELM = 200
   NELMIN = 8
   NCORE = 1
   KPAR = 1
   LWAVE = .TRUE.
   LCHARG = .FALSE.

 POTCAR:    PAW_PBE C 08Apr2002                   
 POTCAR:    PAW_PBE O 08Apr2002                   
 POTCAR:    PAW_PBE H 15Jun2001                   
 POTCAR:    PAW_PBE Ti_pv 07Sep2000               
 POTCAR:    PAW_PBE O 08Apr2002                   
 POTCAR:    PAW_PBE C 08Apr2002                   
   SHA256 =  253f7b50bb8d59471dbedb8285d89021f4a42ed1a2c5d38a03a736e69125dd95 C/POTCAR              
   COPYR  = (c) Copyright 08Apr2002 Georg Kresse                                                    
   COPYR  = This file is part of the software VASP. Any use, copying, and all other rights are regul
   COPYR  = If you do not have a valid VASP license, you may not use, copy or distribute this file. 
   VRHFIN =C: s2p2                                                                                  
   LEXCH  = PE                                                                                      
   EATOM  =   147.1560 eV,   10.8157 Ry                                                             
                                                                                                    
   TITEL  = PAW_PBE C 08Apr2002                                                                     
   LULTRA =        F    use ultrasoft PP ?                                                          
   IUNSCR =        1    unscreen: 0-lin 1-nonlin 2-no                                               
   RPACOR =    1.200    partial core radius                                                         
   POMASS =   12.011; ZVAL   =    4.000    mass and valenz                                          
   RCORE  =    1.500    outmost cutoff radius                                                       
   RWIGS  =    1.630; RWIGS  =    0.863    wigner-seitz radius (au A)                               
   ENMAX  =  400.000; ENMIN  =  300.000 eV                                                          
   ICORE  =        2    local potential                                                             
   LCOR   =        T    correct aug charges                                                         
   LPAW   =        T    paw PP                                                                      
   EAUG   =  644.873                                                                                
   DEXC   =    0.000                                                                                
   RMAX   =    1.529    core radius for proj-oper                                                   
   RAUG   =    1.300    factor for augmentation sphere                                              
   RDEP   =    1.501    radius for radial grids                                                     
   RDEPT  =    1.300    core radius for aug-charge                                                  
                                                                                                    
   Atomic configuration                                                                             
    4 entries                                                                                       
     n  l   j            E        occ.                                                              
     1  0  0.50      -273.3789   2.0000                                                             
     2  0  0.50       -13.7508   2.0000                                                             
     2  1  0.50        -5.2854   2.0000                                                             
     3  2  1.50        -5.4423   0.0000                                                             
   Description                                                                                      
     l       E           TYP  RCUT    TYP  RCUT                                                     
     0    -13.7508458     23  1.200                                                                 
     0     -8.2022199     23  1.200                                                                 
     1     -5.2854383     23  1.500                                                                 
     1     34.0145650     23  1.500                                                                 
     2     -5.4423304      7  1.500                                                                 
  local pseudopotential read in
  partial core-charges read in
  partial kinetic energy density read in
  atomic valenz-charges read in
  non local Contribution for L=            0  read in
    real space projection operators read in
  non local Contribution for L=            0  read in
    real space projection operators read in
  non local Contribution for L=            1  read in
    real space projection operators read in
  non local Contribution for L=            1  read in
    real space projection operators read in
    PAW grid and wavefunctions read in
 
   number of l-projection  operators is LMAX  =            4
   number of lm-projection operators is LMMAX =            8
 
 POTCAR:    PAW_PBE O 08Apr2002                   
   SHA256 =  818f92134a0a090dccd8ba1447fa70422a3b330e708bb4f08108d8ae51209ddf O/POTCAR              
   COPYR  = (c) Copyright 08Apr2002 Georg Kresse                                                    
   COPYR  = This file is part of the software VASP. Any use, copying, and all other rights are regul
   COPYR  = If you do not have a valid VASP license, you may not use, copy or distribute this file. 
   VRHFIN =O: s2p4                                                                                  
   LEXCH  = PE                                                                                      
   EATOM  =   432.3788 eV,   31.7789 Ry                                                             
                                                                                                    
   TITEL  = PAW_PBE O 08Apr2002                                                                     
   LULTRA =        F    use ultrasoft PP ?                                                          
   IUNSCR =        1    unscreen: 0-lin 1-nonlin 2-no                                               
   RPACOR =    1.200    partial core radius                                                         
   POMASS =   16.000; ZVAL   =    6.000    mass and valenz                                          
   RCORE  =    1.520    outmost cutoff radius                                                       
   RWIGS  =    1.550; RWIGS  =    0.820    wigner-seitz radius (au A)                               
   ENMAX  =  400.000; ENMIN  =  300.000 eV                                                          
   ICORE  =        2    local potential                                                             
   LCOR   =        T    correct aug charges                                                         
   LPAW   =        T    paw PP                                                                      
   EAUG   =  605.392                                                                                
   DEXC   =    0.000                                                                                
   RMAX   =    1.553    core radius for proj-oper                                                   
   RAUG   =    1.300    factor for augmentation sphere                                              
   RDEP   =    1.550    radius for radial grids                                                     
   RDEPT  =    1.329    core radius for aug-charge                                                  
                                                                                                    
   Atomic configuration                                                                             
    4 entries                                                                                       
     n  l   j            E        occ.                                                              
     1  0  0.50      -514.6923   2.0000                                                             
     2  0  0.50       -23.9615   2.0000                                                             
     2  1  0.50        -9.0305   4.0000                                                             
     3  2  1.50        -9.5241   0.0000                                                             
   Description                                                                                      
     l       E           TYP  RCUT    TYP  RCUT                                                     
     0    -23.9615318     23  1.200                                                                 
     0     -9.5240782     23  1.200                                                                 
     1     -9.0304911     23  1.520                                                                 
     1      8.1634956     23  1.520                                                                 
     2     -9.5240782      7  1.500                                                                 
  local pseudopotential read in
  partial core-charges read in
  partial kinetic energy density read in
  kinetic energy density of atom read in
  atomic valenz-charges read in
  non local Contribution for L=            0  read in
    real space projection operators read in
  non local Contribution for L=            0  read in
    real space projection operators read in
  non local Contribution for L=            1  read in
    real space projection operators read in
  non local Contribution for L=            1  read in
    real space projection operators read in
    PAW grid and wavefunctions read in
 
   number of l-projection  operators is LMAX  =            4
   number of lm-projection operators is LMMAX =            8
 
 POTCAR:    PAW_PBE H 15Jun2001                   
   SHA256 =  030f79b5d3ab3cf0e668861823c8fb652ff669f3e15e46930bd03bfd63a607b6 H/POTCAR              
   COPYR  = (c) Copyright 15Jun2001 Georg Kresse                                                    
   COPYR  = This file is part of the software VASP. Any use, copying, and all other rights are regul
   COPYR  = If you do not have a valid VASP license, you may not use, copy or distribute this file. 
   VRHFIN =H: ultrasoft test                                                                        
   LEXCH  = PE                                                                                      
   EATOM  =    12.4884 eV,    0.9179 Ry                                                             
                                                                                                    
   TITEL  = PAW_PBE H 15Jun2001                                                                     
   LULTRA =        F    use ultrasoft PP ?                                                          
   IUNSCR =        0    unscreen: 0-lin 1-nonlin 2-no                                               
   RPACOR =    0.000    partial core radius                                                         
   POMASS =    1.000; ZVAL   =    1.000    mass and valenz                                          
   RCORE  =    1.100    outmost cutoff radius                                                       
   RWIGS  =    0.700; RWIGS  =    0.370    wigner-seitz radius (au A)                               
   ENMAX  =  250.000; ENMIN  =  200.000 eV                                                          
   RCLOC  =    0.701    cutoff for local pot                                                        
   LCOR   =        T    correct aug charges                                                         
   LPAW   =        T    paw PP                                                                      
   EAUG   =  400.000                                                                                
   RMAX   =    1.123    core radius for proj-oper                                                   
   RAUG   =    1.200    factor for augmentation sphere                                              
   RDEP   =    1.112    radius for radial grids                                                     
   RDEPT  =    0.926    core radius for aug-charge                                                  
                                                                                                    
   Atomic configuration                                                                             
    2 entries                                                                                       
     n  l   j            E        occ.                                                              
     1  0  0.50        -6.4927   1.0000                                                             
     2  1  0.50        -3.4015   0.0000                                                             
   Description                                                                                      
     l       E           TYP  RCUT    TYP  RCUT                                                     
     0     -6.4927494     23  1.100                                                                 
     0      6.8029130     23  1.100                                                                 
     1     -4.0817478     23  1.100                                                                 
  local pseudopotential read in
  atomic valenz-charges read in
  non local Contribution for L=            0  read in
    real space projection operators read in
  non local Contribution for L=            0  read in
    real space projection operators read in
  non local Contribution for L=            1  read in
    real space projection operators read in
    PAW grid and wavefunctions read in
 
   number of l-projection  operators is LMAX  =            3
   number of lm-projection operators is LMMAX =            5
 
 POTCAR:    PAW_PBE Ti_pv 07Sep2000               
   SHA256 =  f757a1b2c6d082f4c628fa3d987464a8763bf92e53844ac0500b0e2ddc9ce5c0 Ti_pv/POTCAR          
   COPYR  = (c) Copyright 07Sep2000 Georg Kresse                                                    
   COPYR  = This file is part of the software VASP. Any use, copying, and all other rights are regul
   COPYR  = If you do not have a valid VASP license, you may not use, copy or distribute this file. 
   VRHFIN =Ti: d3 s1                                                                                
   LEXCH  = PE                                                                                      
   EATOM  =  1042.5995 eV,   76.6289 Ry                                                             
                                                                                                    
   TITEL  = PAW_PBE Ti_pv 07Sep2000                                                                 
   LULTRA =        F    use ultrasoft PP ?                                                          
   IUNSCR =        1    unscreen: 0-lin 1-nonlin 2-no                                               
   RPACOR =    2.200    partial core radius                                                         
   POMASS =   47.880; ZVAL   =   10.000    mass and valenz                                          
   RCORE  =    2.500    outmost cutoff radius                                                       
   RWIGS  =    2.500; RWIGS  =    1.323    wigner-seitz radius (au A)                               
   ENMAX  =  222.335; ENMIN  =  166.751 eV                                                          
   RCLOC  =    1.701    cutoff for local pot                                                        
   LCOR   =        T    correct aug charges                                                         
   LPAW   =        T    paw PP                                                                      
   EAUG   =  482.848                                                                                
   DEXC   =    0.000                                                                                
   RMAX   =    2.564    core radius for proj-oper                                                   
   RAUG   =    1.300    factor for augmentation sphere                                              
   RDEP   =    2.538    radius for radial grids                                                     
   RDEPT  =    1.952    core radius for aug-charge                                                  
                                                                                                    
   Atomic configuration                                                                             
    8 entries                                                                                       
     n  l   j            E        occ.                                                              
     1  0  0.50     -4865.3608   2.0000                                                             
     2  0  0.50      -533.1368   2.0000                                                             
     2  1  1.50      -440.5031   6.0000                                                             
     3  0  0.50       -59.3186   2.0000                                                             
     3  1  1.50       -35.7012   6.0000                                                             
     3  2  2.50        -1.9157   3.0000                                                             
     4  0  0.50        -3.7291   1.0000                                                             
     4  3  2.50        -1.3606   0.0000                                                             
   Description                                                                                      
     l       E           TYP  RCUT    TYP  RCUT                                                     
     1    -35.7012140     23  2.300                                                                 
     1     -1.3605826     23  2.300                                                                 
     2     -1.9156996     23  2.500                                                                 
     2     -0.4063033     23  2.500                                                                 
     0     -3.7290856     23  2.500                                                                 
     0     20.4087390     23  2.500                                                                 
  local pseudopotential read in
  partial core-charges read in
  partial kinetic energy density read in
  atomic valenz-charges read in
  non local Contribution for L=            1  read in
    real space projection operators read in
  non local Contribution for L=            1  read in
    real space projection operators read in
  non local Contribution for L=            2  read in
    real space projection operators read in
  non local Contribution for L=            2  read in
    real space projection operators read in
  non local Contribution for L=            0  read in
    real space projection operators read in
  non local Contribution for L=            0  read in
    real space projection operators read in
    PAW grid and wavefunctions read in
 
   number of l-projection  operators is LMAX  =            6
   number of lm-projection operators is LMMAX =           18
 
 POTCAR:    PAW_PBE O 08Apr2002                   
   SHA256 =  818f92134a0a090dccd8ba1447fa70422a3b330e708bb4f08108d8ae51209ddf O/POTCAR              
   COPYR  = (c) Copyright 08Apr2002 Georg Kresse                                                    
   COPYR  = This file is part of the software VASP. Any use, copying, and all other rights are regul
   COPYR  = If you do not have a valid VASP license, you may not use, copy or distribute this file. 
   VRHFIN =O: s2p4                                                                                  
   LEXCH  = PE                                                                                      
   EATOM  =   432.3788 eV,   31.7789 Ry                                                             
                                                                                                    
   TITEL  = PAW_PBE O 08Apr2002                                                                     
   LULTRA =        F    use ultrasoft PP ?                                                          
   IUNSCR =        1    unscreen: 0-lin 1-nonlin 2-no                                               
   RPACOR =    1.200    partial core radius                                                         
   POMASS =   16.000; ZVAL   =    6.000    mass and valenz                                          
   RCORE  =    1.520    outmost cutoff radius                                                       
   RWIGS  =    1.550; RWIGS  =    0.820    wigner-seitz radius (au A)                               
   ENMAX  =  400.000; ENMIN  =  300.000 eV                                                          
   ICORE  =        2    local potential                                                             
   LCOR   =        T    correct aug charges                                                         
   LPAW   =        T    paw PP                                                                      
   EAUG   =  605.392                                                                                
   DEXC   =    0.000                                                                                
   RMAX   =    1.553    core radius for proj-oper                                                   
   RAUG   =    1.300    factor for augmentation sphere                                              
   RDEP   =    1.550    radius for radial grids                                                     
   RDEPT  =    1.329    core radius for aug-charge                                                  
                                                                                                    
   Atomic configuration                                                                             
    4 entries                                                                                       
     n  l   j            E        occ.                                                              
     1  0  0.50      -514.6923   2.0000                                                             
     2  0  0.50       -23.9615   2.0000                                                             
     2  1  0.50        -9.0305   4.0000                                                             
     3  2  1.50        -9.5241   0.0000                                                             
   Description                                                                                      
     l       E           TYP  RCUT    TYP  RCUT                                                     
     0    -23.9615318     23  1.200                                                                 
     0     -9.5240782     23  1.200                                                                 
     1     -9.0304911     23  1.520                                                                 
     1      8.1634956     23  1.520                                                                 
     2     -9.5240782      7  1.500                                                                 
  local pseudopotential read in
  partial core-charges read in
  partial kinetic energy density read in
  kinetic energy density of atom read in
  atomic valenz-charges read in
  non local Contribution for L=            0  read in
    real space projection operators read in
  non local Contribution for L=            0  read in
    real space projection operators read in
  non local Contribution for L=            1  read in
    real space projection operators read in
  non local Contribution for L=            1  read in
    real space projection operators read in
    PAW grid and wavefunctions read in
 
   number of l-projection  operators is LMAX  =            4
   number of lm-projection operators is LMMAX =            8
 
 Optimization of the real space projectors (new method)

 maximal supplied QI-value         = 25.13
 optimisation between [QCUT,QGAM] = [ 11.56, 23.12] = [ 37.43,149.72] Ry 
 Optimized for a Real-space Cutoff    1.04 Angstroem

   l    n(q)    QCUT    max X(q) W(low)/X(q) W(high)/X(q)  e(spline) 
   0      7    11.561   115.676    0.20E-03    0.60E-03    0.21E-06
   0      7    11.561    87.132    0.20E-03    0.59E-03    0.21E-06
   1      7    11.561     4.429    0.23E-03    0.35E-03    0.15E-06
   1      7    11.561     2.733    0.18E-03    0.25E-03    0.12E-06
 Optimization of the real space projectors (new method)

 maximal supplied QI-value         = 24.76
 optimisation between [QCUT,QGAM] = [ 11.64, 23.27] = [ 37.91,151.63] Ry 
 Optimized for a Real-space Cutoff    1.04 Angstroem

   l    n(q)    QCUT    max X(q) W(low)/X(q) W(high)/X(q)  e(spline) 
   0      7    11.635    20.381    0.14E-03    0.49E-03    0.18E-06
   0      7    11.635    15.268    0.16E-03    0.52E-03    0.19E-06
   1      7    11.635     5.964    0.30E-03    0.44E-03    0.22E-06
   1      7    11.635     5.382    0.27E-03    0.34E-03    0.19E-06
 Optimization of the real space projectors (new method)

 maximal supplied QI-value         = 34.20
 optimisation between [QCUT,QGAM] = [ 11.63, 23.26] = [ 37.87,151.49] Ry 
 Optimized for a Real-space Cutoff    1.14 Angstroem

   l    n(q)    QCUT    max X(q) W(low)/X(q) W(high)/X(q)  e(spline) 
   0      8    11.629    19.460    0.27E-03    0.65E-03    0.17E-06
   0      8    11.629    12.209    0.25E-03    0.62E-03    0.16E-06
   1      7    11.629     4.655    0.29E-03    0.85E-04    0.19E-06
 Optimization of the real space projectors (new method)

 maximal supplied QI-value         = 15.12
 optimisation between [QCUT,QGAM] = [ 11.64, 23.28] = [ 37.95,151.78] Ry 
 Optimized for a Real-space Cutoff    1.45 Angstroem

   l    n(q)    QCUT    max X(q) W(low)/X(q) W(high)/X(q)  e(spline) 
   1     10    11.641     4.216    0.33E-04    0.72E-04    0.48E-07
   1     10    11.641     5.422    0.11E-03    0.20E-03    0.10E-06
   2      9    11.641    72.084    0.36E-03    0.27E-03    0.57E-06
   2      9    11.641    65.965    0.35E-03    0.27E-03    0.57E-06
   0     10    11.641    41.531    0.11E-03    0.93E-04    0.16E-06
   0     10    11.641    16.290    0.82E-04    0.72E-04    0.13E-06
 Optimization of the real space projectors (new method)

 maximal supplied QI-value         = 24.76
 optimisation between [QCUT,QGAM] = [ 11.64, 23.27] = [ 37.91,151.63] Ry 
 Optimized for a Real-space Cutoff    1.04 Angstroem

   l    n(q)    QCUT    max X(q) W(low)/X(q) W(high)/X(q)  e(spline) 
   0      7    11.635    20.381    0.14E-03    0.49E-03    0.18E-06
   0      7    11.635    15.268    0.16E-03    0.52E-03    0.19E-06
   1      7    11.635     5.964    0.30E-03    0.44E-03    0.22E-06
   1      7    11.635     5.382    0.27E-03    0.34E-03    0.19E-06
  PAW_PBE C 08Apr2002                   :
 energy of atom  1       EATOM= -147.1560
 kinetic energy error for atom=    0.0071 (will be added to EATOM!!)
  PAW_PBE O 08Apr2002                   :
 energy of atom  2       EATOM= -432.3788
 kinetic energy error for atom=    0.0208 (will be added to EATOM!!)
  PAW_PBE H 15Jun2001                   :
 energy of atom  3       EATOM=  -12.4884
 kinetic energy error for atom=    0.0014 (will be added to EATOM!!)
  PAW_PBE Ti_pv 07Sep2000               :
 energy of atom  4       EATOM=-1042.5995
 kinetic energy error for atom=    0.0019 (will be added to EATOM!!)
  PAW_PBE O 08Apr2002                   :
 energy of atom  5       EATOM= -432.3788
 kinetic energy error for atom=    0.0208 (will be added to EATOM!!)
 
 
 POSCAR:  C  O  H Ti  O
  positions in direct lattice
  No initial velocities read in
 exchange correlation table for  LEXCH =        8
   RHO(1)=    0.500       N(1)  =     2000
   RHO(2)=  100.500       N(2)  =     4000
 


--------------------------------------------------------------------------------------------------------


 ion  position               nearest neighbor table
   1  0.510  0.588  0.825-   3 1.09   5 1.10   6 1.10   2 1.45
   2  0.539  0.498  0.789-   4 1.00   1 1.45  86 2.18
   3  0.427  0.597  0.823-   1 1.09
   4  0.615  0.493  0.787-   2 1.00
   5  0.534  0.564  0.866-   1 1.10
   6  0.549  0.667  0.814-   1 1.10
   7  0.750  0.625  0.185-  88 1.95 148 1.95 147 1.95  87 1.95  90 1.98 169 1.98  17 2.96  37 2.96

   8  0.000  0.750  0.185-  89 1.95  90 1.95 109 1.95 110 1.95  91 1.98  38 2.96  18 2.96
   9  0.000  0.625  0.315-  91 1.95 151 1.95  92 1.95 152 1.95  94 1.98  93 1.98  19 2.96  39 2.96

  10  0.750  0.750  0.315-  93 1.95 113 1.95 174 1.95 194 1.95  95 1.98  88 1.98  20 2.96  40 2.96

  11  0.750  0.625  0.445-  95 1.95  96 1.95 155 1.95 156 1.95  98 1.98 177 1.98  21 2.96  41 2.96

  12  0.000  0.750  0.445-  97 1.95  98 1.95 117 1.95 118 1.95  92 1.98  99 2.00  22 2.96  42 2.96

  13  0.007  0.625  0.572- 102 1.87 159 1.90  99 1.90 100 2.02 160 2.02 101 2.03  23 2.96  43 2.96

  14  0.756  0.750  0.580- 103 1.87 101 1.93 121 1.93 182 2.01 202 2.01  96 2.09  24 2.96  44 2.96

  15  0.751  0.626  0.713- 104 1.83 164 1.87 185 2.00 106 2.02 103 2.08 163 2.09  25 2.95  45 2.99

  16  1.000  0.750  0.699- 100 1.81 125 1.94 126 1.94 105 1.95 106 1.96  26 2.95  46 2.96
  17  0.750  0.875  0.185-  88 1.95 108 1.95 107 1.95  87 1.95 110 1.98 189 1.98   7 2.96  27 2.96

  18  0.000  0.000  0.185- 109 1.95 110 1.95 129 1.95 130 1.95 111 1.98  28 2.96   8 2.96
  19  0.000  0.875  0.315-  91 1.95 111 1.95  92 1.95 112 1.95 114 1.98 113 1.98   9 2.96  29 2.96

  20  0.750  0.000  0.315- 113 1.95 133 1.95 194 1.95 214 1.95 115 1.98 108 1.98  10 2.96  30 2.96

  21  0.750  0.875  0.445-  95 1.95  96 1.95 115 1.95 116 1.95 118 1.98 197 1.98  11 2.96  31 2.96

  22  0.000  0.000  0.445- 117 1.95 118 1.95 137 1.95 138 1.95 112 1.98 119 2.00  12 2.96  32 2.96

  23  0.007  0.875  0.572- 122 1.87  99 1.90 119 1.90 120 2.02 100 2.02 121 2.04  33 2.96  13 2.96

  24  0.756  0.000  0.580- 123 1.87 121 1.93 141 1.93 222 2.01 202 2.02 116 2.10  34 2.96  14 2.96

  25  0.750  0.875  0.714- 124 1.84 104 1.84 205 2.02 126 2.04 103 2.09 123 2.09  15 2.95  35 2.95

  26  0.000  1.000  0.699- 120 1.81 126 1.95 146 1.95 145 1.95 125 1.95  16 2.95  36 2.95
  27  0.750  0.125  0.185- 108 1.95 128 1.95 127 1.95 107 1.95 130 1.98 209 1.98  17 2.96  37 2.96

  28  0.000  0.250  0.185- 129 1.95 130 1.95 149 1.95 150 1.95 131 1.98  38 2.96  18 2.96
  29  0.000  0.125  0.315- 111 1.95 131 1.95 112 1.95 132 1.95 134 1.98 133 1.98  19 2.96  39 2.96

  30  0.750  0.250  0.315- 133 1.95 153 1.95 214 1.95 234 1.95 135 1.98 128 1.98  20 2.96  40 2.96

  31  0.750  0.125  0.445- 115 1.95 116 1.95 135 1.95 136 1.95 138 1.98 217 1.98  21 2.96  41 2.96

  32  0.000  0.250  0.445- 137 1.95 138 1.95 157 1.95 158 1.95 132 1.98 139 2.00  22 2.96  42 2.96

  33  0.007  0.125  0.572- 142 1.86 139 1.90 119 1.90 120 2.02 140 2.02 141 2.04  23 2.96  43 2.96

  34  0.756  0.250  0.579- 143 1.87 141 1.93 161 1.93 222 2.01 242 2.01 136 2.09  24 2.96  44 2.96

  35  0.750  0.124  0.714- 124 1.83 144 1.84 225 2.02 146 2.04 123 2.09 143 2.10  45 2.95  25 2.95

  36  0.000  0.250  0.699- 140 1.81 145 1.94 146 1.94 165 1.95 166 1.96  26 2.95  46 2.96
  37  0.750  0.375  0.185- 128 1.95 148 1.95 147 1.95 127 1.95 150 1.98 229 1.98   7 2.96  27 2.96

  38  0.000  0.500  0.185-  89 1.95  90 1.95 149 1.95 150 1.95 151 1.98  28 2.96   8 2.96
  39  0.000  0.375  0.315- 131 1.95 151 1.95 132 1.95 152 1.95 154 1.98 153 1.98   9 2.96  29 2.96

  40  0.750  0.500  0.315-  93 1.95 153 1.95 174 1.95 234 1.95 155 1.98 148 1.98  10 2.96  30 2.96

  41  0.750  0.375  0.445- 135 1.95 136 1.95 155 1.95 156 1.95 158 1.98 237 1.98  11 2.96  31 2.96

  42  0.000  0.500  0.445-  97 1.95  98 1.95 157 1.95 158 1.95 152 1.98 159 2.00  12 2.96  32 2.96

  43  0.007  0.375  0.572- 162 1.87 159 1.90 139 1.90 140 2.02 160 2.02 161 2.03  33 2.96  13 2.96

  44  0.756  0.500  0.580- 163 1.86 161 1.93 101 1.93 242 2.02 182 2.02 156 2.10  14 2.96  34 2.96

  45  0.751  0.373  0.713- 144 1.83 164 1.87 166 2.01 245 2.02 143 2.06 163 2.10  35 2.95  15 2.99

  46  0.001  0.500  0.699- 160 1.81 165 1.94 105 1.94 106 1.95 166 1.95  16 2.96  36 2.96
  47  0.250  0.625  0.185- 168 1.95 228 1.95 227 1.95 167 1.95  89 1.98 170 1.98  57 2.96  77 2.96

  48  0.500  0.750  0.185- 169 1.95 170 1.95 189 1.95 190 1.95 171 1.98  78 2.96  58 2.96
  49  0.500  0.625  0.315- 171 1.95 231 1.95 172 1.95 232 1.95 174 1.98 173 1.98  59 2.96  79 2.96

  50  0.250  0.750  0.315- 173 1.95 193 1.95  94 1.95 114 1.95 175 1.98 168 1.98  60 2.96  80 2.96

  51  0.250  0.625  0.445- 175 1.95 176 1.95 235 1.95 236 1.95  97 1.98 178 1.98  61 2.96  81 2.96

  52  0.500  0.750  0.445- 177 1.95 178 1.95 197 1.95 198 1.95 172 1.98 179 1.99  62 2.96  82 2.96

  53  0.507  0.623  0.574- 182 1.88 239 1.90 179 1.93 240 1.98 180 2.01 181 2.04  83 2.90  63 2.97

  54  0.256  0.750  0.580- 183 1.87 181 1.92 201 1.92 102 2.02 122 2.02 176 2.10  84 2.96  64 2.96

  55  0.250  0.625  0.714- 184 1.83 244 1.84 105 2.03 186 2.04 183 2.09 243 2.09  65 2.96  85 2.96

  56  0.501  0.750  0.698- 180 1.80 185 1.91 186 1.94 205 1.95 206 1.96  66 2.96  86 2.97
  57  0.250  0.875  0.185- 168 1.95 188 1.95 187 1.95 167 1.95 109 1.98 190 1.98  47 2.96  67 2.96

  58  0.500  0.000  0.185- 189 1.95 190 1.95 209 1.95 210 1.95 191 1.98  68 2.96  48 2.96
  59  0.500  0.875  0.315- 171 1.95 191 1.95 172 1.95 192 1.95 194 1.98 193 1.98  49 2.96  69 2.96

  60  0.250  0.000  0.315- 193 1.95 213 1.95 114 1.95 134 1.95 195 1.98 188 1.98  50 2.96  70 2.96

  61  0.250  0.875  0.445- 175 1.95 176 1.95 195 1.95 196 1.95 117 1.98 198 1.98  51 2.96  71 2.96

  62  0.500  0.000  0.445- 197 1.95 198 1.95 217 1.95 218 1.95 192 1.98 199 1.98  52 2.96  72 2.96

  63  0.507  0.874  0.571- 202 1.88 179 1.88 199 1.90 180 2.00 200 2.03 201 2.04  53 2.97  73 2.98

  64  0.256  1.000  0.580- 203 1.86 201 1.92 221 1.92 142 2.02 122 2.02 196 2.11  54 2.96  74 2.96

  65  0.251  0.875  0.714- 204 1.83 184 1.84 206 2.02 125 2.04 203 2.10 183 2.10  55 2.96  75 2.96

  66  0.499  1.000  0.698- 200 1.80 206 1.94 226 1.94 225 1.96 205 1.96  76 2.95  56 2.96
  67  0.250  0.125  0.185- 188 1.95 208 1.95 207 1.95 187 1.95 129 1.98 210 1.98  57 2.96  77 2.96

  68  0.500  0.250  0.185- 209 1.95 210 1.95 229 1.95 230 1.95 211 1.98  78 2.96  58 2.96
  69  0.500  0.125  0.315- 191 1.95 211 1.95 192 1.95 212 1.95 214 1.98 213 1.98  59 2.96  79 2.96

  70  0.250  0.250  0.315- 213 1.95 233 1.95 134 1.95 154 1.95 215 1.98 208 1.98  60 2.96  80 2.96

  71  0.250  0.125  0.445- 195 1.95 196 1.95 215 1.95 216 1.95 137 1.98 218 1.98  61 2.96  81 2.96

  72  0.500  0.250  0.445- 217 1.95 218 1.95 237 1.95 238 1.95 212 1.98 219 1.99  62 2.96  82 2.96

  73  0.507  0.126  0.571- 222 1.88 219 1.88 199 1.90 220 2.00 200 2.03 221 2.04  83 2.97  63 2.98

  74  0.256  0.250  0.580- 223 1.86 241 1.92 221 1.93 162 2.02 142 2.02 216 2.11  84 2.96  64 2.96

  75  0.251  0.125  0.714- 204 1.83 224 1.84 226 2.02 145 2.04 223 2.10 203 2.10  65 2.96  85 2.96

  76  0.501  0.250  0.698- 220 1.80 245 1.92 246 1.94 225 1.95 226 1.96  66 2.95  86 2.96
  77  0.250  0.375  0.185- 208 1.95 228 1.95 227 1.95 207 1.95 149 1.98 230 1.98  47 2.96  67 2.96

  78  0.500  0.500  0.185- 169 1.95 170 1.95 229 1.95 230 1.95 231 1.98  68 2.96  48 2.96
  79  0.500  0.375  0.315- 211 1.95 231 1.95 212 1.95 232 1.95 234 1.98 233 1.98  49 2.96  69 2.96

  80  0.250  0.500  0.315- 173 1.95 233 1.95  94 1.95 154 1.95 235 1.98 228 1.98  50 2.96  70 2.96

  81  0.250  0.375  0.445- 215 1.95 216 1.95 235 1.95 236 1.95 157 1.98 238 1.98  51 2.96  71 2.96

  82  0.500  0.500  0.445- 177 1.95 178 1.95 237 1.95 238 1.95 232 1.98 239 2.00  52 2.96  72 2.96

  83  0.507  0.377  0.574- 242 1.88 239 1.90 219 1.94 240 1.98 220 2.01 241 2.04  53 2.90  73 2.97

  84  0.256  0.500  0.580- 243 1.86 181 1.92 241 1.93 162 2.02 102 2.02 236 2.11  74 2.96  54 2.96

  85  0.250  0.375  0.714- 224 1.83 244 1.84 165 2.03 246 2.03 223 2.10 243 2.10  75 2.96  55 2.96

  86  0.501  0.499  0.704- 240 1.91 246 1.93 186 1.94 245 1.96 185 1.99   2 2.18  76 2.96  56 2.97

  87  0.750  0.750  0.134-   7 1.95  17 1.95
  88  0.750  0.750  0.236-   7 1.95  17 1.95  10 1.98
  89  0.098  0.625  0.185-   8 1.95  38 1.95  47 1.98
  90  0.902  0.625  0.185-   8 1.95  38 1.95   7 1.98
  91  0.000  0.750  0.264-   9 1.95  19 1.95   8 1.98
  92  0.000  0.750  0.366-   9 1.95  19 1.95  12 1.98
  93  0.848  0.625  0.315-  10 1.95  40 1.95   9 1.98
  94  0.152  0.625  0.315-  50 1.95  80 1.95   9 1.98
  95  0.750  0.750  0.394-  11 1.95  21 1.95  10 1.98
  96  0.750  0.750  0.496-  11 1.95  21 1.95  14 2.09
  97  0.098  0.625  0.445-  12 1.95  42 1.95  51 1.98
  98  0.902  0.625  0.445-  12 1.95  42 1.95  11 1.98
  99  0.001  0.750  0.525-  23 1.90  13 1.90  12 2.00
 100  1.000  0.750  0.627-  16 1.81  13 2.02  23 2.02
 101  0.851  0.625  0.575-  14 1.93  44 1.93  13 2.03
 102  0.150  0.625  0.576-  13 1.87  84 2.02  54 2.02
 103  0.754  0.751  0.654-  14 1.87  15 2.08  25 2.09
 104  0.749  0.749  0.757-  15 1.83  25 1.84
 105  0.095  0.625  0.712-  46 1.94  16 1.95  55 2.03
 106  0.906  0.624  0.713-  46 1.95  16 1.96  15 2.02
 107  0.750  0.000  0.134-  17 1.95  27 1.95
 108  0.750  0.000  0.236-  17 1.95  27 1.95  20 1.98
 109  0.098  0.875  0.185-   8 1.95  18 1.95  57 1.98
 110  0.902  0.875  0.185-   8 1.95  18 1.95  17 1.98
 111  0.000  0.000  0.264-  19 1.95  29 1.95  18 1.98
 112  0.000  0.000  0.366-  19 1.95  29 1.95  22 1.98
 113  0.848  0.875  0.315-  10 1.95  20 1.95  19 1.98
 114  0.152  0.875  0.315-  50 1.95  60 1.95  19 1.98
 115  0.750  0.000  0.394-  21 1.95  31 1.95  20 1.98
 116  0.750  0.000  0.496-  21 1.95  31 1.95  24 2.10
 117  0.098  0.875  0.445-  12 1.95  22 1.95  61 1.98
 118  0.902  0.875  0.445-  12 1.95  22 1.95  21 1.98
 119  0.001  0.000  0.525-  33 1.90  23 1.90  22 2.00
 120  0.000  0.000  0.627-  26 1.81  33 2.02  23 2.02
 121  0.851  0.876  0.575-  24 1.93  14 1.93  23 2.04
 122  0.150  0.875  0.576-  23 1.87  54 2.02  64 2.02
 123  0.751  0.000  0.655-  24 1.87  35 2.09  25 2.09
 124  0.750  1.000  0.758-  35 1.83  25 1.84
 125  0.094  0.875  0.712-  16 1.94  26 1.95  65 2.04
 126  0.906  0.875  0.713-  16 1.94  26 1.95  25 2.04
 127  0.750  0.250  0.134-  27 1.95  37 1.95
 128  0.750  0.250  0.236-  27 1.95  37 1.95  30 1.98
 129  0.098  0.125  0.185-  18 1.95  28 1.95  67 1.98
 130  0.902  0.125  0.185-  18 1.95  28 1.95  27 1.98
 131  0.000  0.250  0.264-  29 1.95  39 1.95  28 1.98
 132  0.000  0.250  0.366-  29 1.95  39 1.95  32 1.98
 133  0.848  0.125  0.315-  20 1.95  30 1.95  29 1.98
 134  0.152  0.125  0.315-  60 1.95  70 1.95  29 1.98
 135  0.750  0.250  0.394-  31 1.95  41 1.95  30 1.98
 136  0.750  0.250  0.496-  31 1.95  41 1.95  34 2.09
 137  0.098  0.125  0.445-  22 1.95  32 1.95  71 1.98
 138  0.902  0.125  0.445-  22 1.95  32 1.95  31 1.98
 139  0.001  0.250  0.525-  43 1.90  33 1.90  32 2.00
 140  0.000  0.250  0.627-  36 1.81  43 2.02  33 2.02
 141  0.851  0.125  0.576-  24 1.93  34 1.93  33 2.04
 142  0.150  0.125  0.576-  33 1.86  64 2.02  74 2.02
 143  0.753  0.250  0.654-  34 1.87  45 2.06  35 2.10
 144  0.749  0.251  0.757-  45 1.83  35 1.84
 145  0.094  0.125  0.712-  36 1.94  26 1.95  75 2.04
 146  0.906  0.125  0.712-  36 1.94  26 1.95  35 2.04
 147  0.750  0.500  0.134-   7 1.95  37 1.95
 148  0.750  0.500  0.236-   7 1.95  37 1.95  40 1.98
 149  0.098  0.375  0.185-  28 1.95  38 1.95  77 1.98
 150  0.902  0.375  0.185-  28 1.95  38 1.95  37 1.98
 151  0.000  0.500  0.264-   9 1.95  39 1.95  38 1.98
 152  0.000  0.500  0.366-   9 1.95  39 1.95  42 1.98
 153  0.848  0.375  0.315-  30 1.95  40 1.95  39 1.98
 154  0.152  0.375  0.315-  70 1.95  80 1.95  39 1.98
 155  0.750  0.500  0.394-  11 1.95  41 1.95  40 1.98
 156  0.750  0.500  0.496-  11 1.95  41 1.95  44 2.10
 157  0.098  0.375  0.445-  32 1.95  42 1.95  81 1.98
 158  0.902  0.375  0.445-  32 1.95  42 1.95  41 1.98
 159  0.001  0.500  0.525-  43 1.90  13 1.90  42 2.00
 160  0.000  0.500  0.627-  46 1.81  13 2.02  43 2.02
 161  0.851  0.375  0.575-  34 1.93  44 1.93  43 2.03
 162  0.150  0.375  0.576-  43 1.87  84 2.02  74 2.02
 163  0.755  0.500  0.654-  44 1.86  15 2.09  45 2.10
 164  0.740  0.500  0.757-  15 1.87  45 1.87
 165  0.095  0.375  0.712-  46 1.94  36 1.95  85 2.03
 166  0.906  0.376  0.713-  46 1.95  36 1.96  45 2.01
 167  0.250  0.750  0.134-  47 1.95  57 1.95
 168  0.250  0.750  0.236-  47 1.95  57 1.95  50 1.98
 169  0.598  0.625  0.185-  48 1.95  78 1.95   7 1.98
 170  0.402  0.625  0.185-  48 1.95  78 1.95  47 1.98
 171  0.500  0.750  0.264-  49 1.95  59 1.95  48 1.98
 172  0.500  0.750  0.366-  49 1.95  59 1.95  52 1.98
 173  0.348  0.625  0.315-  50 1.95  80 1.95  49 1.98
 174  0.652  0.625  0.315-  10 1.95  40 1.95  49 1.98
 175  0.250  0.750  0.394-  51 1.95  61 1.95  50 1.98
 176  0.250  0.750  0.496-  51 1.95  61 1.95  54 2.10
 177  0.598  0.625  0.445-  52 1.95  82 1.95  11 1.98
 178  0.402  0.625  0.445-  52 1.95  82 1.95  51 1.98
 179  0.501  0.749  0.524-  63 1.88  53 1.93  52 1.99
 180  0.498  0.752  0.626-  56 1.80  63 2.00  53 2.01
 181  0.350  0.625  0.576-  54 1.92  84 1.92  53 2.04
 182  0.651  0.625  0.576-  53 1.88  14 2.01  44 2.02
 183  0.251  0.750  0.655-  54 1.87  55 2.09  65 2.10
 184  0.251  0.750  0.758-  55 1.83  65 1.84
 185  0.597  0.630  0.706-  56 1.91  86 1.99  15 2.00
 186  0.408  0.626  0.713-  86 1.94  56 1.94  55 2.04
 187  0.250  0.000  0.134-  57 1.95  67 1.95
 188  0.250  0.000  0.236-  57 1.95  67 1.95  60 1.98
 189  0.598  0.875  0.185-  48 1.95  58 1.95  17 1.98
 190  0.402  0.875  0.185-  48 1.95  58 1.95  57 1.98
 191  0.500  0.000  0.264-  59 1.95  69 1.95  58 1.98
 192  0.500  0.000  0.366-  59 1.95  69 1.95  62 1.98
 193  0.348  0.875  0.315-  50 1.95  60 1.95  59 1.98
 194  0.652  0.875  0.315-  10 1.95  20 1.95  59 1.98
 195  0.250  0.000  0.394-  61 1.95  71 1.95  60 1.98
 196  0.250  0.000  0.496-  61 1.95  71 1.95  64 2.11
 197  0.598  0.875  0.445-  52 1.95  62 1.95  21 1.98
 198  0.402  0.875  0.445-  52 1.95  62 1.95  61 1.98
 199  0.500  0.000  0.524-  63 1.90  73 1.90  62 1.98
 200  0.500  1.000  0.626-  66 1.80  63 2.03  73 2.03
 201  0.350  0.875  0.575-  64 1.92  54 1.92  63 2.04
 202  0.651  0.875  0.576-  63 1.88  14 2.01  24 2.02
 203  0.250  1.000  0.654-  64 1.86  65 2.10  75 2.10
 204  0.250  0.000  0.757-  65 1.83  75 1.83
 205  0.595  0.875  0.711-  56 1.95  66 1.96  25 2.02
 206  0.406  0.876  0.712-  66 1.94  56 1.96  65 2.02
 207  0.250  0.250  0.134-  67 1.95  77 1.95
 208  0.250  0.250  0.236-  67 1.95  77 1.95  70 1.98
 209  0.598  0.125  0.185-  58 1.95  68 1.95  27 1.98
 210  0.402  0.125  0.185-  58 1.95  68 1.95  67 1.98
 211  0.500  0.250  0.264-  69 1.95  79 1.95  68 1.98
 212  0.500  0.250  0.366-  69 1.95  79 1.95  72 1.98
 213  0.348  0.125  0.315-  60 1.95  70 1.95  69 1.98
 214  0.652  0.125  0.315-  20 1.95  30 1.95  69 1.98
 215  0.250  0.250  0.394-  71 1.95  81 1.95  70 1.98
 216  0.250  0.250  0.496-  71 1.95  81 1.95  74 2.11
 217  0.598  0.125  0.445-  62 1.95  72 1.95  31 1.98
 218  0.402  0.125  0.445-  62 1.95  72 1.95  71 1.98
 219  0.501  0.251  0.525-  73 1.88  83 1.94  72 1.99
 220  0.499  0.248  0.626-  76 1.80  73 2.00  83 2.01
 221  0.350  0.125  0.575-  64 1.92  74 1.93  73 2.04
 222  0.651  0.125  0.576-  73 1.88  34 2.01  24 2.01
 223  0.250  0.250  0.654-  74 1.86  75 2.10  85 2.10
 224  0.251  0.250  0.757-  85 1.83  75 1.84
 225  0.595  0.125  0.711-  76 1.95  66 1.96  35 2.02
 226  0.406  0.124  0.712-  66 1.94  76 1.96  75 2.02
 227  0.250  0.500  0.134-  47 1.95  77 1.95
 228  0.250  0.500  0.236-  47 1.95  77 1.95  80 1.98
 229  0.598  0.375  0.185-  68 1.95  78 1.95  37 1.98
 230  0.402  0.375  0.185-  68 1.95  78 1.95  77 1.98
 231  0.500  0.500  0.264-  49 1.95  79 1.95  78 1.98
 232  0.500  0.500  0.366-  49 1.95  79 1.95  82 1.98
 233  0.348  0.375  0.315-  70 1.95  80 1.95  79 1.98
 234  0.652  0.375  0.315-  30 1.95  40 1.95  79 1.98
 235  0.250  0.500  0.394-  51 1.95  81 1.95  80 1.98
 236  0.250  0.500  0.496-  51 1.95  81 1.95  84 2.11
 237  0.598  0.375  0.445-  72 1.95  82 1.95  41 1.98
 238  0.402  0.375  0.445-  72 1.95  82 1.95  81 1.98
 239  0.501  0.500  0.525-  53 1.90  83 1.90  82 2.00
 240  0.500  0.500  0.628-  86 1.91  53 1.98  83 1.98
 241  0.350  0.375  0.576-  74 1.92  84 1.93  83 2.04
 242  0.651  0.375  0.576-  83 1.88  34 2.01  44 2.02
 243  0.250  0.500  0.655-  84 1.86  55 2.09  85 2.10
 244  0.252  0.500  0.757-  85 1.84  55 1.84
 245  0.597  0.371  0.707-  76 1.92  86 1.96  45 2.02
 246  0.407  0.374  0.711-  86 1.93  76 1.94  85 2.03
 

IMPORTANT INFORMATION: All symmetrisations will be switched off!
NOSYMM: (Re-)initialisation of all symmetry stuff for point group C_1.


----------------------------------------------------------------------------------------

                                     Primitive cell                                     

  volume of cell :    3846.0501

  direct lattice vectors                    reciprocal lattice vectors
    13.003980404  0.000000000  0.000000000     0.076899531  0.000000000  0.000000000
     0.000000000 11.830378115  0.000000000     0.000000000  0.084528152  0.000000000
     0.000000000  0.000000000 25.000000000     0.000000000  0.000000000  0.040000000

  length of vectors
    13.003980404 11.830378115 25.000000000     0.076899531  0.084528152  0.040000000

  position of ions in fractional coordinates (direct lattice)
     0.510341709  0.587960969  0.825486788
     0.538682103  0.497718066  0.789040016
     0.426752452  0.597317826  0.823436931
     0.615385514  0.493008596  0.787324489
     0.533741134  0.564413803  0.866202358
     0.548755556  0.667398809  0.814179363
     0.750010663  0.625004961  0.184773010
     0.000010663  0.750004961  0.184773010
     0.000010663  0.625004961  0.314812814
     0.750010663  0.750004961  0.314812814
     0.750010663  0.625004961  0.444852618
     0.000010663  0.750004961  0.444852618
     0.007004437  0.625078947  0.572008516
     0.756144220  0.750119383  0.579538884
     0.750770416  0.625802808  0.712619678
     0.999989337  0.750346962  0.699268567
     0.750010663  0.875004961  0.184773010
     0.000010663  0.000004961  0.184773010
     0.000010663  0.875004961  0.314812814
     0.750010663  0.000004961  0.314812814
     0.750010663  0.875004961  0.444852618
     0.000010663  0.000004961  0.444852618
     0.007115791  0.875054039  0.572076102
     0.755710742  0.000055089  0.579920543
     0.749639513  0.874945154  0.713922526
     0.000259023  0.999950542  0.699228467
     0.750010663  0.125004961  0.184773010
     0.000010663  0.250004961  0.184773010
     0.000010663  0.125004961  0.314812814
     0.750010663  0.250004961  0.314812814
     0.750010663  0.125004961  0.444852618
     0.000010663  0.250004961  0.444852618
     0.007282824  0.124972857  0.572087558
     0.756031323  0.249874285  0.579456177
     0.749601559  0.124221820  0.713929795
     0.000202769  0.249636124  0.699257736
     0.750010663  0.375004961  0.184773010
     0.000010663  0.500004961  0.184773010
     0.000010663  0.375004961  0.314812814
     0.750010663  0.500004961  0.314812814
     0.750010663  0.375004961  0.444852618
     0.000010663  0.500004961  0.444852618
     0.006995650  0.374987490  0.571986700
     0.756370748  0.500013538  0.579738455
     0.751452610  0.373227846  0.712661921
     0.000833076  0.500130655  0.699185531
     0.250010663  0.625004961  0.184773010
     0.500010663  0.750004961  0.184773010
     0.500010663  0.625004961  0.314812814
     0.250010663  0.750004961  0.314812814
     0.250010663  0.625004961  0.444852618
     0.500010663  0.750004961  0.444852618
     0.507173520  0.622679804  0.573626488
     0.256156716  0.749997173  0.579847416
     0.250347362  0.625327763  0.713801464
     0.500769269  0.750133312  0.697680947
     0.250010663  0.875004961  0.184773010
     0.500010663  0.000004961  0.184773010
     0.500010663  0.875004961  0.314812814
     0.250010663  0.000004961  0.314812814
     0.250010663  0.875004961  0.444852618
     0.500010663  0.000004961  0.444852618
     0.507094282  0.874032167  0.570763339
     0.256014811  0.999995039  0.579989833
     0.251050318  0.875168015  0.714037056
     0.499496718  0.999979059  0.697981859
     0.250010663  0.125004961  0.184773010
     0.500010663  0.250004961  0.184773010
     0.500010663  0.125004961  0.314812814
     0.250010663  0.250004961  0.314812814
     0.250010663  0.125004961  0.444852618
     0.500010663  0.250004961  0.444852618
     0.506958443  0.126163007  0.570895784
     0.256070082  0.250144125  0.579975262
     0.250839414  0.125045849  0.713995710
     0.500673653  0.249747165  0.698134615
     0.250010663  0.375004961  0.184773010
     0.500010663  0.500004961  0.184773010
     0.500010663  0.375004961  0.314812814
     0.250010663  0.500004961  0.314812814
     0.250010663  0.375004961  0.444852618
     0.500010663  0.500004961  0.444852618
     0.507145099  0.377369822  0.573855394
     0.255718828  0.500070831  0.580020650
     0.250337365  0.375030427  0.713965551
     0.500767540  0.499475845  0.704030949
     0.750010663  0.750004961  0.133797642
     0.750010663  0.750004961  0.235748378
     0.098010212  0.625004961  0.184773010
     0.902011115  0.625004961  0.184773010
     0.000010663  0.750004961  0.263837446
     0.000010663  0.750004961  0.365788182
     0.848010212  0.625004961  0.314812814
     0.152011115  0.625004961  0.314812814
     0.750010663  0.750004961  0.393877250
     0.750010663  0.750004961  0.495827986
     0.098010212  0.625004961  0.444852618
     0.902011115  0.625004961  0.444852618
     0.000626307  0.750156686  0.524686253
     0.999890718  0.749853986  0.627029978
     0.850916830  0.625295859  0.575083267
     0.150480619  0.625209447  0.575655044
     0.753951644  0.750905754  0.654327742
     0.748505746  0.748915918  0.757174094
     0.094594327  0.625132107  0.712240263
     0.906262223  0.624290135  0.713334191
     0.750010663  0.000004961  0.133797642
     0.750010663  0.000004961  0.235748378
     0.098010212  0.875004961  0.184773010
     0.902011115  0.875004961  0.184773010
     0.000010663  0.000004961  0.263837446
     0.000010663  0.000004961  0.365788182
     0.848010212  0.875004961  0.314812814
     0.152011115  0.875004961  0.314812814
     0.750010663  0.000004961  0.393877250
     0.750010663  0.000004961  0.495827986
     0.098010212  0.875004961  0.444852618
     0.902011115  0.875004961  0.444852618
     0.000693048  0.000031774  0.524703614
     0.000258429  0.000021458  0.626996580
     0.850699561  0.875521257  0.575468865
     0.150474173  0.874891319  0.575766812
     0.750916583  0.000047418  0.654697368
     0.750113421  0.999782465  0.757553790
     0.094393534  0.874554344  0.711947907
     0.906271110  0.875026818  0.712691719
     0.750010663  0.250004961  0.133797642
     0.750010663  0.250004961  0.235748378
     0.098010212  0.125004961  0.184773010
     0.902011115  0.125004961  0.184773010
     0.000010663  0.250004961  0.263837446
     0.000010663  0.250004961  0.365788182
     0.848010212  0.125004961  0.314812814
     0.152011115  0.125004961  0.314812814
     0.750010663  0.250004961  0.393877250
     0.750010663  0.250004961  0.495827986
     0.098010212  0.125004961  0.444852618
     0.902011115  0.125004961  0.444852618
     0.000605122  0.249889140  0.524694914
     0.000056675  0.250196989  0.627036943
     0.850634559  0.124738433  0.575579933
     0.150471179  0.125037219  0.575653146
     0.753124838  0.249800865  0.654371584
     0.749310131  0.250636032  0.757101777
     0.094261433  0.125331551  0.712101841
     0.906216754  0.124984628  0.712446262
     0.750010663  0.500004961  0.133797642
     0.750010663  0.500004961  0.235748378
     0.098010212  0.375004961  0.184773010
     0.902011115  0.375004961  0.184773010
     0.000010663  0.500004961  0.263837446
     0.000010663  0.500004961  0.365788182
     0.848010212  0.375004961  0.314812814
     0.152011115  0.375004961  0.314812814
     0.750010663  0.500004961  0.393877250
     0.750010663  0.500004961  0.495827986
     0.098010212  0.375004961  0.444852618
     0.902011115  0.375004961  0.444852618
     0.000722500  0.500029619  0.524670263
     0.000104201  0.500045008  0.626958558
     0.850901104  0.374722497  0.575117045
     0.150491920  0.374982074  0.575629251
     0.755456779  0.500070458  0.654156474
     0.739616446  0.499864660  0.757236474
     0.094511476  0.375098146  0.712233725
     0.906298461  0.375729531  0.713304168
     0.250010663  0.750004961  0.133797642
     0.250010663  0.750004961  0.235748378
     0.598010212  0.625004961  0.184773010
     0.402011115  0.625004961  0.184773010
     0.500010663  0.750004961  0.263837446
     0.500010663  0.750004961  0.365788182
     0.348010212  0.625004961  0.314812814
     0.652011115  0.625004961  0.314812814
     0.250010663  0.750004961  0.393877250
     0.250010663  0.750004961  0.495827986
     0.598010212  0.625004961  0.444852618
     0.402011115  0.625004961  0.444852618
     0.500827712  0.748799538  0.524456115
     0.498069375  0.751636801  0.625718408
     0.350083496  0.624924698  0.575598680
     0.651300050  0.625314899  0.576288103
     0.251310422  0.749739219  0.654521760
     0.250934322  0.749846350  0.757500153
     0.597229522  0.629841731  0.705781677
     0.407577943  0.625646483  0.712787633
     0.250010663  0.000004961  0.133797642
     0.250010663  0.000004961  0.235748378
     0.598010212  0.875004961  0.184773010
     0.402011115  0.875004961  0.184773010
     0.500010663  0.000004961  0.263837446
     0.500010663  0.000004961  0.365788182
     0.348010212  0.875004961  0.314812814
     0.652011115  0.875004961  0.314812814
     0.250010663  0.000004961  0.393877250
     0.250010663  0.000004961  0.495827986
     0.598010212  0.875004961  0.444852618
     0.402011115  0.875004961  0.444852618
     0.500422516  0.000158555  0.524118136
     0.500323822  0.999959150  0.626038241
     0.350156394  0.875264268  0.575250250
     0.650987451  0.874855526  0.575542391
     0.250408695  0.999975610  0.654490529
     0.249750850  0.000050229  0.757451871
     0.594541146  0.874914553  0.711425773
     0.406104217  0.875997644  0.711836570
     0.250010663  0.250004961  0.133797642
     0.250010663  0.250004961  0.235748378
     0.598010212  0.125004961  0.184773010
     0.402011115  0.125004961  0.184773010
     0.500010663  0.250004961  0.263837446
     0.500010663  0.250004961  0.365788182
     0.348010212  0.125004961  0.314812814
     0.652011115  0.125004961  0.314812814
     0.250010663  0.250004961  0.393877250
     0.250010663  0.250004961  0.495827986
     0.598010212  0.125004961  0.444852618
     0.402011115  0.125004961  0.444852618
     0.500752402  0.251378486  0.524594806
     0.499136633  0.248435587  0.626076189
     0.350253649  0.124923089  0.575430718
     0.651022950  0.125190086  0.575512039
     0.250320932  0.249990894  0.654481515
     0.250706852  0.250251892  0.757397816
     0.594588828  0.124801980  0.711480224
     0.406018044  0.124349687  0.711673459
     0.250010663  0.500004961  0.133797642
     0.250010663  0.500004961  0.235748378
     0.598010212  0.375004961  0.184773010
     0.402011115  0.375004961  0.184773010
     0.500010663  0.500004961  0.263837446
     0.500010663  0.500004961  0.365788182
     0.348010212  0.375004961  0.314812814
     0.652011115  0.375004961  0.314812814
     0.250010663  0.500004961  0.393877250
     0.250010663  0.500004961  0.495827986
     0.598010212  0.375004961  0.444852618
     0.402011115  0.375004961  0.444852618
     0.500918371  0.499902299  0.524926019
     0.499956620  0.500356070  0.627589559
     0.350142348  0.375062356  0.575851124
     0.651274130  0.374994700  0.576261986
     0.250227622  0.500347526  0.654535532
     0.252078539  0.500251088  0.757395720
     0.596699290  0.371481052  0.707003926
     0.406538645  0.374101435  0.711108178

  ion indices of the primitive-cell ions
   primitive index   ion index
                 1           1
                 2           2
                 3           3
                 4           4
                 5           5
                 6           6
                 7           7
                 8           8
                 9           9
                10          10
                11          11
                12          12
                13          13
                14          14
                15          15
                16          16
                17          17
                18          18
                19          19
                20          20
                21          21
                22          22
                23          23
                24          24
                25          25
                26          26
                27          27
                28          28
                29          29
                30          30
                31          31
                32          32
                33          33
                34          34
                35          35
                36          36
                37          37
                38          38
                39          39
                40          40
                41          41
                42          42
                43          43
                44          44
                45          45
                46          46
                47          47
                48          48
                49          49
                50          50
                51          51
                52          52
                53          53
                54          54
                55          55
                56          56
                57          57
                58          58
                59          59
                60          60
                61          61
                62          62
                63          63
                64          64
                65          65
                66          66
                67          67
                68          68
                69          69
                70          70
                71          71
                72          72
                73          73
                74          74
                75          75
                76          76
                77          77
                78          78
                79          79
                80          80
                81          81
                82          82
                83          83
                84          84
                85          85
                86          86
                87          87
                88          88
                89          89
                90          90
                91          91
                92          92
                93          93
                94          94
                95          95
                96          96
                97          97
                98          98
                99          99
               100         100
               101         101
               102         102
               103         103
               104         104
               105         105
               106         106
               107         107
               108         108
               109         109
               110         110
               111         111
               112         112
               113         113
               114         114
               115         115
               116         116
               117         117
               118         118
               119         119
               120         120
               121         121
               122         122
               123         123
               124         124
               125         125
               126         126
               127         127
               128         128
               129         129
               130         130
               131         131
               132         132
               133         133
               134         134
               135         135
               136         136
               137         137
               138         138
               139         139
               140         140
               141         141
               142         142
               143         143
               144         144
               145         145
               146         146
               147         147
               148         148
               149         149
               150         150
               151         151
               152         152
               153         153
               154         154
               155         155
               156         156
               157         157
               158         158
               159         159
               160         160
               161         161
               162         162
               163         163
               164         164
               165         165
               166         166
               167         167
               168         168
               169         169
               170         170
               171         171
               172         172
               173         173
               174         174
               175         175
               176         176
               177         177
               178         178
               179         179
               180         180
               181         181
               182         182
               183         183
               184         184
               185         185
               186         186
               187         187
               188         188
               189         189
               190         190
               191         191
               192         192
               193         193
               194         194
               195         195
               196         196
               197         197
               198         198
               199         199
               200         200
               201         201
               202         202
               203         203
               204         204
               205         205
               206         206
               207         207
               208         208
               209         209
               210         210
               211         211
               212         212
               213         213
               214         214
               215         215
               216         216
               217         217
               218         218
               219         219
               220         220
               221         221
               222         222
               223         223
               224         224
               225         225
               226         226
               227         227
               228         228
               229         229
               230         230
               231         231
               232         232
               233         233
               234         234
               235         235
               236         236
               237         237
               238         238
               239         239
               240         240
               241         241
               242         242
               243         243
               244         244
               245         245
               246         246

----------------------------------------------------------------------------------------

 
 
 KPOINTS: pymatgen v2020.8.13 with grid density = 

Automatic generation of k-mesh.
 Grid dimensions read from file:
 generate k-points for:    2    2    1

 Generating k-lattice:

  Cartesian coordinates                     Fractional coordinates (reciprocal lattice)
     0.038449766  0.000000000  0.000000000     0.500000000  0.000000000  0.000000000
     0.000000000  0.042264076  0.000000000     0.000000000  0.500000000  0.000000000
     0.000000000  0.000000000  0.040000000     0.000000000  0.000000000  1.000000000

  Length of vectors
     0.038449766  0.042264076  0.040000000

  Shift w.r.t. Gamma in fractional coordinates (k-lattice)
     0.000000000  0.000000000  0.000000000

 
 Subroutine IBZKPT returns following result:
 ===========================================
 
 Found      4 irreducible k-points:
 
 Following reciprocal coordinates:
            Coordinates               Weight
  0.000000  0.000000  0.000000      1.000000
  0.500000  0.000000  0.000000      1.000000
  0.000000  0.500000  0.000000      1.000000
  0.500000  0.500000  0.000000      1.000000
 
 Following cartesian coordinates:
            Coordinates               Weight
  0.000000  0.000000  0.000000      1.000000
  0.038450  0.000000  0.000000      1.000000
  0.000000  0.042264  0.000000      1.000000
  0.038450  0.042264  0.000000      1.000000
 


--------------------------------------------------------------------------------------------------------




 Dimension of arrays:
   k-points           NKPTS =      4   k-points in BZ     NKDIM =      4   number of bands    NBANDS=   1064
   number of dos      NEDOS =    301   number of ions     NIONS =    246
   non local maximal  LDIM  =      6   non local SUM 2l+1 LMDIM =     18
   total plane-waves  NPLWV = 784000
   max r-space proj   IRMAX =   2630   max aug-charges    IRDMAX=   8113
   dimension x,y,z NGX =    80 NGY =   70 NGZ =  140
   dimension x,y,z NGXF=   160 NGYF=  140 NGZF=  280
   support grid    NGXF=   160 NGYF=  140 NGZF=  280
   ions per type =               1   1   4  80 160
   NGX,Y,Z   is equivalent  to a cutoff of  10.23,  9.84,  9.31 a.u.
   NGXF,Y,Z  is equivalent  to a cutoff of  20.45, 19.67, 18.62 a.u.

 SYSTEM =  Oxide-Surface                           
 POSCAR =   C  O  H Ti  O                          

--------------------------------------------------------------------------------------------------------


  energy-cutoff  :      520.00
  volume of cell :     3846.05
      direct lattice vectors                 reciprocal lattice vectors
    13.003980404  0.000000000  0.000000000     0.076899531  0.000000000  0.000000000
     0.000000000 11.830378115  0.000000000     0.000000000  0.084528152  0.000000000
     0.000000000  0.000000000 25.000000000     0.000000000  0.000000000  0.040000000

  length of vectors
    13.003980404 11.830378115 25.000000000     0.076899531  0.084528152  0.040000000


 
 k-points in units of 2pi/SCALE and weight: pymatgen v2020.8.13 with grid density = 
   0.00000000  0.00000000  0.00000000       0.250
   0.03844977  0.00000000  0.00000000       0.250
   0.00000000  0.04226408  0.00000000       0.250
   0.03844977  0.04226408  0.00000000       0.250
 
 k-points in reciprocal lattice and weights: pymatgen v2020.8.13 with grid density = 
   0.00000000  0.00000000  0.00000000       0.250
   0.50000000  0.00000000  0.00000000       0.250
   0.00000000  0.50000000  0.00000000       0.250
   0.50000000  0.50000000  0.00000000       0.250
 
 position of ions in fractional coordinates (direct lattice) 
   0.51034171  0.58796097  0.82548679
   0.53868210  0.49771807  0.78904002
   0.42675245  0.59731783  0.82343693
   0.61538551  0.49300860  0.78732449
   0.53374113  0.56441380  0.86620236
   0.54875556  0.66739881  0.81417936
   0.75001066  0.62500496  0.18477301
   0.00001066  0.75000496  0.18477301
   0.00001066  0.62500496  0.31481281
   0.75001066  0.75000496  0.31481281
   0.75001066  0.62500496  0.44485262
   0.00001066  0.75000496  0.44485262
   0.00700444  0.62507895  0.57200852
   0.75614422  0.75011938  0.57953888
   0.75077042  0.62580281  0.71261968
   0.99998934  0.75034696  0.69926857
   0.75001066  0.87500496  0.18477301
   0.00001066  0.00000496  0.18477301
   0.00001066  0.87500496  0.31481281
   0.75001066  0.00000496  0.31481281
   0.75001066  0.87500496  0.44485262
   0.00001066  0.00000496  0.44485262
   0.00711579  0.87505404  0.57207610
   0.75571074  0.00005509  0.57992054
   0.74963951  0.87494515  0.71392253
   0.00025902  0.99995054  0.69922847
   0.75001066  0.12500496  0.18477301
   0.00001066  0.25000496  0.18477301
   0.00001066  0.12500496  0.31481281
   0.75001066  0.25000496  0.31481281
   0.75001066  0.12500496  0.44485262
   0.00001066  0.25000496  0.44485262
   0.00728282  0.12497286  0.57208756
   0.75603132  0.24987428  0.57945618
   0.74960156  0.12422182  0.71392979
   0.00020277  0.24963612  0.69925774
   0.75001066  0.37500496  0.18477301
   0.00001066  0.50000496  0.18477301
   0.00001066  0.37500496  0.31481281
   0.75001066  0.50000496  0.31481281
   0.75001066  0.37500496  0.44485262
   0.00001066  0.50000496  0.44485262
   0.00699565  0.37498749  0.57198670
   0.75637075  0.50001354  0.57973846
   0.75145261  0.37322785  0.71266192
   0.00083308  0.50013065  0.69918553
   0.25001066  0.62500496  0.18477301
   0.50001066  0.75000496  0.18477301
   0.50001066  0.62500496  0.31481281
   0.25001066  0.75000496  0.31481281
   0.25001066  0.62500496  0.44485262
   0.50001066  0.75000496  0.44485262
   0.50717352  0.62267980  0.57362649
   0.25615672  0.74999717  0.57984742
   0.25034736  0.62532776  0.71380146
   0.50076927  0.75013331  0.69768095
   0.25001066  0.87500496  0.18477301
   0.50001066  0.00000496  0.18477301
   0.50001066  0.87500496  0.31481281
   0.25001066  0.00000496  0.31481281
   0.25001066  0.87500496  0.44485262
   0.50001066  0.00000496  0.44485262
   0.50709428  0.87403217  0.57076334
   0.25601481  0.99999504  0.57998983
   0.25105032  0.87516801  0.71403706
   0.49949672  0.99997906  0.69798186
   0.25001066  0.12500496  0.18477301
   0.50001066  0.25000496  0.18477301
   0.50001066  0.12500496  0.31481281
   0.25001066  0.25000496  0.31481281
   0.25001066  0.12500496  0.44485262
   0.50001066  0.25000496  0.44485262
   0.50695844  0.12616301  0.57089578
   0.25607008  0.25014413  0.57997526
   0.25083941  0.12504585  0.71399571
   0.50067365  0.24974717  0.69813462
   0.25001066  0.37500496  0.18477301
   0.50001066  0.50000496  0.18477301
   0.50001066  0.37500496  0.31481281
   0.25001066  0.50000496  0.31481281
   0.25001066  0.37500496  0.44485262
   0.50001066  0.50000496  0.44485262
   0.50714510  0.37736982  0.57385539
   0.25571883  0.50007083  0.58002065
   0.25033737  0.37503043  0.71396555
   0.50076754  0.49947585  0.70403095
   0.75001066  0.75000496  0.13379764
   0.75001066  0.75000496  0.23574838
   0.09801021  0.62500496  0.18477301
   0.90201112  0.62500496  0.18477301
   0.00001066  0.75000496  0.26383745
   0.00001066  0.75000496  0.36578818
   0.84801021  0.62500496  0.31481281
   0.15201112  0.62500496  0.31481281
   0.75001066  0.75000496  0.39387725
   0.75001066  0.75000496  0.49582799
   0.09801021  0.62500496  0.44485262
   0.90201112  0.62500496  0.44485262
   0.00062631  0.75015669  0.52468625
   0.99989072  0.74985399  0.62702998
   0.85091683  0.62529586  0.57508327
   0.15048062  0.62520945  0.57565504
   0.75395164  0.75090575  0.65432774
   0.74850575  0.74891592  0.75717409
   0.09459433  0.62513211  0.71224026
   0.90626222  0.62429014  0.71333419
   0.75001066  0.00000496  0.13379764
   0.75001066  0.00000496  0.23574838
   0.09801021  0.87500496  0.18477301
   0.90201112  0.87500496  0.18477301
   0.00001066  0.00000496  0.26383745
   0.00001066  0.00000496  0.36578818
   0.84801021  0.87500496  0.31481281
   0.15201112  0.87500496  0.31481281
   0.75001066  0.00000496  0.39387725
   0.75001066  0.00000496  0.49582799
   0.09801021  0.87500496  0.44485262
   0.90201112  0.87500496  0.44485262
   0.00069305  0.00003177  0.52470361
   0.00025843  0.00002146  0.62699658
   0.85069956  0.87552126  0.57546887
   0.15047417  0.87489132  0.57576681
   0.75091658  0.00004742  0.65469737
   0.75011342  0.99978246  0.75755379
   0.09439353  0.87455434  0.71194791
   0.90627111  0.87502682  0.71269172
   0.75001066  0.25000496  0.13379764
   0.75001066  0.25000496  0.23574838
   0.09801021  0.12500496  0.18477301
   0.90201112  0.12500496  0.18477301
   0.00001066  0.25000496  0.26383745
   0.00001066  0.25000496  0.36578818
   0.84801021  0.12500496  0.31481281
   0.15201112  0.12500496  0.31481281
   0.75001066  0.25000496  0.39387725
   0.75001066  0.25000496  0.49582799
   0.09801021  0.12500496  0.44485262
   0.90201112  0.12500496  0.44485262
   0.00060512  0.24988914  0.52469491
   0.00005668  0.25019699  0.62703694
   0.85063456  0.12473843  0.57557993
   0.15047118  0.12503722  0.57565315
   0.75312484  0.24980087  0.65437158
   0.74931013  0.25063603  0.75710178
   0.09426143  0.12533155  0.71210184
   0.90621675  0.12498463  0.71244626
   0.75001066  0.50000496  0.13379764
   0.75001066  0.50000496  0.23574838
   0.09801021  0.37500496  0.18477301
   0.90201112  0.37500496  0.18477301
   0.00001066  0.50000496  0.26383745
   0.00001066  0.50000496  0.36578818
   0.84801021  0.37500496  0.31481281
   0.15201112  0.37500496  0.31481281
   0.75001066  0.50000496  0.39387725
   0.75001066  0.50000496  0.49582799
   0.09801021  0.37500496  0.44485262
   0.90201112  0.37500496  0.44485262
   0.00072250  0.50002962  0.52467026
   0.00010420  0.50004501  0.62695856
   0.85090110  0.37472250  0.57511705
   0.15049192  0.37498207  0.57562925
   0.75545678  0.50007046  0.65415647
   0.73961645  0.49986466  0.75723647
   0.09451148  0.37509815  0.71223372
   0.90629846  0.37572953  0.71330417
   0.25001066  0.75000496  0.13379764
   0.25001066  0.75000496  0.23574838
   0.59801021  0.62500496  0.18477301
   0.40201112  0.62500496  0.18477301
   0.50001066  0.75000496  0.26383745
   0.50001066  0.75000496  0.36578818
   0.34801021  0.62500496  0.31481281
   0.65201112  0.62500496  0.31481281
   0.25001066  0.75000496  0.39387725
   0.25001066  0.75000496  0.49582799
   0.59801021  0.62500496  0.44485262
   0.40201112  0.62500496  0.44485262
   0.50082771  0.74879954  0.52445611
   0.49806937  0.75163680  0.62571841
   0.35008350  0.62492470  0.57559868
   0.65130005  0.62531490  0.57628810
   0.25131042  0.74973922  0.65452176
   0.25093432  0.74984635  0.75750015
   0.59722952  0.62984173  0.70578168
   0.40757794  0.62564648  0.71278763
   0.25001066  0.00000496  0.13379764
   0.25001066  0.00000496  0.23574838
   0.59801021  0.87500496  0.18477301
   0.40201112  0.87500496  0.18477301
   0.50001066  0.00000496  0.26383745
   0.50001066  0.00000496  0.36578818
   0.34801021  0.87500496  0.31481281
   0.65201112  0.87500496  0.31481281
   0.25001066  0.00000496  0.39387725
   0.25001066  0.00000496  0.49582799
   0.59801021  0.87500496  0.44485262
   0.40201112  0.87500496  0.44485262
   0.50042252  0.00015855  0.52411814
   0.50032382  0.99995915  0.62603824
   0.35015639  0.87526427  0.57525025
   0.65098745  0.87485553  0.57554239
   0.25040869  0.99997561  0.65449053
   0.24975085  0.00005023  0.75745187
   0.59454115  0.87491455  0.71142577
   0.40610422  0.87599764  0.71183657
   0.25001066  0.25000496  0.13379764
   0.25001066  0.25000496  0.23574838
   0.59801021  0.12500496  0.18477301
   0.40201112  0.12500496  0.18477301
   0.50001066  0.25000496  0.26383745
   0.50001066  0.25000496  0.36578818
   0.34801021  0.12500496  0.31481281
   0.65201112  0.12500496  0.31481281
   0.25001066  0.25000496  0.39387725
   0.25001066  0.25000496  0.49582799
   0.59801021  0.12500496  0.44485262
   0.40201112  0.12500496  0.44485262
   0.50075240  0.25137849  0.52459481
   0.49913663  0.24843559  0.62607619
   0.35025365  0.12492309  0.57543072
   0.65102295  0.12519009  0.57551204
   0.25032093  0.24999089  0.65448151
   0.25070685  0.25025189  0.75739782
   0.59458883  0.12480198  0.71148022
   0.40601804  0.12434969  0.71167346
   0.25001066  0.50000496  0.13379764
   0.25001066  0.50000496  0.23574838
   0.59801021  0.37500496  0.18477301
   0.40201112  0.37500496  0.18477301
   0.50001066  0.50000496  0.26383745
   0.50001066  0.50000496  0.36578818
   0.34801021  0.37500496  0.31481281
   0.65201112  0.37500496  0.31481281
   0.25001066  0.50000496  0.39387725
   0.25001066  0.50000496  0.49582799
   0.59801021  0.37500496  0.44485262
   0.40201112  0.37500496  0.44485262
   0.50091837  0.49990230  0.52492602
   0.49995662  0.50035607  0.62758956
   0.35014235  0.37506236  0.57585112
   0.65127413  0.37499470  0.57626199
   0.25022762  0.50034753  0.65453553
   0.25207854  0.50025109  0.75739572
   0.59669929  0.37148105  0.70700393
   0.40653865  0.37410143  0.71110818
 
 position of ions in cartesian coordinates  (Angst):
   6.63647359  6.95580058 20.63716969
   7.00501151  5.88819291 19.72600040
   5.54948052  7.06649573 20.58592327
   8.00246117  5.83247810 19.68311221
   6.94075924  6.67722871 21.65505896
   7.13600650  7.89558026 20.35448407
   9.75312397  7.39404502  4.61932524
   0.00013867  8.87284228  4.61932524
   0.00013867  7.39404502  7.87032034
   9.75312397  8.87284228  7.87032034
   9.75312397  7.39404502 11.12131545
   0.00013867  8.87284228 11.12131545
   0.09108556  7.39492030 14.30021291
   9.83288462  8.87419593 14.48847209
   9.76300378  7.40348384 17.81549195
  13.00384174  8.87688827 17.48171418
   9.75312397 10.35163954  4.61932524
   0.00013867  0.00005869  4.61932524
   0.00013867 10.35163954  7.87032034
   9.75312397  0.00005869  7.87032034
   9.75312397 10.35163954 11.12131545
   0.00013867  0.00005869 11.12131545
   0.09253360 10.35222015 14.30190254
   9.82724769  0.00065173 14.49801358
   9.74829754 10.35093200 17.84806314
   0.00336833 11.82979301 17.48071167
   9.75312397  1.47885596  4.61932524
   0.00013867  2.95765322  4.61932524
   0.00013867  1.47885596  7.87032034
   9.75312397  2.95765322  7.87032034
   9.75312397  1.47885596 11.12131545
   0.00013867  2.95765322 11.12131545
   0.09470570  1.47847615 14.30218895
   9.83141650  2.95610727 14.48640442
   9.74780399  1.46959111 17.84824487
   0.00263680  2.95328974 17.48144339
   9.75312397  4.43645049  4.61932524
   0.00013867  5.91524775  4.61932524
   0.00013867  4.43645049  7.87032034
   9.75312397  5.91524775  7.87032034
   9.75312397  4.43645049 11.12131545
   0.00013867  5.91524775 11.12131545
   0.09097130  4.43624379 14.29966749
   9.83583038  5.91534922 14.49346138
   9.77187501  4.41542654 17.81654803
   0.01083330  5.91673475 17.47963829
   3.25113377  7.39404502  4.61932524
   6.50212887  8.87284228  4.61932524
   6.50212887  7.39404502  7.87032034
   3.25113377  8.87284228  7.87032034
[...]
      9.74780      1.46959     17.84824         0.008633     -0.002168      0.001131
      0.00264      2.95329     17.48144         0.003104      0.007687      0.073136
      9.75312      4.43645      4.61933        -0.000198     -0.003503     -3.475982
      0.00014      5.91525      4.61933         0.002468     -0.001068      2.745797
      0.00014      4.43645      7.87032         0.005477     -0.000387      0.523508
      9.75312      5.91525      7.87032        -0.006698      0.000422     -0.725813
      9.75312      4.43645     11.12132        -0.034006      0.028484      0.615434
      0.00014      5.91525     11.12132         0.000132      0.000621     -0.729069
      0.09097      4.43624     14.29967        -0.042558      0.000434      0.091580
      9.83583      5.91535     14.49346        -0.044240      0.000077     -0.045313
      9.77188      4.41543     17.81655         0.017765     -0.000335      0.000188
      0.01083      5.91673     17.47964         0.004547     -0.002744      0.078356
      3.25113      7.39405      4.61933        -0.000438     -0.000260     -3.474634
      6.50213      8.87284      4.61933        -0.002007      0.003908      2.759127
      6.50213      7.39405      7.87032        -0.004920      0.009482      0.550224
      3.25113      8.87284      7.87032         0.007915      0.000704     -0.712263
      3.25113      7.39405     11.12132         0.048466     -0.015019      0.663769
      6.50213      8.87284     11.12132        -0.023439     -0.044122     -0.593387
      6.59527      7.36654     14.34066        -0.039472      0.022803      0.067879
      3.33106      8.87275     14.49619        -0.043575     -0.002904     -0.039062
      3.25551      7.39786     17.84504        -0.004335     -0.002799     -0.003190
      6.51199      8.87436     17.44202        -0.005955      0.021437      0.089809
      3.25113     10.35164      4.61933         0.000422      0.004853     -3.477249
      6.50213      0.00006      4.61933        -0.001718      0.002275      2.753621
      6.50213     10.35164      7.87032        -0.005189     -0.000564      0.550439
      3.25113      0.00006      7.87032         0.008214      0.000320     -0.712672
      3.25113     10.35164     11.12132         0.039041      0.013480      0.662587
      6.50213      0.00006     11.12132        -0.029092     -0.000319     -0.785905
      6.59424     10.34013     14.26908        -0.041742      0.008433      0.084428
      3.32921     11.83032     14.49975        -0.048354      0.003080     -0.039092
      3.26465     10.35357     17.85093         0.000651      0.004540     -0.004020
      6.49545     11.83013     17.44955         0.006387      0.003006      0.080272
      3.25113      1.47886      4.61933         0.000889     -0.001278     -3.479001
      6.50213      2.95765      4.61933        -0.002026     -0.003605      2.754007
      6.50213      1.47886      7.87032        -0.005527     -0.001338      0.548522
      3.25113      2.95765      7.87032         0.007694     -0.000572     -0.710707
      3.25113      1.47886     11.12132         0.038677     -0.000703      0.672176
      6.50213      2.95765     11.12132        -0.026315      0.046325     -0.578780
      6.59248      1.49256     14.27239        -0.038751     -0.007802      0.085146
      3.32993      2.95930     14.49938        -0.046470     -0.000296     -0.038731
      3.26191      1.47934     17.84989         0.002338      0.001717     -0.002442
      6.51075      2.95460     17.45337        -0.005887     -0.021201      0.075524
      3.25113      4.43645      4.61933         0.000091     -0.002992     -3.476481
      6.50213      5.91525      4.61933        -0.002172     -0.002242      2.760365
      6.50213      4.43645      7.87032        -0.005277     -0.007269      0.548541
      3.25113      5.91525      7.87032         0.007499     -0.000156     -0.710956
      3.25113      4.43645     11.12132         0.048683      0.001684      0.673003
      6.50213      5.91525     11.12132        -0.021897     -0.001417     -0.624253
      6.59490      4.46443     14.34638        -0.041466     -0.021133      0.066178
      3.32536      5.91603     14.50052        -0.038183     -0.000786     -0.039893
      3.25538      4.43675     17.84914        -0.002897     -0.006789     -0.005111
      6.51197      5.90899     17.60077        -0.000439     -0.009656      0.094804
      9.75312      8.87284      3.34494        -0.001223     -0.002308      1.791824
      9.75312      8.87284      5.89371         0.000933     -0.001130      1.742382
      1.27452      7.39405      4.61933        -1.849360     -0.001088     -0.788456
     11.72973      7.39405      4.61933         1.847180     -0.001142     -0.788618
      0.00014      8.87284      6.59594        -0.000356     -0.000035     -1.380390
      0.00014      8.87284      9.14470         0.000291      0.000240     -0.097378
     11.02751      7.39405      7.87032         0.444286     -0.000667      0.057846
      1.97675      7.39405      7.87032        -0.450110     -0.001660      0.055217
      9.75312      8.87284      9.84693         0.001145     -0.000964     -0.089965
      9.75312      8.87284     12.39570         0.015305      0.005223      0.092895
      1.27452      7.39405     11.12132        -0.476554     -0.004655      0.081644
     11.72973      7.39405     11.12132         0.463027     -0.005928      0.100789
      0.00814      8.87464     13.11716        -0.002410     -0.001282     -0.028722
     13.00256      8.87106     15.67575        -0.003911      0.002626     -0.051480
     11.06531      7.39749     14.37708         0.023275      0.001599     -0.006132
      1.95685      7.39646     14.39138         0.055784      0.006615     -0.002106
      9.80437      8.88350     16.35819        -0.006835     -0.002475      0.052610
      9.73355      8.85996     18.92935         0.002589     -0.000981      0.043267
      1.23010      7.39555     17.80601        -0.022411      0.004825      0.063521
     11.78502      7.38559     17.83335         0.029387      0.007275      0.062419
      9.75312      0.00006      3.34494        -0.000317     -0.001025      1.801952
      9.75312      0.00006      5.89371         0.001105     -0.000371      1.743869
      1.27452     10.35164      4.61933        -1.850341     -0.000702     -0.789088
     11.72973     10.35164      4.61933         1.847818      0.000311     -0.787911
      0.00014      0.00006      6.59594        -0.000348      0.000088     -1.365165
      0.00014      0.00006      9.14470         0.000175     -0.003279     -0.097538
     11.02751     10.35164      7.87032         0.444285      0.000608      0.057863
      1.97675     10.35164      7.87032        -0.449446      0.000348      0.056253
      9.75312      0.00006      9.84693         0.001346      0.003139     -0.093283
      9.75312      0.00006     12.39570         0.003913      0.004633      0.073553
      1.27452     10.35164     11.12132        -0.474722      0.007353      0.079823
     11.72973     10.35164     11.12132         0.463035      0.007285      0.098933
      0.00901      0.00038     13.11759        -0.010879      0.000424     -0.036051
      0.00336      0.00025     15.67491        -0.000661     -0.001355     -0.050948
     11.06248     10.35775     14.38672         0.029055      0.002787     -0.011740
      1.95676     10.35030     14.39417         0.056441     -0.008634     -0.001954
      9.76490      0.00056     16.36743         0.003809     -0.000335      0.048684
      9.75446     11.82780     18.93884         0.000369     -0.004158      0.026808
      1.22749     10.34631     17.79870        -0.017452     -0.001259      0.061584
     11.78513     10.35190     17.81729         0.020927     -0.007911      0.066176
      9.75312      2.95765      3.34494        -0.000482      0.002459      1.795890
      9.75312      2.95765      5.89371         0.000948      0.001364      1.743781
      1.27452      1.47886      4.61933        -1.850121     -0.000696     -0.787510
     11.72973      1.47886      4.61933         1.848109     -0.000648     -0.787514
      0.00014      2.95765      6.59594        -0.000360      0.000338     -1.379956
      0.00014      2.95765      9.14470         0.000020      0.000136     -0.096758
     11.02751      1.47886      7.87032         0.444162     -0.000038      0.057960
      1.97675      1.47886      7.87032        -0.450206     -0.001812      0.055248
      9.75312      2.95765      9.84693         0.001232      0.001318     -0.085866
      9.75312      2.95765     12.39570         0.012440      0.000943      0.106763
      1.27452      1.47886     11.12132        -0.477567     -0.006562      0.079031
     11.72973      1.47886     11.12132         0.460431     -0.005426      0.099877
      0.00787      2.95628     13.11737        -0.004777      0.000961     -0.028942
      0.00074      2.95992     15.67592         0.000700     -0.000626     -0.051829
     11.06164      1.47570     14.38950         0.029651     -0.001194     -0.008658
      1.95672      1.47924     14.39133         0.054927      0.006706     -0.003472
      9.79362      2.95524     16.35929        -0.012319     -0.004876      0.046363
      9.74401      2.96512     18.92754        -0.004607      0.006972      0.040165
      1.22577      1.48272     17.80255        -0.018901      0.000251      0.064274
     11.78442      1.47862     17.81116         0.023561      0.005683      0.059675
      9.75312      5.91525      3.34494        -0.001473      0.001405      1.794567
      9.75312      5.91525      5.89371         0.000963      0.000707      1.742580
      1.27452      4.43645      4.61933        -1.850290      0.000965     -0.789301
     11.72973      4.43645      4.61933         1.847485      0.002047     -0.788222
      0.00014      5.91525      6.59594        -0.000381      0.000229     -1.365722
      0.00014      5.91525      9.14470         0.000170     -0.003294     -0.098227
     11.02751      4.43645      7.87032         0.444106      0.000667      0.057961
      1.97675      4.43645      7.87032        -0.449675      0.000967      0.056073
      9.75312      5.91525      9.84693         0.003501     -0.002179     -0.093428
      9.75312      5.91525     12.39570         0.004181     -0.000471      0.073416
      1.27452      4.43645     11.12132        -0.479521      0.005601      0.081285
     11.72973      4.43645     11.12132         0.460633      0.005818      0.101510
      0.00940      5.91554     13.11676        -0.006935      0.000708     -0.037646
      0.00136      5.91572     15.67396        -0.001380      0.001132     -0.052666
     11.06510      4.43311     14.37793         0.025135     -0.001030     -0.007299
      1.95699      4.43618     14.39073         0.054673     -0.004578     -0.004833
      9.82395      5.91602     16.35391        -0.002432      0.000551      0.055023
      9.61796      5.91359     18.93091         0.013557     -0.011508      0.066779
      1.22903      4.43755     17.80584        -0.024548     -0.001722      0.064189
     11.78549      4.44502     17.83260         0.032286     -0.007738      0.062824
      3.25113      8.87284      3.34494         0.001623     -0.001734      1.793328
      3.25113      8.87284      5.89371        -0.000587     -0.000839      1.740346
      7.77651      7.39405      4.61933        -1.845778     -0.001411     -0.792021
      5.22774      7.39405      4.61933         1.849337     -0.001362     -0.791647
      6.50213      8.87284      6.59594         0.001106     -0.001258     -1.396209
      6.50213      8.87284      9.14470         0.003558     -0.002321     -0.153461
      4.52552      7.39405      7.87032         0.438639     -0.000694      0.054556
      8.47874      7.39405      7.87032        -0.433097     -0.002516      0.055287
      3.25113      8.87284      9.84693        -0.009064      0.000463     -0.108458
      3.25113      8.87284     12.39570        -0.009716      0.000017      0.089274
      7.77651      7.39405     11.12132        -0.415963     -0.032181      0.058902
      5.22774      7.39405     11.12132         0.446182     -0.032603      0.080597
      6.51275      8.85858     13.11140         0.001853     -0.020395     -0.026914
      6.47688      8.89215     15.64296        -0.001508     -0.017390     -0.058829
      4.55248      7.39310     14.38997         0.033188      0.007497     -0.013292
      8.46949      7.39771     14.40720         0.048160     -0.000203     -0.002163
      3.26804      8.86970     16.36304         0.001085      0.002489      0.053528
      3.26315      8.87097     18.93750         0.006978     -0.000941      0.044000
      7.76636      7.45127     17.64454        -0.003665      0.004565      0.011218
      5.30014      7.40163     17.81969        -0.022166      0.018576      0.028730
      3.25113      0.00006      3.34494         0.000797     -0.001134      1.802499
      3.25113      0.00006      5.89371        -0.000653     -0.000545      1.741285
      7.77651     10.35164      4.61933        -1.846627     -0.001299     -0.791581
      5.22774     10.35164      4.61933         1.849388     -0.000222     -0.790171
      6.50213      0.00006      6.59594         0.001147      0.000363     -1.380073
      6.50213      0.00006      9.14470         0.002941     -0.002533     -0.151181
      4.52552     10.35164      7.87032         0.437454      0.000436      0.054523
      8.47874     10.35164      7.87032        -0.431464      0.000814      0.056316
      3.25113      0.00006      9.84693        -0.008562     -0.002130     -0.114367
      3.25113      0.00006     12.39570        -0.018574      0.000806      0.061910
      7.77651     10.35164     11.12132        -0.414878      0.012892      0.072471
      5.22774     10.35164     11.12132         0.439398      0.008127      0.083806
      6.50748      0.00188     13.10295        -0.008056     -0.000314     -0.034572
      6.50620     11.82989     15.65096         0.000833      0.001378     -0.073680
      4.55343     10.35471     14.38126         0.030834     -0.004072     -0.010137
      8.46543     10.34987     14.38856         0.045488     -0.000938     -0.003410
      3.25631     11.83009     16.36226        -0.005436      0.000477      0.047459
      3.24776      0.00059     18.93630         0.003131     -0.001008      0.031662
      7.73140     10.35057     17.78564        -0.010380      0.004657      0.072633
      5.28097     10.36338     17.79591         0.019786     -0.003410      0.064603
      3.25113      2.95765      3.34494         0.000906      0.001885      1.797150
      3.25113      2.95765      5.89371        -0.000594      0.001070      1.740626
      7.77651      1.47886      4.61933        -1.846175     -0.000454     -0.789457
      5.22774      1.47886      4.61933         1.849547     -0.000505     -0.789292
      6.50213      2.95765      6.59594         0.001126      0.001542     -1.394465
      6.50213      2.95765      9.14470         0.003515      0.002869     -0.144663
      4.52552      1.47886      7.87032         0.437945     -0.000439      0.054533
      8.47874      1.47886      7.87032        -0.432278     -0.001508      0.055610
      3.25113      2.95765      9.84693        -0.009306     -0.000009     -0.112458
      3.25113      2.95765     12.39570        -0.007886      0.002078      0.085668
      7.77651      1.47886     11.12132        -0.415005     -0.004251      0.074218
      5.22774      1.47886     11.12132         0.443451     -0.001949      0.083784
      6.51177      2.97390     13.11487        -0.002140      0.015078     -0.028360
      6.49076      2.93909     15.65190        -0.009574      0.011023     -0.053451
      4.55469      1.47789     14.38577         0.030530      0.001845     -0.014914
      8.46589      1.48105     14.38780         0.045112      0.002197     -0.005080
      3.25517      2.95749     16.36204         0.001003     -0.000593      0.047607
      3.26019      2.96057     18.93495         0.008546      0.003725      0.039387
      7.73202      1.47645     17.78701        -0.014047     -0.003057      0.064915
      5.27985      1.47110     17.79184         0.023287     -0.002215      0.064353
      3.25113      5.91525      3.34494         0.001805      0.001509      1.797202
      3.25113      5.91525      5.89371        -0.000530      0.000861      1.740208
      7.77651      4.43645      4.61933        -1.846468      0.001630     -0.792072
      5.22774      4.43645      4.61933         1.849484      0.002667     -0.790601
      6.50213      5.91525      6.59594         0.001106     -0.000009     -1.380397
      6.50213      5.91525      9.14470         0.003343     -0.003889     -0.116243
      4.52552      4.43645      7.87032         0.439104      0.001257      0.054555
      8.47874      4.43645      7.87032        -0.432684      0.001074      0.056421
      3.25113      5.91525      9.84693        -0.010528      0.002514     -0.116029
      3.25113      5.91525     12.39570        -0.009099      0.000306      0.077940
      7.77651      4.43645     11.12132        -0.415440      0.026973      0.059038
      5.22774      4.43645     11.12132         0.449703      0.029644      0.079237
      6.51393      5.91403     13.12315        -0.012831     -0.001655     -0.046576
      6.50143      5.91940     15.68974         0.003976      0.005903     -0.014865
      4.55324      4.43713     14.39628         0.033424     -0.008293     -0.008963
      8.46916      4.43633     14.40655         0.047170      0.001430     -0.000368
      3.25396      5.91930     16.36339         0.001919      0.000271      0.049254
      3.27802      5.91816     18.93489        -0.017597     -0.001097      0.044114
      7.75947      4.39476     17.67510        -0.017779     -0.006683      0.048439
      5.28662      4.42576     17.77770         0.002846     -0.019918      0.047865
 -----------------------------------------------------------------------------------
    total drift:                               -0.020566     -0.010815     -0.035707


--------------------------------------------------------------------------------------------------------



  FREE ENERGIE OF THE ION-ELECTRON SYSTEM (eV)
  ---------------------------------------------------
  free  energy   TOTEN  =     -2185.12778374 eV

  energy  without entropy=    -2185.12778374  energy(sigma->0) =    -2185.12778374
 


--------------------------------------------------------------------------------------------------------


    POTLOK:  cpu time      3.4292: real time      3.4644


--------------------------------------------------------------------------------------------------------


 writing wavefunctions
     LOOP+:  cpu time   1518.5725: real time   1523.0928
    4ORBIT:  cpu time      0.0000: real time      0.0000

 total amount of memory used by VASP MPI-rank0  2112161. kBytes
=======================================================================

   base      :      30000. kBytes
   nonlr-proj:      53579. kBytes
   fftplans  :      56070. kBytes
   grid      :     157606. kBytes
   one-center:       3825. kBytes
   wavefun   :    1811081. kBytes
 
  
  
 General timing and accounting informations for this job:
 ========================================================
  
                  Total CPU time used (sec):     1538.190
                            User time (sec):     1534.398
                          System time (sec):        3.792
                         Elapsed time (sec):     1545.993
  
                   Maximum memory used (kb):     3354584.
                   Average memory used (kb):          N/A
  
                          Minor page faults:       243784
                          Major page faults:            0
                 Voluntary context switches:        28790
