 vasp.6.3.0 20Jan22 (build Apr  1 2022 16:44:48) complex                         
 executed on        HPECrayEX_GCC date 2022.10.10  23:42:14
 running 1024 mpi-ranks, with    1 threads/rank
 distrk:  each k-point on 1024 cores,    1 groups
 distr:  one band on NCORE=   8 cores,  128 groups


--------------------------------------------------------------------------------------------------------


 INCAR:
   SYSTEM = MgO-rocksalt
   ISMEAR = 0
   SIGMA = 0.05
   EDIFF = 1E-6
   ALGO = ALL
   ISTART = 0
   IBRION = -1
   NSW = 0
   ISYM = 0
   DIPOL = 0.5 0.5 0.5
   IDIPOL = 3
   LDIPOL = .TRUE.
   LHFCALC = .TRUE.
   GGA = B5
   AEXX = 0.2
   AGGAX = 0.72
   AGGAC = 0.81
   ALDAC = 0.19
   IVDW = 1
   VDW_S6 = 1.05
   VDW_C6 = 1.75 0.14 0.63 0.70
   VDW_R0 = 1.452 1.001 1.243 1.342
   ENCUT = 600
   PREC = Accurate
   LASPH = .TRUE.
   LREAL = .FALSE.
   ISPIN = 1
   NELM = 200
   NELMIN = 8
   NCORE = 8
   KPAR = 1
   LWAVE = .FALSE.
   LCHARG = .FALSE.

 POTCAR:    PAW_PBE C 08Apr2002                   
 POTCAR:    PAW_PBE H 15Jun2001                   
 POTCAR:    PAW_PBE Mg_pv 13Apr2007               
 POTCAR:    PAW_PBE O 08Apr2002                   
 POTCAR:    PAW_PBE C 08Apr2002                   
   SHA256 =  253f7b50bb8d59471dbedb8285d89021f4a42ed1a2c5d38a03a736e69125dd95 C/POTCAR              
   COPYR  = (c) Copyright 08Apr2002 Georg Kresse                                                    
   COPYR  = This file is part of the software VASP. Any use, copying, and all other rights are regul
   COPYR  = If you do not have a valid VASP license, you may not use, copy or distribute this file. 
   VRHFIN =C: s2p2                                                                                  
   LEXCH  = PE                                                                                      
   EATOM  =   147.1560 eV,   10.8157 Ry                                                             
                                                                                                    
   TITEL  = PAW_PBE C 08Apr2002                                                                     
   LULTRA =        F    use ultrasoft PP ?                                                          
   IUNSCR =        1    unscreen: 0-lin 1-nonlin 2-no                                               
   RPACOR =    1.200    partial core radius                                                         
   POMASS =   12.011; ZVAL   =    4.000    mass and valenz                                          
   RCORE  =    1.500    outmost cutoff radius                                                       
   RWIGS  =    1.630; RWIGS  =    0.863    wigner-seitz radius (au A)                               
   ENMAX  =  400.000; ENMIN  =  300.000 eV                                                          
   ICORE  =        2    local potential                                                             
   LCOR   =        T    correct aug charges                                                         
   LPAW   =        T    paw PP                                                                      
   EAUG   =  644.873                                                                                
   DEXC   =    0.000                                                                                
   RMAX   =    1.529    core radius for proj-oper                                                   
   RAUG   =    1.300    factor for augmentation sphere                                              
   RDEP   =    1.501    radius for radial grids                                                     
   RDEPT  =    1.300    core radius for aug-charge                                                  
                                                                                                    
   Atomic configuration                                                                             
    4 entries                                                                                       
     n  l   j            E        occ.                                                              
     1  0  0.50      -273.3789   2.0000                                                             
     2  0  0.50       -13.7508   2.0000                                                             
     2  1  0.50        -5.2854   2.0000                                                             
     3  2  1.50        -5.4423   0.0000                                                             
   Description                                                                                      
     l       E           TYP  RCUT    TYP  RCUT                                                     
     0    -13.7508458     23  1.200                                                                 
     0     -8.2022199     23  1.200                                                                 
     1     -5.2854383     23  1.500                                                                 
     1     34.0145650     23  1.500                                                                 
     2     -5.4423304      7  1.500                                                                 
  local pseudopotential read in
  partial core-charges read in
  partial kinetic energy density read in
  atomic valenz-charges read in
  non local Contribution for L=           0  read in
    real space projection operators read in
  non local Contribution for L=           0  read in
    real space projection operators read in
  non local Contribution for L=           1  read in
    real space projection operators read in
  non local Contribution for L=           1  read in
    real space projection operators read in
    PAW grid and wavefunctions read in

   number of l-projection  operators is LMAX  =           4
   number of lm-projection operators is LMMAX =           8

 POTCAR:    PAW_PBE H 15Jun2001                   
   SHA256 =  030f79b5d3ab3cf0e668861823c8fb652ff669f3e15e46930bd03bfd63a607b6 H/POTCAR              
   COPYR  = (c) Copyright 15Jun2001 Georg Kresse                                                    
   COPYR  = This file is part of the software VASP. Any use, copying, and all other rights are regul
   COPYR  = If you do not have a valid VASP license, you may not use, copy or distribute this file. 
   VRHFIN =H: ultrasoft test                                                                        
   LEXCH  = PE                                                                                      
   EATOM  =    12.4884 eV,    0.9179 Ry                                                             
                                                                                                    
   TITEL  = PAW_PBE H 15Jun2001                                                                     
   LULTRA =        F    use ultrasoft PP ?                                                          
   IUNSCR =        0    unscreen: 0-lin 1-nonlin 2-no                                               
   RPACOR =    0.000    partial core radius                                                         
   POMASS =    1.000; ZVAL   =    1.000    mass and valenz                                          
   RCORE  =    1.100    outmost cutoff radius                                                       
   RWIGS  =    0.700; RWIGS  =    0.370    wigner-seitz radius (au A)                               
   ENMAX  =  250.000; ENMIN  =  200.000 eV                                                          
   RCLOC  =    0.701    cutoff for local pot                                                        
   LCOR   =        T    correct aug charges                                                         
   LPAW   =        T    paw PP                                                                      
   EAUG   =  400.000                                                                                
   RMAX   =    1.123    core radius for proj-oper                                                   
   RAUG   =    1.200    factor for augmentation sphere                                              
   RDEP   =    1.112    radius for radial grids                                                     
   RDEPT  =    0.926    core radius for aug-charge                                                  
                                                                                                    
   Atomic configuration                                                                             
    2 entries                                                                                       
     n  l   j            E        occ.                                                              
     1  0  0.50        -6.4927   1.0000                                                             
     2  1  0.50        -3.4015   0.0000                                                             
   Description                                                                                      
     l       E           TYP  RCUT    TYP  RCUT                                                     
     0     -6.4927494     23  1.100                                                                 
     0      6.8029130     23  1.100                                                                 
     1     -4.0817478     23  1.100                                                                 
  local pseudopotential read in
  atomic valenz-charges read in
  non local Contribution for L=           0  read in
    real space projection operators read in
  non local Contribution for L=           0  read in
    real space projection operators read in
  non local Contribution for L=           1  read in
    real space projection operators read in
    PAW grid and wavefunctions read in

   number of l-projection  operators is LMAX  =           3
   number of lm-projection operators is LMMAX =           5

 POTCAR:    PAW_PBE Mg_pv 13Apr2007               
   SHA256 =  f474ac0dd33840b9ae76c01d57fea79fdf77cdfbb07d5ade72c65f83c709b62b Mg_pv/POTCAR          
   COPYR  = (c) Copyright 13Apr2007 Georg Kresse                                                    
   COPYR  = This file is part of the software VASP. Any use, copying, and all other rights are regul
   COPYR  = If you do not have a valid VASP license, you may not use, copy or distribute this file. 
   VRHFIN =Mg: p6s2                                                                                 
   LEXCH  = PE                                                                                      
   EATOM  =  1056.7344 eV,   77.6678 Ry                                                             
                                                                                                    
   TITEL  = PAW_PBE Mg_pv 13Apr2007                                                                 
   LULTRA =        F    use ultrasoft PP ?                                                          
   IUNSCR =        1    unscreen: 0-lin 1-nonlin 2-no                                               
   RPACOR =    1.500    partial core radius                                                         
   POMASS =   24.305; ZVAL   =    8.000    mass and valenz                                          
   RCORE  =    2.000    outmost cutoff radius                                                       
   RWIGS  =    2.000; RWIGS  =    1.058    wigner-seitz radius (au A)                               
   ENMAX  =  403.929; ENMIN  =  302.947 eV                                                          
   RCLOC  =    1.506    cutoff for local pot                                                        
   LCOR   =        T    correct aug charges                                                         
   LPAW   =        T    paw PP                                                                      
   EAUG   =  758.780                                                                                
   DEXC   =    0.000                                                                                
   RMAX   =    2.045    core radius for proj-oper                                                   
   RAUG   =    1.300    factor for augmentation sphere                                              
   RDEP   =    2.025    radius for radial grids                                                     
   RDEPT  =    1.557    core radius for aug-charge                                                  
                                                                                                    
   Atomic configuration                                                                             
    5 entries                                                                                       
     n  l   j            E        occ.                                                              
     1  0  0.50     -1259.6230   2.0000                                                             
     2  0  0.50       -79.8442   2.0000                                                             
     2  1  1.50       -46.6121   6.0000                                                             
     3  0  0.50        -4.7055   2.0000                                                             
     3  2  1.50        -1.3606   0.0000                                                             
   Description                                                                                      
     l       E           TYP  RCUT    TYP  RCUT                                                     
     1    -46.6121073     23  1.600                                                                 
     1      2.7211652     23  1.600                                                                 
     0     -4.7054661     23  2.000                                                                 
     0     61.2262170     23  2.000                                                                 
     2     -1.3605826     23  2.000                                                                 
  local pseudopotential read in
  partial core-charges read in
  partial kinetic energy density read in
  atomic valenz-charges read in
  non local Contribution for L=           1  read in
    real space projection operators read in
  non local Contribution for L=           1  read in
    real space projection operators read in
  non local Contribution for L=           0  read in
    real space projection operators read in
  non local Contribution for L=           0  read in
    real space projection operators read in
  non local Contribution for L=           2  read in
    real space projection operators read in
    PAW grid and wavefunctions read in

   number of l-projection  operators is LMAX  =           5
   number of lm-projection operators is LMMAX =          13

 POTCAR:    PAW_PBE O 08Apr2002                   
   SHA256 =  818f92134a0a090dccd8ba1447fa70422a3b330e708bb4f08108d8ae51209ddf O/POTCAR              
   COPYR  = (c) Copyright 08Apr2002 Georg Kresse                                                    
   COPYR  = This file is part of the software VASP. Any use, copying, and all other rights are regul
   COPYR  = If you do not have a valid VASP license, you may not use, copy or distribute this file. 
   VRHFIN =O: s2p4                                                                                  
   LEXCH  = PE                                                                                      
   EATOM  =   432.3788 eV,   31.7789 Ry                                                             
                                                                                                    
   TITEL  = PAW_PBE O 08Apr2002                                                                     
   LULTRA =        F    use ultrasoft PP ?                                                          
   IUNSCR =        1    unscreen: 0-lin 1-nonlin 2-no                                               
   RPACOR =    1.200    partial core radius                                                         
   POMASS =   16.000; ZVAL   =    6.000    mass and valenz                                          
   RCORE  =    1.520    outmost cutoff radius                                                       
   RWIGS  =    1.550; RWIGS  =    0.820    wigner-seitz radius (au A)                               
   ENMAX  =  400.000; ENMIN  =  300.000 eV                                                          
   ICORE  =        2    local potential                                                             
   LCOR   =        T    correct aug charges                                                         
   LPAW   =        T    paw PP                                                                      
   EAUG   =  605.392                                                                                
   DEXC   =    0.000                                                                                
   RMAX   =    1.553    core radius for proj-oper                                                   
   RAUG   =    1.300    factor for augmentation sphere                                              
   RDEP   =    1.550    radius for radial grids                                                     
   RDEPT  =    1.329    core radius for aug-charge                                                  
                                                                                                    
   Atomic configuration                                                                             
    4 entries                                                                                       
     n  l   j            E        occ.                                                              
     1  0  0.50      -514.6923   2.0000                                                             
     2  0  0.50       -23.9615   2.0000                                                             
     2  1  0.50        -9.0305   4.0000                                                             
     3  2  1.50        -9.5241   0.0000                                                             
   Description                                                                                      
     l       E           TYP  RCUT    TYP  RCUT                                                     
     0    -23.9615318     23  1.200                                                                 
     0     -9.5240782     23  1.200                                                                 
     1     -9.0304911     23  1.520                                                                 
     1      8.1634956     23  1.520                                                                 
     2     -9.5240782      7  1.500                                                                 
  local pseudopotential read in
  partial core-charges read in
  partial kinetic energy density read in
  kinetic energy density of atom read in
  atomic valenz-charges read in
  non local Contribution for L=           0  read in
    real space projection operators read in
  non local Contribution for L=           0  read in
    real space projection operators read in
  non local Contribution for L=           1  read in
    real space projection operators read in
  non local Contribution for L=           1  read in
    real space projection operators read in
    PAW grid and wavefunctions read in

   number of l-projection  operators is LMAX  =           4
   number of lm-projection operators is LMMAX =           8

 -----------------------------------------------------------------------------
|                                                                             |
|               ----> ADVICE to this user running VASP <----                  |
|                                                                             |
|     You have a (more or less) 'large supercell' and for larger cells it     |
|     might be more efficient to use real-space projection operators.         |
|     Therefore, try LREAL= Auto in the INCAR file.                           |
|     Mind: For very accurate calculation, you might also keep the            |
|     reciprocal projection scheme (i.e. LREAL=.FALSE.).                      |
|                                                                             |
 -----------------------------------------------------------------------------

 -----------------------------------------------------------------------------
|                                                                             |
|               ----> ADVICE to this user running VASP <----                  |
|                                                                             |
|     You enforced a specific xc type in the INCAR file but a different       |
|     type was found in the POTCAR file.                                      |
|     I HOPE YOU KNOW WHAT YOU ARE DOING!                                     |
|                                                                             |
 -----------------------------------------------------------------------------

  PAW_PBE C 08Apr2002                   :
 energy of atom  1       EATOM= -147.1560
 kinetic energy error for atom=    0.0057 (will be added to EATOM!!)
  PAW_PBE H 15Jun2001                   :
 energy of atom  2       EATOM=  -12.4884
 kinetic energy error for atom=    0.0004 (will be added to EATOM!!)
  PAW_PBE Mg_pv 13Apr2007               :
 energy of atom  3       EATOM=-1056.7344
 kinetic energy error for atom=    0.0221 (will be added to EATOM!!)
  PAW_PBE O 08Apr2002                   :
 energy of atom  4       EATOM= -432.3788
 kinetic energy error for atom=    0.0168 (will be added to EATOM!!)


 POSCAR:  C  H Mg  O
  positions in direct lattice
  No initial velocities read in
 exchange correlation table for  LEXCH =       12
   RHO(1)=    0.500       N(1)  =     2000
   RHO(2)=  100.500       N(2)  =     4000



--------------------------------------------------------------------------------------------------------


 ion  position               nearest neighbor table
   1  0.500  0.500  0.797-   2 1.10   3 1.10   5 1.10   4 1.10
   2  0.500  0.606  0.827-   1 1.10
   3  0.500  0.394  0.827-   1 1.10
   4  0.607  0.500  0.768-   1 1.10
   5  0.393  0.500  0.768-   1 1.10
   6  0.250  0.000  0.352-  38 2.11  40 2.11  41 2.11  48 2.11  57 2.11
   7  0.500  0.250  0.352-  39 2.11  40 2.11  41 2.11  49 2.11  56 2.11
   8  0.250  0.250  0.451-  40 2.11  39 2.11  38 2.11  46 2.11  55 2.11  44 2.12
   9  0.500  0.000  0.451-  41 2.11  39 2.11  38 2.11  47 2.11  54 2.11  45 2.11
  10  0.250  0.000  0.550-  45 2.11  44 2.11  52 2.11  61 2.11  38 2.12  42 2.14
  11  0.500  0.250  0.550-  53 2.11  45 2.11  60 2.11  44 2.11  39 2.12  43 2.13
  12  0.250  0.250  0.648-  44 2.10  42 2.11  43 2.11  59 2.11  50 2.11
  13  0.500  0.000  0.648-  45 2.10  43 2.11  51 2.11  42 2.11  58 2.11
  14  0.250  0.500  0.352-  46 2.11  40 2.11  48 2.11  49 2.11  65 2.11
  15  0.500  0.750  0.352-  47 2.11  41 2.11  48 2.11  49 2.11  64 2.11
  16  0.250  0.750  0.451-  48 2.11  46 2.11  47 2.11  38 2.11  63 2.11  52 2.12
  17  0.500  0.500  0.451-  49 2.11  46 2.11  47 2.11  39 2.11  62 2.11  53 2.12
  18  0.250  0.500  0.550-  53 2.11  52 2.11  44 2.11  69 2.11  46 2.12  50 2.14
  19  0.500  0.750  0.550-  53 2.11  45 2.11  68 2.11  52 2.11  47 2.12  51 2.13
  20  0.250  0.750  0.648-  52 2.10  42 2.11  51 2.11  67 2.11  50 2.11
  21  0.500  0.500  0.649-  43 2.11  51 2.11  53 2.11  50 2.11  66 2.11
  22  0.750  0.000  0.352-  54 2.11  41 2.11  56 2.11  57 2.11  64 2.11
  23  0.000  0.250  0.352-  55 2.11  40 2.11  56 2.11  57 2.11  65 2.11
  24  0.750  0.250  0.451-  56 2.11  54 2.11  55 2.11  39 2.11  62 2.11  60 2.12
  25  0.000  0.000  0.451-  57 2.11  54 2.11  55 2.11  38 2.11  63 2.11  61 2.12
  26  0.750  0.000  0.550-  45 2.11  60 2.11  68 2.11  61 2.11  54 2.12  58 2.14
  27  1.000  0.250  0.550-  60 2.11  44 2.11  61 2.11  69 2.11  55 2.12  59 2.14
  28  0.750  0.250  0.648-  60 2.10  58 2.11  43 2.11  59 2.11  66 2.11
  29  1.000  0.000  0.648-  61 2.10  58 2.11  42 2.11  59 2.11  67 2.11
  30  0.750  0.500  0.352-  62 2.11  56 2.11  49 2.11  64 2.11  65 2.11
  31  0.000  0.750  0.352-  63 2.11  57 2.11  48 2.11  64 2.11  65 2.11
  32  0.750  0.750  0.451-  64 2.11  54 2.11  62 2.11  63 2.11  47 2.11  68 2.12
  33  0.000  0.500  0.451-  65 2.11  55 2.11  62 2.11  63 2.11  46 2.11  69 2.12
  34  0.750  0.500  0.550-  53 2.11  60 2.11  68 2.11  69 2.11  62 2.12  66 2.14
  35  1.000  0.750  0.550-  68 2.11  52 2.11  61 2.11  69 2.11  63 2.12  67 2.14
  36  0.750  0.750  0.648-  68 2.10  58 2.11  51 2.11  67 2.11  66 2.11
  37  1.000  0.500  0.648-  69 2.10  50 2.11  66 2.11  59 2.11  67 2.11
  38  0.250  0.000  0.451-   6 2.11   8 2.11   9 2.11  16 2.11  25 2.11  10 2.12
  39  0.500  0.250  0.451-   7 2.11   8 2.11   9 2.11  17 2.11  24 2.11  11 2.12
  40  0.250  0.250  0.352-   8 2.11   7 2.11   6 2.11  14 2.11  23 2.11
  41  0.500  0.000  0.352-   9 2.11   7 2.11   6 2.11  15 2.11  22 2.11
  42  0.250  0.000  0.650-  12 2.11  20 2.11  29 2.11  13 2.11  10 2.14
  43  0.500  0.250  0.650-  13 2.11  28 2.11  12 2.11  21 2.11  11 2.13
  44  0.250  0.250  0.550-  12 2.10  27 2.11  18 2.11  10 2.11  11 2.11   8 2.12
  45  0.500  0.000  0.550-  13 2.10  10 2.11  26 2.11  19 2.11  11 2.11   9 2.11
  46  0.250  0.500  0.451-  14 2.11   8 2.11  16 2.11  17 2.11  33 2.11  18 2.12
  47  0.500  0.750  0.451-  15 2.11   9 2.11  16 2.11  17 2.11  32 2.11  19 2.12
  48  0.250  0.750  0.352-  16 2.11  14 2.11  15 2.11   6 2.11  31 2.11
  49  0.500  0.500  0.352-  17 2.11  14 2.11  15 2.11   7 2.11  30 2.11
  50  0.250  0.500  0.650-  37 2.11  12 2.11  20 2.11  21 2.11  18 2.14
  51  0.500  0.750  0.650-  13 2.11  36 2.11  20 2.11  21 2.11  19 2.13
  52  0.250  0.750  0.550-  20 2.10  35 2.11  18 2.11  10 2.11  19 2.11  16 2.12
  53  0.500  0.500  0.550-  18 2.11  34 2.11  11 2.11  19 2.11  21 2.11  17 2.12
  54  0.750  0.000  0.451-  22 2.11   9 2.11  24 2.11  25 2.11  32 2.11  26 2.12
  55  0.000  0.250  0.451-  23 2.11   8 2.11  24 2.11  25 2.11  33 2.11  27 2.12
  56  0.750  0.250  0.352-  24 2.11  22 2.11  23 2.11   7 2.11  30 2.11
  57  0.000  0.000  0.352-  25 2.11  22 2.11  23 2.11   6 2.11  31 2.11
  58  0.750  0.000  0.650-  28 2.11  36 2.11  29 2.11  13 2.11  26 2.14
  59  1.000  0.250  0.650-  29 2.11  37 2.11  12 2.11  28 2.11  27 2.14
  60  0.750  0.250  0.550-  28 2.10  27 2.11  34 2.11  26 2.11  11 2.11  24 2.12
  61  1.000  0.000  0.550-  29 2.10  27 2.11  35 2.11  10 2.11  26 2.11  25 2.12
  62  0.750  0.500  0.451-  30 2.11  24 2.11  17 2.11  32 2.11  33 2.11  34 2.12
  63  0.000  0.750  0.451-  31 2.11  25 2.11  16 2.11  32 2.11  33 2.11  35 2.12
  64  0.750  0.750  0.352-  32 2.11  22 2.11  30 2.11  31 2.11  15 2.11
  65  0.000  0.500  0.352-  33 2.11  23 2.11  30 2.11  31 2.11  14 2.11
  66  0.750  0.500  0.650-  37 2.11  36 2.11  28 2.11  21 2.11  34 2.14
  67  1.000  0.750  0.650-  29 2.11  37 2.11  36 2.11  20 2.11  35 2.14
  68  0.750  0.750  0.550-  36 2.10  35 2.11  34 2.11  26 2.11  19 2.11  32 2.12
  69  1.000  0.500  0.550-  37 2.10  27 2.11  35 2.11  34 2.11  18 2.11  33 2.12


IMPORTANT INFORMATION: All symmetrisations will be switched off!
NOSYMM: (Re-)initialisation of all symmetry stuff for point group C_1.


----------------------------------------------------------------------------------------

                                     Primitive cell                                     

  volume of cell :    1519.6535

  direct lattice vectors                    reciprocal lattice vectors
     8.440582262  0.000000000  0.000000000     0.118475239  0.000000000  0.000000000
     0.000000000  8.440582262  0.000000000     0.000000000  0.118475239  0.000000000
     0.000000000  0.000000000 21.330436697     0.000000000  0.000000000  0.046881366

  length of vectors
     8.440582262  8.440582262 21.330436697     0.118475239  0.118475239  0.046881366

  position of ions in fractional coordinates (direct lattice)
     0.500000043  0.500000039  0.797447370
     0.500000077  0.606464350  0.826971269
     0.500000031  0.393535593  0.826971251
     0.607143184  0.500000005  0.768077853
     0.392856886  0.500000051  0.768077864
     0.250000000  0.000000000  0.351610242
     0.500000000  0.250000000  0.351610242
     0.250000000  0.250000000  0.450536747
     0.500000000  0.000000000  0.450536747
     0.250020383  0.000000002  0.549964511
     0.499999995  0.250059851  0.550024624
     0.250059453  0.249849588  0.648270450
     0.499999989  0.000000005  0.648330813
     0.250000000  0.500000000  0.351610242
     0.500000000  0.750000000  0.351610242
     0.250000000  0.750000000  0.450536747
     0.500000000  0.500000000  0.450536747
     0.250073483  0.500000003  0.550017913
     0.499999994  0.749940154  0.550024627
     0.250059451  0.750150420  0.648270445
     0.499999985  0.500000002  0.648823829
     0.750000000  0.000000000  0.351610242
     0.000000000  0.250000000  0.351610242
     0.750000000  0.250000000  0.450536747
     0.000000000  0.000000000  0.450536747
     0.749979604  0.000000004  0.549964510
     0.999999993  0.249994039  0.549974874
     0.749940525  0.249849582  0.648270453
     0.999999988  0.000000003  0.648413763
     0.750000000  0.500000000  0.351610242
     0.000000000  0.750000000  0.351610242
     0.750000000  0.750000000  0.450536747
     0.000000000  0.500000000  0.450536747
     0.749926503  0.500000000  0.550017911
     0.999999993  0.750005964  0.549974872
     0.749940526  0.750150423  0.648270447
     0.999999993  0.500000001  0.648293177
     0.250000000  0.000000000  0.450536747
     0.500000000  0.250000000  0.450536747
     0.250000000  0.250000000  0.351610242
     0.500000000  0.000000000  0.351610242
     0.249967574  0.000000004  0.650232023
     0.499999992  0.249790432  0.650054103
     0.249935855  0.250001082  0.549704381
     0.499999991  0.000000000  0.549674093
     0.250000000  0.500000000  0.450536747
     0.500000000  0.750000000  0.450536747
     0.250000000  0.750000000  0.351610242
     0.500000000  0.500000000  0.351610242
     0.249741506  0.500000004  0.650297624
     0.499999994  0.750209573  0.650054100
     0.249935854  0.749998920  0.549704382
     0.499999993  0.500000002  0.549802910
     0.750000000  0.000000000  0.450536747
     0.000000000  0.250000000  0.450536747
     0.750000000  0.250000000  0.351610242
     0.000000000  0.000000000  0.351610242
     0.750032406  0.000000003  0.650232024
     0.999999991  0.249978599  0.650229220
     0.750064135  0.250001085  0.549704379
     0.999999996  0.000000003  0.549734307
     0.750000000  0.500000000  0.450536747
     0.000000000  0.750000000  0.450536747
     0.750000000  0.750000000  0.351610242
     0.000000000  0.500000000  0.351610242
     0.750258474  0.500000004  0.650297619
     0.999999985  0.750021408  0.650229221
     0.750064133  0.749998918  0.549704381
     0.999999993  0.500000001  0.549711215

  ion indices of the primitive-cell ions
   primitive index   ion index
                 1           1
                 2           2
                 3           3
                 4           4
                 5           5
                 6           6
                 7           7
                 8           8
                 9           9
                10          10
                11          11
                12          12
                13          13
                14          14
                15          15
                16          16
                17          17
                18          18
                19          19
                20          20
                21          21
                22          22
                23          23
                24          24
                25          25
                26          26
                27          27
                28          28
                29          29
                30          30
                31          31
                32          32
                33          33
                34          34
                35          35
                36          36
                37          37
                38          38
                39          39
                40          40
                41          41
                42          42
                43          43
                44          44
                45          45
                46          46
                47          47
                48          48
                49          49
                50          50
                51          51
                52          52
                53          53
                54          54
                55          55
                56          56
                57          57
                58          58
                59          59
                60          60
                61          61
                62          62
                63          63
                64          64
                65          65
                66          66
                67          67
                68          68
                69          69

----------------------------------------------------------------------------------------



 KPOINTS: pymatgen v2020.8.13 with grid density = 

Automatic generation of k-mesh.
 Grid dimensions read from file:
 generate k-points for:    2    2    1

 Generating k-lattice:

  Cartesian coordinates                     Fractional coordinates (reciprocal lattice)
     0.059237619  0.000000000  0.000000000     0.500000000  0.000000000  0.000000000
     0.000000000  0.059237619  0.000000000     0.000000000  0.500000000  0.000000000
     0.000000000  0.000000000  0.046881366     0.000000000  0.000000000  1.000000000

  Length of vectors
     0.059237619  0.059237619  0.046881366

  Shift w.r.t. Gamma in fractional coordinates (k-lattice)
     0.000000000  0.000000000  0.000000000

 
 Subroutine IBZKPT returns following result:
 ===========================================
 
 Found      4 irreducible k-points:
 
 Following reciprocal coordinates:
            Coordinates               Weight
  0.000000  0.000000  0.000000      1.000000
  0.500000  0.000000  0.000000      1.000000
  0.000000  0.500000  0.000000      1.000000
  0.500000  0.500000  0.000000      1.000000
 
 Following cartesian coordinates:
            Coordinates               Weight
  0.000000  0.000000  0.000000      1.000000
  0.059238  0.000000  0.000000      1.000000
  0.000000  0.059238  0.000000      1.000000
  0.059238  0.059238  0.000000      1.000000
 
 
 Subroutine IBZKPT_HF returns following result:
 ==============================================
 
 Found      4 k-points in 1st BZ
 the following      4 k-points will be used (e.g. in the exchange kernel)
 Following reciprocal coordinates:   # in IRBZ
  0.000000  0.000000  0.000000    0.25000000   1 t-inv F
  0.500000  0.000000  0.000000    0.25000000   2 t-inv F
  0.000000  0.500000  0.000000    0.25000000   3 t-inv F
  0.500000  0.500000  0.000000    0.25000000   4 t-inv F


--------------------------------------------------------------------------------------------------------




 Dimension of arrays:
   k-points           NKPTS =      4   k-points in BZ     NKDIM =      4   number of bands    NBANDS=    384
   number of dos      NEDOS =    301   number of ions     NIONS =     69
   non local maximal  LDIM  =      5   non local SUM 2l+1 LMDIM =     13
   total plane-waves  NPLWV = 882000
   max r-space proj   IRMAX =      1   max aug-charges    IRDMAX=  11637
   dimension x,y,z NGX =    70 NGY =   70 NGZ =  180
   dimension x,y,z NGXF=   140 NGYF=  140 NGZF=  360
   support grid    NGXF=   140 NGYF=  140 NGZF=  360
   ions per type =               1   4  32  32
   NGX,Y,Z   is equivalent  to a cutoff of  13.79, 13.79, 14.03 a.u.
   NGXF,Y,Z  is equivalent  to a cutoff of  27.57, 27.57, 28.06 a.u.

 SYSTEM =  MgO-rocksalt                            
 POSCAR =   C  H Mg  O                             

--------------------------------------------------------------------------------------------------------


  energy-cutoff  :      600.00
  volume of cell :     1519.65
      direct lattice vectors                 reciprocal lattice vectors
     8.440582262  0.000000000  0.000000000     0.118475239  0.000000000  0.000000000
     0.000000000  8.440582262  0.000000000     0.000000000  0.118475239  0.000000000
     0.000000000  0.000000000 21.330436697     0.000000000  0.000000000  0.046881366

  length of vectors
     8.440582262  8.440582262 21.330436697     0.118475239  0.118475239  0.046881366



 k-points in units of 2pi/SCALE and weight: pymatgen v2020.8.13 with grid density = 
   0.00000000  0.00000000  0.00000000       0.250
   0.05923762  0.00000000  0.00000000       0.250
   0.00000000  0.05923762  0.00000000       0.250
   0.05923762  0.05923762  0.00000000       0.250

 k-points in reciprocal lattice and weights: pymatgen v2020.8.13 with grid density = 
   0.00000000  0.00000000  0.00000000       0.250
   0.50000000  0.00000000  0.00000000       0.250
   0.00000000  0.50000000  0.00000000       0.250
   0.50000000  0.50000000  0.00000000       0.250

 position of ions in fractional coordinates (direct lattice) 
   0.50000004  0.50000004  0.79744737
   0.50000008  0.60646435  0.82697127
   0.50000003  0.39353559  0.82697125
   0.60714318  0.50000001  0.76807785
   0.39285689  0.50000005  0.76807786
   0.25000000  0.00000000  0.35161024
   0.50000000  0.25000000  0.35161024
   0.25000000  0.25000000  0.45053675
   0.50000000  0.00000000  0.45053675
   0.25002038  0.00000000  0.54996451
   0.50000000  0.25005985  0.55002462
   0.25005945  0.24984959  0.64827045
   0.49999999  0.00000001  0.64833081
   0.25000000  0.50000000  0.35161024
   0.50000000  0.75000000  0.35161024
   0.25000000  0.75000000  0.45053675
   0.50000000  0.50000000  0.45053675
   0.25007348  0.50000000  0.55001791
   0.49999999  0.74994015  0.55002463
   0.25005945  0.75015042  0.64827044
   0.49999998  0.50000000  0.64882383
   0.75000000  0.00000000  0.35161024
   0.00000000  0.25000000  0.35161024
   0.75000000  0.25000000  0.45053675
   0.00000000  0.00000000  0.45053675
   0.74997960  0.00000000  0.54996451
   0.99999999  0.24999404  0.54997487
   0.74994053  0.24984958  0.64827045
   0.99999999  0.00000000  0.64841376
   0.75000000  0.50000000  0.35161024
   0.00000000  0.75000000  0.35161024
   0.75000000  0.75000000  0.45053675
   0.00000000  0.50000000  0.45053675
   0.74992650  0.50000000  0.55001791
   0.99999999  0.75000596  0.54997487
   0.74994053  0.75015042  0.64827045
   0.99999999  0.50000000  0.64829318
   0.25000000  0.00000000  0.45053675
   0.50000000  0.25000000  0.45053675
   0.25000000  0.25000000  0.35161024
   0.50000000  0.00000000  0.35161024
   0.24996757  0.00000000  0.65023202
   0.49999999  0.24979043  0.65005410
   0.24993585  0.25000108  0.54970438
   0.49999999  0.00000000  0.54967409
   0.25000000  0.50000000  0.45053675
   0.50000000  0.75000000  0.45053675
   0.25000000  0.75000000  0.35161024
   0.50000000  0.50000000  0.35161024
   0.24974151  0.50000000  0.65029762
   0.49999999  0.75020957  0.65005410
   0.24993585  0.74999892  0.54970438
   0.49999999  0.50000000  0.54980291
   0.75000000  0.00000000  0.45053675
   0.00000000  0.25000000  0.45053675
   0.75000000  0.25000000  0.35161024
   0.00000000  0.00000000  0.35161024
   0.75003241  0.00000000  0.65023202
   0.99999999  0.24997860  0.65022922
   0.75006413  0.25000108  0.54970438
   1.00000000  0.00000000  0.54973431
   0.75000000  0.50000000  0.45053675
   0.00000000  0.75000000  0.45053675
   0.75000000  0.75000000  0.35161024
   0.00000000  0.50000000  0.35161024
   0.75025847  0.50000000  0.65029762
   0.99999998  0.75002141  0.65022922
   0.75006413  0.74999892  0.54970438
   0.99999999  0.50000000  0.54971122

 position of ions in cartesian coordinates  (Angst):
   4.22029149  4.22029146 17.00990064
   4.22029178  5.11891223 17.63965830
   4.22029139  3.32166955 17.63965793
   5.12464199  4.22029118 16.38343602
   3.31594086  4.22029156 16.38343626
   2.11014557  0.00000000  7.50000000
   4.22029113  2.11014557  7.50000000
   2.11014557  2.11014557  9.61014557
   4.22029113  0.00000000  9.61014557
   2.11031761  0.00000002 11.73098320
   4.22029109  2.11065074 11.73226542
   2.11064739  2.10887600 13.82789180
   4.22029104  0.00000005 13.82917936
   2.11014557  4.22029113  7.50000000
   4.22029113  6.33043670  7.50000000
   2.11014557  6.33043670  9.61014557
   4.22029113  4.22029113  9.61014557
   2.11076581  4.22029115 11.73212228
   4.22029108  6.32993156 11.73226550
   2.11064737  6.33170633 13.82789168
   4.22029100  4.22029115 13.83969561
   6.33043670  0.00000000  7.50000000
   0.00000000  2.11014557  7.50000000
   6.33043670  2.11014557  9.61014557
   0.00000000  0.00000000  9.61014557
   6.33026455  0.00000003 11.73098317
   8.44058221  2.11009525 11.73120423
   6.32993470  2.10887595 13.82789187
   8.44058216  0.00000003 13.83094873
   6.33043670  4.22029113  7.50000000
   0.00000000  6.33043670  7.50000000
   6.33043670  6.33043670  9.61014557
   0.00000000  4.22029113  9.61014557
   6.32981634  4.22029113 11.73212224
   8.44058220  6.33048703 11.73120420
   6.32993470  6.33170636 13.82789174
   8.44058221  4.22029114 13.82837658
   2.11014557  0.00000000  9.61014557
   4.22029113  2.11014557  9.61014557
   2.11014557  2.11014557  7.50000000
   4.22029113  0.00000000  7.50000000
   2.10987187  0.00000003 13.86973301
   4.22029106  2.10837669 13.86593789
   2.10960414  2.11015470 11.72543450
   4.22029105  0.00000000 11.72478843
   2.11014557  4.22029113  9.61014557
   4.22029113  6.33043670  9.61014557
   2.11014557  6.33043670  7.50000000
   4.22029113  4.22029113  7.50000000
   2.10796372  4.22029116 13.87113230
   4.22029108  6.33220561 13.86593782
   2.10960414  6.33042758 11.72543453
   4.22029107  4.22029115 11.72753617
   6.33043670  0.00000000  9.61014557
   0.00000000  2.11014557  9.61014557
   6.33043670  2.11014557  7.50000000
   0.00000000  0.00000000  7.50000000
   6.33071023  0.00000003 13.86973303
   8.44058218  2.10996492 13.86967322
   6.33097803  2.11015472 11.72543445
   8.44058223  0.00000002 11.72607284
   6.33043670  4.22029113  9.61014557
   0.00000000  6.33043670  9.61014557
   6.33043670  6.33043670  7.50000000
   0.00000000  4.22029113  7.50000000
   6.33261837  4.22029116 13.87113220
   8.44058213  6.33061739 13.86967324
   6.33097801  6.33042756 11.72543451
   8.44058220  4.22029114 11.72558028



--------------------------------------------------------------------------------------------------------

--------------------------------------- Iteration      FINAL  ---------------------------------------


--------------------OUTCAR has been truncated-------------------------


--------------------OUTCAR has been truncated-------------------------


--------------------OUTCAR has been truncated-------------------------


--------------------OUTCAR has been truncated-------------------------


--------------------OUTCAR has been truncated-------------------------


--------------------OUTCAR has been truncated-------------------------


--------------------OUTCAR has been truncated-------------------------


--------------------OUTCAR has been truncated-------------------------


--------------------OUTCAR has been truncated-------------------------


--------------------OUTCAR has been truncated-------------------------


  DFT-D2 method for vdW energy calculation
  -------------------------------------------------------------------

  Parameters of vdW forcefield:
         C6(Jnm^6/mol)     R0(A)
   -----------------------------
   C        1.750          1.452
   H        0.140          1.001
   Mg       0.630          1.243
   O        0.700          1.342

  vdW correction parametrized for the method °ý      

  IVDW =   1
  VDW_RADIUS =    50.000 A
  VDW_S6 =     1.050
  VDW_SR =     1.000
  VDW_D =    20.000
  LVDW_EWALD = F

  Number of pair interactions contributing to vdW energy:  838416
  Edisp (eV):   -5.23829
    FORVDW:  cpu time      0.1246: real time      0.1246

 VOLUME and BASIS-vectors are now :
 -----------------------------------------------------------------------------
  energy-cutoff  :      600.00
  volume of cell :     1519.65
      direct lattice vectors                 reciprocal lattice vectors
     8.440582262  0.000000000  0.000000000     0.118475239  0.000000000  0.000000000
     0.000000000  8.440582262  0.000000000     0.000000000  0.118475239  0.000000000
     0.000000000  0.000000000 21.330436697     0.000000000  0.000000000  0.046881366

  length of vectors
     8.440582262  8.440582262 21.330436697     0.118475239  0.118475239  0.046881366


 FORCES acting on ions:
    Electron-Ion                     Ewald-Force                    Non-Local-Force
 -----------------------------------------------------------------------------------------------
   -.383E-05 -.302E-05 -.923E+03   0.115E-05 -.179E-04 0.923E+03   -.890E-06 -.115E-04 -.439E-01
   -.187E-04 -.430E+02 -.228E+03   0.152E-04 0.474E+02 0.232E+03   -.199E-05 -.450E+01 -.314E+01
   0.311E-05 0.430E+02 -.228E+03   -.529E-05 -.474E+02 0.232E+03   -.229E-06 0.450E+01 -.314E+01
   -.431E+02 0.915E-05 -.233E+03   0.476E+02 -.120E-04 0.230E+03   -.455E+01 0.168E-05 0.305E+01
   0.431E+02 -.756E-05 -.233E+03   -.476E+02 0.832E-05 0.230E+03   0.455E+01 -.503E-06 0.305E+01
   0.136E+00 -.108E-05 0.208E+04   -.135E+00 -.314E-06 -.207E+04   -.233E-03 0.289E-06 -.639E+01
   -.309E-06 0.133E+00 0.208E+04   -.548E-06 -.132E+00 -.207E+04   -.327E-06 -.516E-03 -.640E+01
   0.535E+00 0.520E+00 0.710E+03   -.531E+00 -.516E+00 -.710E+03   -.205E-02 -.268E-02 0.411E+00
   0.135E-06 0.355E-05 0.710E+03   0.618E-06 -.296E-05 -.710E+03   -.366E-06 0.178E-05 0.388E+00
   0.235E+01 0.435E-05 -.652E+03   -.235E+01 0.332E-05 0.652E+03   -.641E-02 -.970E-05 -.188E+00
   -.427E-05 0.355E+01 -.646E+03   0.616E-06 -.353E+01 0.646E+03   0.730E-05 -.151E-01 -.316E+00
   0.140E+02 0.142E+02 -.200E+04   -.140E+02 -.142E+02 0.199E+04   -.186E-01 0.577E-01 0.559E+01
   0.340E-05 0.501E-05 -.201E+04   -.499E-05 -.358E-05 0.200E+04   0.168E-05 -.247E-05 0.557E+01
   0.142E+00 0.711E-06 0.208E+04   -.141E+00 0.282E-06 -.207E+04   -.529E-03 -.272E-06 -.639E+01
   -.793E-06 -.133E+00 0.208E+04   -.325E-06 0.132E+00 -.207E+04   0.554E-06 0.517E-03 -.640E+01
   0.535E+00 -.520E+00 0.710E+03   -.531E+00 0.516E+00 -.710E+03   -.205E-02 0.268E-02 0.411E+00
   0.293E-05 -.246E-05 0.711E+03   -.277E-05 0.322E-05 -.711E+03   0.470E-07 0.262E-07 0.425E+00
   0.359E+01 0.514E-05 -.646E+03   -.356E+01 -.973E-05 0.647E+03   -.212E-01 0.717E-05 -.198E+00
   0.639E-05 -.355E+01 -.646E+03   0.175E-05 0.353E+01 0.646E+03   -.861E-05 0.151E-01 -.316E+00
   0.140E+02 -.142E+02 -.200E+04   -.140E+02 0.142E+02 0.199E+04   -.186E-01 -.577E-01 0.559E+01
   -.163E-05 0.805E-05 -.195E+04   0.606E-05 -.638E-05 0.195E+04   -.591E-06 -.277E-05 0.553E+01
   -.136E+00 0.172E-05 0.208E+04   0.135E+00 -.531E-06 -.207E+04   0.234E-03 -.190E-05 -.639E+01
   -.217E-05 0.126E+00 0.208E+04   0.569E-06 -.126E+00 -.207E+04   0.169E-05 -.220E-03 -.639E+01
   -.535E+00 0.520E+00 0.710E+03   0.531E+00 -.516E+00 -.710E+03   0.205E-02 -.268E-02 0.411E+00
   -.209E-05 0.197E-05 0.709E+03   0.396E-06 -.558E-06 -.709E+03   0.945E-06 0.120E-05 0.419E+00
   -.235E+01 -.345E-05 -.652E+03   0.235E+01 -.418E-06 0.652E+03   0.641E-02 0.570E-05 -.188E+00
   0.381E-05 0.229E+01 -.652E+03   0.841E-06 -.229E+01 0.652E+03   -.704E-05 0.271E-02 -.197E+00
   -.140E+02 0.142E+02 -.200E+04   0.140E+02 -.142E+02 0.199E+04   0.186E-01 0.577E-01 0.559E+01
   -.162E-04 -.287E-06 -.202E+04   0.103E-04 -.246E-05 0.201E+04   0.188E-05 0.677E-06 0.556E+01
   -.142E+00 -.362E-06 0.208E+04   0.141E+00 0.514E-06 -.207E+04   0.524E-03 -.178E-05 -.639E+01
   0.138E-05 -.126E+00 0.208E+04   0.349E-06 0.126E+00 -.207E+04   -.114E-05 0.219E-03 -.639E+01
   -.535E+00 -.520E+00 0.710E+03   0.531E+00 0.516E+00 -.710E+03   0.205E-02 0.268E-02 0.411E+00
   -.268E-05 0.650E-06 0.710E+03   0.368E-05 -.385E-06 -.710E+03   -.436E-06 -.185E-06 0.409E+00
   -.359E+01 0.913E-05 -.646E+03   0.356E+01 -.352E-05 0.647E+03   0.212E-01 -.810E-05 -.198E+00
   -.509E-05 -.229E+01 -.652E+03   -.823E-06 0.229E+01 0.652E+03   0.712E-05 -.271E-02 -.197E+00
   -.140E+02 -.142E+02 -.200E+04   0.140E+02 0.142E+02 0.199E+04   0.186E-01 -.577E-01 0.559E+01
   0.750E-05 -.888E-05 -.201E+04   -.944E-05 0.574E-05 0.200E+04   0.151E-05 0.106E-05 0.556E+01
   0.414E+00 0.316E-05 0.532E+03   -.409E+00 -.118E-05 -.531E+03   -.654E-02 0.395E-06 -.841E-01
   0.161E-05 0.417E+00 0.532E+03   -.131E-05 -.423E+00 -.532E+03   -.976E-06 0.694E-02 -.999E-01
   0.104E+00 0.969E-01 0.156E+04   -.103E+00 -.963E-01 -.156E+04   -.101E-02 -.744E-03 0.313E+01
   0.105E-05 -.216E-06 0.156E+04   -.202E-06 -.461E-06 -.156E+04   -.130E-05 -.650E-06 0.312E+01
   0.582E+01 -.134E-04 -.153E+04   -.581E+01 -.195E-05 0.153E+04   -.148E-01 0.136E-04 -.440E+01
   -.658E-05 0.176E+02 -.151E+04   -.611E-05 -.175E+02 0.151E+04   0.527E-05 -.595E-01 -.446E+01
   0.219E+01 0.214E+01 -.481E+03   -.217E+01 -.214E+01 0.481E+03   -.155E-01 -.339E-02 0.297E+00
   -.615E-05 -.514E-05 -.482E+03   0.723E-05 0.639E-05 0.482E+03   0.109E-05 -.495E-06 0.259E+00
   0.453E+00 0.899E-06 0.532E+03   -.456E+00 -.162E-07 -.532E+03   0.332E-02 -.517E-07 -.938E-01
   0.905E-06 -.417E+00 0.532E+03   0.189E-06 0.423E+00 -.532E+03   -.258E-06 -.694E-02 -.999E-01
   0.104E+00 -.969E-01 0.156E+04   -.103E+00 0.963E-01 -.156E+04   -.101E-02 0.744E-03 0.313E+01
   0.150E-05 0.240E-05 0.156E+04   -.459E-06 0.464E-06 -.156E+04   -.147E-05 -.876E-07 0.312E+01
   0.178E+02 -.133E-04 -.151E+04   -.178E+02 0.129E-05 0.151E+04   -.437E-01 0.357E-05 -.438E+01
   0.247E-04 -.176E+02 -.151E+04   -.125E-04 0.175E+02 0.151E+04   -.287E-05 0.595E-01 -.446E+01
   0.219E+01 -.214E+01 -.481E+03   -.217E+01 0.214E+01 0.481E+03   -.155E-01 0.339E-02 0.297E+00
   0.188E-05 0.407E-05 -.477E+03   -.930E-06 -.363E-05 0.477E+03   0.230E-06 -.896E-06 0.170E+00
   -.414E+00 0.417E-05 0.532E+03   0.409E+00 -.275E-05 -.531E+03   0.654E-02 -.102E-05 -.841E-01
   -.445E-05 0.375E+00 0.532E+03   0.307E-05 -.373E+00 -.531E+03   0.143E-05 -.328E-02 -.874E-01
   -.104E+00 0.969E-01 0.156E+04   0.103E+00 -.963E-01 -.156E+04   0.101E-02 -.745E-03 0.313E+01
   -.173E-05 -.330E-05 0.156E+04   0.207E-06 -.150E-06 -.156E+04   -.604E-07 0.159E-05 0.313E+01
   -.582E+01 0.185E-04 -.153E+04   0.581E+01 -.142E-05 0.153E+04   0.148E-01 -.138E-04 -.440E+01
   -.201E-04 0.605E+01 -.153E+04   -.245E-05 -.604E+01 0.153E+04   0.163E-04 -.167E-01 -.440E+01
   -.219E+01 0.214E+01 -.481E+03   0.217E+01 -.214E+01 0.481E+03   0.155E-01 -.339E-02 0.297E+00
   0.197E-05 0.463E-05 -.486E+03   -.560E-05 -.264E-05 0.485E+03   -.573E-06 -.122E-05 0.258E+00
   -.453E+00 -.563E-06 0.532E+03   0.456E+00 0.197E-05 -.532E+03   -.332E-02 0.237E-06 -.938E-01
   -.198E-05 -.375E+00 0.532E+03   0.181E-05 0.373E+00 -.531E+03   -.607E-06 0.328E-02 -.874E-01
   -.104E+00 -.969E-01 0.156E+04   0.103E+00 0.963E-01 -.156E+04   0.101E-02 0.745E-03 0.313E+01
   -.140E-05 -.336E-05 0.156E+04   0.459E-06 0.127E-06 -.156E+04   0.120E-05 -.889E-07 0.313E+01
   -.178E+02 0.147E-04 -.151E+04   0.178E+02 -.451E-05 0.151E+04   0.437E-01 -.334E-05 -.438E+01
   0.117E-04 -.605E+01 -.153E+04   0.101E-04 0.604E+01 0.153E+04   -.144E-04 0.167E-01 -.440E+01
   -.219E+01 -.214E+01 -.481E+03   0.217E+01 0.214E+01 0.481E+03   0.155E-01 0.339E-02 0.297E+00
   -.166E-05 0.223E-05 -.482E+03   0.911E-06 -.215E-06 0.482E+03   0.130E-05 0.101E-05 0.294E+00
 -----------------------------------------------------------------------------------------------
   -.208E-04 0.192E-04 0.161E+02   0.249E-12 0.185E-12 -.318E-11   -.326E-05 -.180E-04 -.141E+02


 POSITION                                       TOTAL-FORCE (eV/Angst)
 -----------------------------------------------------------------------------------
      4.22029      4.22029     17.00990        -0.000003     -0.000033     -0.038799
      4.22029      5.11891     17.63966        -0.000005     -0.193546     -0.124177
      4.22029      3.32167     17.63966        -0.000002      0.193575     -0.124189
      5.12464      4.22029     16.38344        -0.221768     -0.000001      0.127684
      3.31594      4.22029     16.38344         0.221764      0.000000      0.127686
      2.11015      0.00000      7.50000         0.000147     -0.000001      0.467444
      4.22029      2.11015      7.50000        -0.000001      0.000212      0.468250
      2.11015      2.11015      9.61015         0.001219      0.001291      0.032466
      4.22029      0.00000      9.61015         0.000001      0.000002      0.035518
      2.11032      0.00000     11.73098         0.000343     -0.000002     -0.005100
      4.22029      2.11065     11.73227         0.000005      0.001800     -0.001839
      2.11065      2.10888     13.82789         0.000330     -0.002135     -0.114589
      4.22029      0.00000     13.82918         0.000001     -0.000001     -0.119111
      2.11015      4.22029      7.50000         0.000237      0.000000      0.467761
      4.22029      6.33044      7.50000        -0.000000     -0.000213      0.468254
      2.11015      6.33044      9.61015         0.001218     -0.001290      0.032467
      4.22029      4.22029      9.61015         0.000001      0.000001      0.038213
      2.11077      4.22029     11.73212         0.003076      0.000003     -0.003927
      4.22029      6.32993     11.73227        -0.000000     -0.001802     -0.001840
      2.11065      6.33171     13.82789         0.000345      0.002121     -0.114586
      4.22029      4.22029     13.83970         0.000004     -0.000001     -0.079241
      6.33044      0.00000      7.50000        -0.000142     -0.000001      0.467440
      0.00000      2.11015      7.50000         0.000001      0.000107      0.467491
      6.33044      2.11015      9.61015        -0.001218      0.001290      0.032467
      0.00000      0.00000      9.61015         0.000000      0.000003      0.032305
      6.33026      0.00000     11.73098        -0.000341      0.000001     -0.005092
      8.44058      2.11010     11.73120        -0.000002     -0.000346     -0.004881
      6.32993      2.10888     13.82789        -0.000347     -0.002120     -0.114575
      8.44058      0.00000     13.83095        -0.000005     -0.000003     -0.120764
      6.33044      4.22029      7.50000        -0.000238     -0.000002      0.467761
      0.00000      6.33044      7.50000         0.000001     -0.000106      0.467493
      6.33044      6.33044      9.61015        -0.001221     -0.001290      0.032468
      0.00000      4.22029      9.61015         0.000001      0.000000      0.034481
      6.32982      4.22029     11.73212        -0.003078     -0.000003     -0.003924
      8.44058      6.33049     11.73120         0.000001      0.000348     -0.004875
      6.32993      6.33171     13.82789        -0.000332      0.002135     -0.114579
      8.44058      4.22029     13.82838        -0.000000     -0.000002     -0.115197
      2.11015      0.00000      9.61015        -0.002351      0.000002      0.047170
      4.22029      2.11015      9.61015        -0.000000      0.002399      0.048236
      2.11015      2.11015      7.50000        -0.000331     -0.000248     -0.435332
      4.22029      0.00000      7.50000        -0.000000     -0.000001     -0.435716
      2.10987      0.00000     13.86973        -0.002273     -0.000002     -0.012541
      4.22029      2.10838     13.86594        -0.000007      0.002990     -0.013302
      2.10960      2.11015     11.72543        -0.001118      0.000301      0.014682
      4.22029      0.00000     11.72479         0.000003      0.000001      0.011870
      2.11015      4.22029      9.61015         0.001006      0.000001      0.049547
      4.22029      6.33044      9.61015         0.000001     -0.002401      0.048232
      2.11015      6.33044      7.50000        -0.000330      0.000248     -0.435341
      4.22029      4.22029      7.50000        -0.000000      0.000003     -0.435983
      2.10796      4.22029     13.87113         0.008313     -0.000009      0.002397
      4.22029      6.33221     13.86594         0.000010     -0.002992     -0.013303
      2.10960      6.33043     11.72543        -0.001119     -0.000301      0.014679
      4.22029      4.22029     11.72754         0.000002     -0.000001      0.013303
      6.33044      0.00000      9.61015         0.002353      0.000000      0.047169
      0.00000      2.11015      9.61015         0.000001     -0.001017      0.047021
      6.33044      2.11015      7.50000         0.000333     -0.000249     -0.435335
      0.00000      0.00000      7.50000        -0.000001     -0.000002     -0.434943
      6.33071      0.00000     13.86973         0.002280      0.000003     -0.012542
      8.44058      2.10996     13.86967        -0.000006     -0.001198     -0.009894
      6.33098      2.11015     11.72543         0.001116      0.000298      0.014680
      8.44058      0.00000     11.72607        -0.000004      0.000001      0.011759
      6.33044      4.22029      9.61015        -0.001006      0.000002      0.049549
      0.00000      6.33044      9.61015        -0.000000      0.001016      0.047020
      6.33044      6.33044      7.50000         0.000329      0.000251     -0.435336
      0.00000      4.22029      7.50000         0.000001     -0.000003     -0.435152
      6.33262      4.22029     13.87113        -0.008316      0.000007      0.002395
      8.44058      6.33062     13.86967         0.000008      0.001207     -0.009914
      6.33098      6.33043     11.72543         0.001118     -0.000298      0.014681
      8.44058      4.22029     11.72558         0.000001      0.000003      0.013878
 -----------------------------------------------------------------------------------
    total drift:                               -0.000024      0.000002      0.010705


--------------------------------------------------------------------------------------------------------



  FREE ENERGIE OF THE ION-ELECTRON SYSTEM (eV)
  ---------------------------------------------------
  free  energy   TOTEN  =      -466.04782727 eV

  energy  without entropy=     -466.04782727  energy(sigma->0) =     -466.04782727



--------------------------------------------------------------------------------------------------------


    POTLOK:  cpu time      0.5441: real time      0.5442


--------------------------------------------------------------------------------------------------------


     LOOP+:  cpu time   2821.6839: real time   2822.6897
    4ORBIT:  cpu time      0.0000: real time      0.0000

 total amount of memory used by VASP MPI-rank0   187240. kBytes
=======================================================================

   base      :      30000. kBytes
   nonl-proj :      17715. kBytes
   fftplans  :       7827. kBytes
   grid      :       8190. kBytes
   one-center:         73. kBytes
   HF        :        101. kBytes
   nonlr-proj:       7115. kBytes
   wavefun   :       3759. kBytes
   fock_wrk  :     112460. kBytes

  
  
 General timing and accounting informations for this job:
 ========================================================
  
                  Total CPU time used (sec):     2886.313
                            User time (sec):     2879.683
                          System time (sec):        6.630
                         Elapsed time (sec):     2913.424
  
                   Maximum memory used (kb):      437384.
                   Average memory used (kb):          N/A
  
                          Minor page faults:       271133
                          Major page faults:           52
                 Voluntary context switches:        26695
