 vasp.6.4.2 20Jul23 (build Feb 22 2024 13:53:45) complex                         
 executed on              LinuxNV date 2024.08.28  22:56:50
 running    4 mpi-ranks, with    1 threads/rank, on    1 nodes
 distrk:  each k-point on    4 cores,    1 groups
 distr:  one band on NCORE=   1 cores,    4 groups
 OpenACC runtime initialized ...    4 GPUs detected


--------------------------------------------------------------------------------------------------------


 INCAR:
   SYSTEM = Oxide-Surface
   ISMEAR = 0
   SIGMA = 0.05
   EDIFF = 1E-5
   ALGO = Normal
   IBRION = -1
   NSW = 0
   ISYM = 0
   DIPOL = 0.5 0.5 0.5
   IDIPOL = 3
   LDIPOL = .TRUE.
   ISTART = 0
   LHFCALC = .FALSE.
   GGA = PE
   IVDW = 21
   VDW_SR = 0.96
   HFRCUT = -1
   ENCUT = 1000
   PREC = Normal
   PRECFOCK = Normal
   LASPH = .TRUE.
   LREAL = Auto
   ISPIN = 1
   NELM = 200
   NELMIN = 8
   NCORE = 1
   KPAR = 1
   LWAVE = .FALSE.
   LCHARG = .FALSE.

 POTCAR:    PAW_PBE N_h 06Feb2004                 
 POTCAR:    PAW_PBE H_h 06Feb2004                 
 POTCAR:    PAW_PBE Ti_sv 26Sep2005               
 POTCAR:    PAW_PBE O_h 06Feb2004                 
 POTCAR:    PAW_PBE N_h 06Feb2004                 
   SHA256 =  dc52e333fc0a72b86c7e275c90b0fe5a206954848a962e0247ec210b4cd728f3 N_h/POTCAR            
   COPYR  = (c) Copyright 06Feb2004 Georg Kresse                                                    
   COPYR  = This file is part of the software VASP. Any use, copying, and all other rights are regul
   COPYR  = If you do not have a valid VASP license, you may not use, copy or distribute this file. 
   VRHFIN =N: s2p3                                                                                  
   LEXCH  = PE                                                                                      
   EATOM  =   264.5486 eV,   19.4438 Ry                                                             
                                                                                                    
   TITEL  = PAW_PBE N_h 06Feb2004                                                                   
   LULTRA =        F    use ultrasoft PP ?                                                          
   IUNSCR =        1    unscreen: 0-lin 1-nonlin 2-no                                               
   RPACOR =    0.800    partial core radius                                                         
   POMASS =   14.001; ZVAL   =    5.000    mass and valenz                                          
   RCORE  =    1.100    outmost cutoff radius                                                       
   RWIGS  =    1.480; RWIGS  =    0.783    wigner-seitz radius (au A)                               
   ENMAX  =  700.000; ENMIN  =  500.000 eV                                                          
   ICORE  =        2    local potential                                                             
   LCOR   =        T    correct aug charges                                                         
   LPAW   =        T    paw PP                                                                      
   EAUG   =  904.640                                                                                
   DEXC   =    0.000                                                                                
   RMAX   =    1.127    core radius for proj-oper                                                   
   RAUG   =    1.300    factor for augmentation sphere                                              
   RDEP   =    1.115    radius for radial grids                                                     
   RDEPT  =    1.106    core radius for aug-charge                                                  
                                                                                                    
   Atomic configuration                                                                             
    4 entries                                                                                       
     n  l   j            E        occ.                                                              
     1  0  0.50      -384.7179   2.0000                                                             
     2  0  0.50       -18.5828   2.0000                                                             
     2  1  0.50        -7.0898   3.0000                                                             
     3  2  1.50        -6.8029   0.0000                                                             
   Description                                                                                      
     l       E           TYP  RCUT    TYP  RCUT                                                     
     0    -18.5828117     23  1.100                                                                 
     0    -15.0750597     23  1.100                                                                 
     1     -7.0897851     23  1.100                                                                 
     1     -1.9663412     23  1.100                                                                 
     2     -6.8029130      7  1.100                                                                 
  local pseudopotential read in
  partial core-charges read in
  partial kinetic energy density read in
  kinetic energy density of atom read in
  atomic valenz-charges read in
  non local Contribution for L=            0  read in
    real space projection operators read in
  non local Contribution for L=            0  read in
    real space projection operators read in
  non local Contribution for L=            1  read in
    real space projection operators read in
  non local Contribution for L=            1  read in
    real space projection operators read in
    PAW grid and wavefunctions read in
 
   number of l-projection  operators is LMAX  =            4
   number of lm-projection operators is LMMAX =            8
 
 POTCAR:    PAW_PBE H_h 06Feb2004                 
   SHA256 =  143491dd1ce685661e07aa76f96d5d154a7e3c51c1da76ab67ad499446e4b766 H_h/POTCAR            
   COPYR  = (c) Copyright 06Feb2004 Georg Kresse                                                    
   COPYR  = This file is part of the software VASP. Any use, copying, and all other rights are regul
   COPYR  = If you do not have a valid VASP license, you may not use, copy or distribute this file. 
   VRHFIN =H: ultrasoft test                                                                        
   LEXCH  = PE                                                                                      
   EATOM  =    12.4884 eV,    0.9179 Ry                                                             
                                                                                                    
   TITEL  = PAW_PBE H_h 06Feb2004                                                                   
   LULTRA =        F    use ultrasoft PP ?                                                          
   IUNSCR =        0    unscreen: 0-lin 1-nonlin 2-no                                               
   RPACOR =    0.000    partial core radius                                                         
   POMASS =    1.000; ZVAL   =    1.000    mass and valenz                                          
   RCORE  =    0.800    outmost cutoff radius                                                       
   RWIGS  =    0.700; RWIGS  =    0.370    wigner-seitz radius (au A)                               
   ENMAX  =  700.000; ENMIN  =  350.000 eV                                                          
   RCLOC  =    0.701    cutoff for local pot                                                        
   LCOR   =        T    correct aug charges                                                         
   LPAW   =        T    paw PP                                                                      
   EAUG   = 1000.000                                                                                
   RMAX   =    0.819    core radius for proj-oper                                                   
   RAUG   =    1.000    factor for augmentation sphere                                              
   RDEP   =    0.817    radius for radial grids                                                     
   RDEPT  =    0.817    core radius for aug-charge                                                  
                                                                                                    
   Atomic configuration                                                                             
    2 entries                                                                                       
     n  l   j            E        occ.                                                              
     1  0  0.50        -6.4927   1.0000                                                             
     2  1  0.50        -3.4015   0.0000                                                             
   Description                                                                                      
     l       E           TYP  RCUT    TYP  RCUT                                                     
     0     -6.4927493     23  0.800                                                                 
     0      6.8029130     23  0.800                                                                 
     1     -6.8029130     23  0.800                                                                 
  local pseudopotential read in
  atomic valenz-charges read in
  non local Contribution for L=            0  read in
    real space projection operators read in
  non local Contribution for L=            0  read in
    real space projection operators read in
  non local Contribution for L=            1  read in
    real space projection operators read in
    PAW grid and wavefunctions read in
 
   number of l-projection  operators is LMAX  =            3
   number of lm-projection operators is LMMAX =            5
 
 POTCAR:    PAW_PBE Ti_sv 26Sep2005               
   SHA256 =  4d747badb5a5ea28d858fbac70885b3f8929d6fd9e5b0dbe1ecb9878dc164da1 Ti_sv/POTCAR          
   COPYR  = (c) Copyright 26Sep2005 Georg Kresse                                                    
   COPYR  = This file is part of the software VASP. Any use, copying, and all other rights are regul
   COPYR  = If you do not have a valid VASP license, you may not use, copy or distribute this file. 
   VRHFIN =Ti: 3p4s3d                                                                               
   LEXCH  = PE                                                                                      
   EATOM  =  1588.0892 eV,  116.7213 Ry                                                             
                                                                                                    
   TITEL  = PAW_PBE Ti_sv 26Sep2005                                                                 
   LULTRA =        F    use ultrasoft PP ?                                                          
   IUNSCR =        1    unscreen: 0-lin 1-nonlin 2-no                                               
   RPACOR =    2.000    partial core radius                                                         
   POMASS =   47.880; ZVAL   =   12.000    mass and valenz                                          
   RCORE  =    2.300    outmost cutoff radius                                                       
   RWIGS  =    2.300; RWIGS  =    1.217    wigner-seitz radius (au A)                               
   ENMAX  =  274.610; ENMIN  =  205.957 eV                                                          
   ICORE  =        3    local potential                                                             
   LCOR   =        T    correct aug charges                                                         
   LPAW   =        T    paw PP                                                                      
   EAUG   =  482.848                                                                                
   RMAX   =    2.348    core radius for proj-oper                                                   
   RAUG   =    1.300    factor for augmentation sphere                                              
   RDEP   =    2.381    radius for radial grids                                                     
   RDEPT  =    1.930    core radius for aug-charge                                                  
                                                                                                    
   Atomic configuration                                                                             
    8 entries                                                                                       
     n  l   j            E        occ.                                                              
     1  0  0.50     -4865.3608   2.0000                                                             
     2  0  0.50      -533.1368   2.0000                                                             
     2  1  1.50      -440.5031   6.0000                                                             
     3  0  0.50       -59.3186   2.0000                                                             
     4  0  0.50        -3.7291   1.0000                                                             
     3  1  1.50       -35.7012   6.0000                                                             
     3  2  2.50        -1.9157   3.0000                                                             
     4  3  2.50        -1.3606   0.0000                                                             
   Description                                                                                      
     l       E           TYP  RCUT    TYP  RCUT                                                     
     0    -59.3185931     23  1.800                                                                 
     0     -3.7290822     23  2.300                                                                 
     1    -35.7012045     23  2.300                                                                 
     1     -1.3605826     23  2.300                                                                 
     2     -1.9156920     23  2.300                                                                 
     2     -0.0236318     23  2.300                                                                 
     3     -1.3605826     23  2.300                                                                 
  local pseudopotential read in
  partial core-charges read in
  partial kinetic energy density read in
  atomic valenz-charges read in
  non local Contribution for L=            0  read in
    real space projection operators read in
  non local Contribution for L=            0  read in
    real space projection operators read in
  non local Contribution for L=            1  read in
    real space projection operators read in
  non local Contribution for L=            1  read in
    real space projection operators read in
  non local Contribution for L=            2  read in
    real space projection operators read in
  non local Contribution for L=            2  read in
    real space projection operators read in
    PAW grid and wavefunctions read in
 
   number of l-projection  operators is LMAX  =            6
   number of lm-projection operators is LMMAX =           18
 
 POTCAR:    PAW_PBE O_h 06Feb2004                 
   SHA256 =  7d3976308dcfb86c51a8aa000428ccf502aeca0a26316d98530ed0719b164db2 O_h/POTCAR            
   COPYR  = (c) Copyright 06Feb2004 Georg Kresse                                                    
   COPYR  = This file is part of the software VASP. Any use, copying, and all other rights are regul
   COPYR  = If you do not have a valid VASP license, you may not use, copy or distribute this file. 
   VRHFIN =O: s2p4                                                                                  
   LEXCH  = PE                                                                                      
   EATOM  =   432.3788 eV,   31.7789 Ry                                                             
                                                                                                    
   TITEL  = PAW_PBE O_h 06Feb2004                                                                   
   LULTRA =        F    use ultrasoft PP ?                                                          
   IUNSCR =        1    unscreen: 0-lin 1-nonlin 2-no                                               
   RPACOR =    0.800    partial core radius                                                         
   POMASS =   16.000; ZVAL   =    6.000    mass and valenz                                          
   RCORE  =    1.100    outmost cutoff radius                                                       
   RWIGS  =    1.400; RWIGS  =    0.741    wigner-seitz radius (au A)                               
   ENMAX  =  700.000; ENMIN  =  500.000 eV                                                          
   ICORE  =        2    local potential                                                             
   LCOR   =        T    correct aug charges                                                         
   LPAW   =        T    paw PP                                                                      
   EAUG   =  888.804                                                                                
   DEXC   =    0.000                                                                                
   RMAX   =    1.128    core radius for proj-oper                                                   
   RAUG   =    1.300    factor for augmentation sphere                                              
   RDEP   =    1.125    radius for radial grids                                                     
   RDEPT  =    1.088    core radius for aug-charge                                                  
                                                                                                    
   Atomic configuration                                                                             
    4 entries                                                                                       
     n  l   j            E        occ.                                                              
     1  0  0.50      -514.6923   2.0000                                                             
     2  0  0.50       -23.9615   2.0000                                                             
     2  1  0.50        -9.0305   4.0000                                                             
     3  2  1.50        -9.5241   0.0000                                                             
   Description                                                                                      
     l       E           TYP  RCUT    TYP  RCUT                                                     
     0    -23.9615319     23  1.100                                                                 
     0    -25.3221145     23  1.100                                                                 
     1     -9.0304911     23  1.100                                                                 
     1     -5.4802209     23  1.100                                                                 
     2     -9.5240782      7  1.100                                                                 
  local pseudopotential read in
  partial core-charges read in
  partial kinetic energy density read in
  atomic valenz-charges read in
  non local Contribution for L=            0  read in
    real space projection operators read in
  non local Contribution for L=            0  read in
    real space projection operators read in
  non local Contribution for L=            1  read in
    real space projection operators read in
  non local Contribution for L=            1  read in
    real space projection operators read in
    PAW grid and wavefunctions read in
 
   number of l-projection  operators is LMAX  =            4
   number of lm-projection operators is LMMAX =            8
 
 Optimization of the real space projectors (new method)

 maximal supplied QI-value         = 34.20
 optimisation between [QCUT,QGAM] = [ 16.08, 32.15] = [ 72.37,289.48] Ry 
 Optimized for a Real-space Cutoff    0.71 Angstroem

   l    n(q)    QCUT    max X(q) W(low)/X(q) W(high)/X(q)  e(spline) 
   0      7    16.076   148.539    0.44E-03    0.75E-03    0.58E-07
   0      7    16.076   106.192    0.44E-03    0.75E-03    0.58E-07
   1      6    16.076    73.877    0.23E-03    0.61E-03    0.11E-06
   1      6    16.076    50.042    0.22E-03    0.60E-03    0.11E-06
 Optimization of the real space projectors (new method)

 maximal supplied QI-value         = 47.24
 optimisation between [QCUT,QGAM] = [ 16.06, 32.13] = [ 72.25,289.00] Ry 
 Optimized for a Real-space Cutoff    0.82 Angstroem

   l    n(q)    QCUT    max X(q) W(low)/X(q) W(high)/X(q)  e(spline) 
   0      8    16.063    34.671    0.37E-03    0.85E-03    0.24E-06
   0      8    16.063    17.046    0.36E-03    0.82E-03    0.23E-06
   1      7    16.063     1.978    0.22E-03    0.92E-04    0.15E-06
 Optimization of the real space projectors (new method)

 maximal supplied QI-value         = 16.25
 optimisation between [QCUT,QGAM] = [ 16.09, 32.34] = [ 72.49,292.89] Ry 
 Optimized for a Real-space Cutoff    1.24 Angstroem

   l    n(q)    QCUT    max X(q) W(low)/X(q) W(high)/X(q)  e(spline) 
   0     12    16.089    12.277    0.23E-04    0.54E-05    0.15E-06
   0     12    16.089    11.419    0.26E-04    0.82E-06    0.19E-06
   1     12    16.089     4.010    0.40E-04    0.12E-04    0.58E-06
   1     12    16.089     6.182    0.55E-05    0.28E-04    0.27E-06
   2     11    16.089    47.177    0.17E-03    0.26E-03    0.90E-06
   2     11    16.089    42.437    0.17E-03    0.25E-03    0.88E-06
 Optimization of the real space projectors (new method)

 maximal supplied QI-value         = 34.20
 optimisation between [QCUT,QGAM] = [ 16.08, 32.15] = [ 72.37,289.48] Ry 
 Optimized for a Real-space Cutoff    0.71 Angstroem

   l    n(q)    QCUT    max X(q) W(low)/X(q) W(high)/X(q)  e(spline) 
   0      7    16.076   280.207    0.42E-03    0.69E-03    0.60E-07
   0      7    16.076   228.978    0.42E-03    0.69E-03    0.61E-07
   1      6    16.076    86.127    0.11E-03    0.66E-03    0.10E-06
   1      6    16.076    65.368    0.11E-03    0.65E-03    0.10E-06
  PAW_PBE N_h 06Feb2004                 :
 energy of atom  1       EATOM= -264.5486
 kinetic energy error for atom=    0.0081 (will be added to EATOM!!)
  PAW_PBE H_h 06Feb2004                 :
 energy of atom  2       EATOM=  -12.4884
 kinetic energy error for atom=    0.0006 (will be added to EATOM!!)
  PAW_PBE Ti_sv 26Sep2005               :
 energy of atom  3       EATOM=-1588.0892
 kinetic energy error for atom=    0.0004 (will be added to EATOM!!)
  PAW_PBE O_h 06Feb2004                 :
 energy of atom  4       EATOM= -432.3788
 kinetic energy error for atom=    0.0171 (will be added to EATOM!!)
 
 
 POSCAR:  N  H Ti  O
  positions in direct lattice
  No initial velocities read in
 exchange correlation table for  LEXCH =        8
   RHO(1)=    0.500       N(1)  =     2000
   RHO(2)=  100.500       N(2)  =     4000
 


--------------------------------------------------------------------------------------------------------


 ion  position               nearest neighbor table
   1  0.617  0.500  0.769-   2 1.02   4 1.02   3 1.02  52 2.30
   2  0.554  0.500  0.800-   1 1.02
   3  0.676  0.428  0.772-   1 1.02
   4  0.676  0.572  0.772-   1 1.02
   5  0.813  0.833  0.229-  89 1.94  55 1.94  57 1.94  56 1.99  54 1.99
   6  0.597  0.667  0.264- 120 1.94  53 1.94  58 1.94  56 1.94  57 1.99  59 1.99
   7  0.313  0.667  0.229- 125 1.94  59 1.94  61 1.94  60 1.99  53 1.99
   8  0.097  0.833  0.264-  54 1.94  92 1.94  62 1.94  60 1.94  61 1.99  55 1.99
   9  0.950  0.833  0.372-  63 1.92  97 1.93  65 1.93  55 1.98  64 1.98  62 2.00
  10  0.732  0.666  0.404-  58 1.89 128 1.93  64 1.94  66 1.96  67 1.99  65 2.00
  11  0.450  0.666  0.371-  67 1.93 133 1.93  69 1.94  59 1.97  68 1.98  58 2.01
  12  0.231  0.833  0.404-  62 1.89 100 1.94  68 1.94  70 1.97  63 1.98  69 2.01
  13  0.091  0.833  0.514-  71 1.92 105 1.93  73 1.93  72 1.97  63 2.00  70 2.01
  14  0.870  0.666  0.542-  66 1.86 136 1.93  72 1.95  75 1.95  73 2.01  74 2.01
  15  0.590  0.666  0.513- 141 1.93  77 1.93  75 1.93  76 1.98  67 1.98  66 2.01
  16  0.369  0.833  0.543-  70 1.86 108 1.94  76 1.94  71 1.95  78 2.00  77 2.02
  17  0.237  0.833  0.659-  79 1.86  81 1.93 113 1.94  80 2.00  71 2.09  78 2.10  20 2.85
  18  0.006  0.666  0.682-  74 1.78  82 1.84 144 1.97  80 1.99  81 2.07  19 2.86
  19  0.735  0.667  0.657-  82 1.89 148 1.93  84 1.94  83 1.99  75 2.04  74 2.10  18 2.86
  20  0.508  0.835  0.681-  78 1.78  79 1.84  83 1.96 115 1.97  84 2.06  17 2.85
  21  0.813  0.167  0.229-  89 1.94  87 1.94 121 1.94  88 1.99  86 1.99
  22  0.597  0.000  0.264-  85 1.94  56 1.94  88 1.94  90 1.94  89 1.99  91 1.99
  23  0.313  0.000  0.229-  61 1.94  93 1.94  91 1.94  92 1.99  85 1.99
  24  0.097  0.167  0.264-  86 1.94  92 1.94  94 1.94 124 1.94  93 1.99  87 1.99
  25  0.950  0.167  0.372-  95 1.92  97 1.93 129 1.93  87 1.98  96 1.98  94 2.00
  26  0.731  1.000  0.404-  90 1.89  64 1.94  96 1.94  98 1.97  99 1.98  97 2.00
  27  0.450  0.000  0.372-  99 1.92 101 1.93  69 1.93  91 1.98 100 1.99  90 2.01
  28  0.231  0.167  0.404-  94 1.89 100 1.94 132 1.94 102 1.97  95 1.98 101 2.01
  29  0.091  0.167  0.514- 103 1.92 105 1.93 137 1.93 104 1.97  95 2.00 102 2.01
  30  0.869  0.000  0.543-  98 1.86 104 1.94  72 1.94 107 1.94 106 2.01 105 2.03
  31  0.590  1.000  0.514- 107 1.92  77 1.93 109 1.93 108 1.98  99 2.00  98 2.01
  32  0.369  0.167  0.543- 102 1.86 108 1.94 140 1.94 103 1.95 110 2.00 109 2.02
  33  0.237  0.167  0.659- 111 1.86 145 1.93 113 1.94 112 2.00 103 2.09 110 2.10  36 2.85
  34  0.009  1.000  0.682- 106 1.78 114 1.84  80 1.98 112 1.98 113 2.04  35 2.84
  35  0.738  1.000  0.659- 114 1.86  84 1.93 116 1.93 115 2.01 106 2.08 107 2.10  34 2.84
  36  0.508  0.165  0.681- 110 1.78 111 1.84 147 1.96 115 1.97 116 2.06  33 2.85
  37  0.813  0.500  0.229-  57 1.94 119 1.94 121 1.94 120 1.99 118 1.99
  38  0.597  0.333  0.264- 117 1.94 122 1.94 120 1.94  88 1.94 121 1.99 123 1.99
  39  0.313  0.333  0.229- 123 1.94  93 1.94 125 1.94 124 1.99 117 1.99
  40  0.097  0.500  0.264-  60 1.94 118 1.94 126 1.94 124 1.94 125 1.99 119 1.99
  41  0.952  0.500  0.371- 127 1.92  65 1.94 129 1.94 119 1.97 126 1.99 128 2.00
  42  0.732  0.334  0.404- 122 1.89 128 1.93  96 1.94 130 1.96 131 1.99 129 2.00
  43  0.450  0.334  0.371- 131 1.93 133 1.93 101 1.94 123 1.97 132 1.98 122 2.01
  44  0.231  0.500  0.405- 126 1.92  68 1.94 132 1.94 127 1.96 134 1.97 133 2.01
  45  0.094  0.500  0.514- 135 1.91 137 1.93  73 1.93 134 1.98 136 2.00 127 2.01
  46  0.870  0.334  0.542- 130 1.86 136 1.93 104 1.95 139 1.95 137 2.01 138 2.01
  47  0.590  0.334  0.513- 141 1.93 109 1.93 139 1.93 140 1.98 131 1.98 130 2.01
  48  0.371  0.500  0.547- 134 1.92  76 1.94 140 1.94 135 1.94 142 1.98 141 2.03
  49  0.240  0.500  0.660- 143 1.86 145 1.93  81 1.93 142 2.03 144 2.03 135 2.10  52 2.87
  50  0.006  0.334  0.682- 138 1.78 146 1.84 144 1.97 112 1.99 145 2.07  51 2.86
  51  0.735  0.333  0.657- 146 1.89 148 1.93 116 1.94 147 1.99 139 2.04 138 2.10  50 2.86
  52  0.512  0.500  0.688- 143 1.84 142 1.88  83 1.98 147 1.98 148 2.07   1 2.30  49 2.87
  53  0.494  0.667  0.200-   6 1.94   7 1.99
  54  0.994  0.833  0.200-   8 1.94   5 1.99
  55  0.917  0.833  0.294-   5 1.94   9 1.98   8 1.99
  56  0.633  0.833  0.258-  22 1.94   6 1.94   5 1.99
  57  0.778  0.667  0.235-  37 1.94   5 1.94   6 1.99
  58  0.630  0.667  0.340-  10 1.89   6 1.94  11 2.01
  59  0.417  0.667  0.294-   7 1.94  11 1.97   6 1.99
  60  0.133  0.667  0.258-  40 1.94   8 1.94   7 1.99
  61  0.278  0.833  0.235-  23 1.94   7 1.94   8 1.99
  62  0.130  0.833  0.340-  12 1.89   8 1.94   9 2.00
  63  0.054  0.833  0.435-   9 1.92  12 1.98  13 2.00
  64  0.769  0.833  0.399-  26 1.94  10 1.94   9 1.98
  65  0.914  0.667  0.376-   9 1.93  41 1.94  10 2.00
  66  0.769  0.666  0.481-  14 1.86  10 1.96  15 2.01
  67  0.554  0.666  0.435-  11 1.93  15 1.98  10 1.99
  68  0.269  0.667  0.400-  44 1.94  12 1.94  11 1.98
  69  0.414  0.833  0.376-  27 1.93  11 1.94  12 2.01
  70  0.269  0.833  0.481-  16 1.86  12 1.97  13 2.01
  71  0.198  0.833  0.577-  13 1.92  16 1.95  17 2.09
  72  0.909  0.833  0.540-  30 1.94  14 1.95  13 1.97
  73  0.056  0.667  0.517-  13 1.93  45 1.93  14 2.01
  74  0.919  0.667  0.620-  18 1.78  14 2.01  19 2.10
  75  0.699  0.668  0.576-  15 1.93  14 1.95  19 2.04
  76  0.409  0.667  0.541-  48 1.94  16 1.94  15 1.98
  77  0.555  0.833  0.517-  15 1.93  31 1.93  16 2.02
  78  0.418  0.836  0.621-  20 1.78  16 2.00  17 2.10
  79  0.352  0.833  0.717-  20 1.84  17 1.86
  80  0.058  0.833  0.691-  34 1.98  18 1.99  17 2.00
  81  0.200  0.666  0.660-  17 1.93  49 1.93  18 2.07
  82  0.848  0.664  0.716-  18 1.84  19 1.89
  83  0.558  0.669  0.689-  20 1.96  52 1.98  19 1.99
  84  0.701  0.834  0.658-  35 1.93  19 1.94  20 2.06
  85  0.494  0.000  0.200-  22 1.94  23 1.99
  86  0.994  0.167  0.200-  24 1.94  21 1.99
  87  0.917  0.167  0.294-  21 1.94  25 1.98  24 1.99
  88  0.633  0.167  0.258-  22 1.94  38 1.94  21 1.99
  89  0.778  0.000  0.235-   5 1.94  21 1.94  22 1.99
  90  0.630  0.000  0.340-  26 1.89  22 1.94  27 2.01
  91  0.417  0.000  0.294-  23 1.94  27 1.98  22 1.99
  92  0.133  0.000  0.258-   8 1.94  24 1.94  23 1.99
  93  0.278  0.167  0.235-  23 1.94  39 1.94  24 1.99
  94  0.130  0.167  0.340-  28 1.89  24 1.94  25 2.00
  95  0.054  0.167  0.435-  25 1.92  28 1.98  29 2.00
  96  0.769  0.167  0.399-  26 1.94  42 1.94  25 1.98
  97  0.914  0.000  0.376-  25 1.93   9 1.93  26 2.00
  98  0.769  0.000  0.481-  30 1.86  26 1.97  31 2.01
  99  0.554  1.000  0.435-  27 1.92  26 1.98  31 2.00
 100  0.269  0.000  0.400-  12 1.94  28 1.94  27 1.99
 101  0.414  0.167  0.376-  27 1.93  43 1.94  28 2.01
 102  0.269  0.167  0.481-  32 1.86  28 1.97  29 2.01
 103  0.198  0.167  0.577-  29 1.92  32 1.95  33 2.09
 104  0.909  0.167  0.540-  30 1.94  46 1.95  29 1.97
 105  0.056  0.000  0.517-  13 1.93  29 1.93  30 2.03
 106  0.919  0.000  0.621-  34 1.78  30 2.01  35 2.08
 107  0.698  1.000  0.577-  31 1.92  30 1.94  35 2.10
 108  0.408  0.000  0.540-  32 1.94  16 1.94  31 1.98
 109  0.555  0.167  0.517-  47 1.93  31 1.93  32 2.02
 110  0.418  0.164  0.621-  36 1.78  32 2.00  33 2.10
 111  0.352  0.167  0.717-  36 1.84  33 1.86
 112  0.058  0.167  0.691-  34 1.98  50 1.99  33 2.00
 113  0.200  0.000  0.660-  33 1.94  17 1.94  34 2.04
 114  0.852  0.000  0.717-  34 1.84  35 1.86
 115  0.560  0.000  0.692-  36 1.97  20 1.97  35 2.01
 116  0.701  0.166  0.658-  35 1.93  51 1.94  36 2.06
 117  0.494  0.333  0.200-  38 1.94  39 1.99
 118  0.994  0.500  0.200-  40 1.94  37 1.99
 119  0.917  0.500  0.294-  37 1.94  41 1.97  40 1.99
 120  0.633  0.500  0.258-   6 1.94  38 1.94  37 1.99
 121  0.778  0.333  0.235-  21 1.94  37 1.94  38 1.99
 122  0.630  0.333  0.340-  42 1.89  38 1.94  43 2.01
 123  0.417  0.333  0.294-  39 1.94  43 1.97  38 1.99
 124  0.133  0.333  0.258-  24 1.94  40 1.94  39 1.99
 125  0.278  0.500  0.235-   7 1.94  39 1.94  40 1.99
 126  0.130  0.500  0.340-  44 1.92  40 1.94  41 1.99
 127  0.055  0.500  0.435-  41 1.92  44 1.96  45 2.01
 128  0.769  0.500  0.399-  42 1.93  10 1.93  41 2.00
 129  0.914  0.333  0.376-  25 1.93  41 1.94  42 2.00
 130  0.769  0.334  0.481-  46 1.86  42 1.96  47 2.01
 131  0.554  0.334  0.435-  43 1.93  47 1.98  42 1.99
 132  0.269  0.333  0.400-  44 1.94  28 1.94  43 1.98
 133  0.414  0.500  0.376-  11 1.93  43 1.93  44 2.01
 134  0.270  0.500  0.482-  48 1.92  44 1.97  45 1.98
 135  0.197  0.500  0.578-  45 1.91  48 1.94  49 2.10
 136  0.909  0.500  0.540-  46 1.93  14 1.93  45 2.00
 137  0.056  0.333  0.517-  29 1.93  45 1.93  46 2.01
 138  0.919  0.333  0.620-  50 1.78  46 2.01  51 2.10
 139  0.699  0.332  0.576-  47 1.93  46 1.95  51 2.04
 140  0.409  0.333  0.541-  48 1.94  32 1.94  47 1.98
 141  0.555  0.500  0.518-  47 1.93  15 1.93  48 2.03
 142  0.417  0.500  0.624-  52 1.88  48 1.98  49 2.03
 143  0.350  0.500  0.719-  52 1.84  49 1.86
 144  0.057  0.500  0.691-  18 1.97  50 1.97  49 2.03
 145  0.200  0.334  0.660-  33 1.93  49 1.93  50 2.07
 146  0.848  0.336  0.716-  50 1.84  51 1.89
 147  0.558  0.331  0.689-  36 1.96  52 1.98  51 1.99
 148  0.698  0.500  0.657-  19 1.93  51 1.93  52 2.07
 

IMPORTANT INFORMATION: All symmetrisations will be switched off!
NOSYMM: (Re-)initialisation of all symmetry stuff for point group C_1.


----------------------------------------------------------------------------------------

                                     Primitive cell                                     

  volume of cell :    2920.0096

  direct lattice vectors                    reciprocal lattice vectors
    10.273755933  0.000000000  0.000000000     0.097335386 -0.000000000  0.000000000
     0.000000000 11.368810418  0.000000000     0.000000000  0.087959950  0.000000000
     0.000000000  0.000000000 25.000000000     0.000000000  0.000000000  0.040000000

  length of vectors
    10.273755933 11.368810418 25.000000000     0.097335386  0.087959950  0.040000000

  position of ions in fractional coordinates (direct lattice)
     0.617314130  0.499999991  0.768800748
     0.554461951  0.499999990  0.800399715
     0.676411270  0.427964670  0.771865561
     0.676411265  0.572035311  0.771865560
     0.813287731  0.833333334  0.229019326
     0.597302620  0.666666667  0.264243083
     0.313287731  0.666666667  0.229019326
     0.097302620  0.833333334  0.264243083
     0.949951511  0.833365554  0.371561342
     0.731670001  0.666242110  0.403517730
     0.449501935  0.666435021  0.371432058
     0.230826968  0.833291647  0.403876606
     0.090689183  0.833458158  0.514084884
     0.870018681  0.666049809  0.542303570
     0.589612626  0.666489594  0.513264750
     0.368860989  0.833396839  0.543291790
     0.236508386  0.832650555  0.659396207
     0.006320531  0.665563878  0.681574537
     0.734980290  0.666506279  0.656534698
     0.508461603  0.834688342  0.681329757
     0.813287731  0.166666667  0.229019326
     0.597302620  0.000000000  0.264243083
     0.313287731  0.000000000  0.229019326
     0.097302620  0.166666667  0.264243083
     0.949951503  0.166634461  0.371561342
     0.731246509  0.999999998  0.403615753
     0.449681743  0.000000003  0.371540985
     0.230826968  0.166708358  0.403876607
     0.090689199  0.166541855  0.514084884
     0.868842600  0.000000013  0.542859306
     0.590245759  1.000000000  0.513669159
     0.368860985  0.166603176  0.543291793
     0.236508379  0.167349433  0.659396216
     0.008685820  0.999999989  0.681627336
     0.738180083  0.999999993  0.658784529
     0.508461596  0.165311651  0.681329751
     0.813287731  0.500000000  0.229019326
     0.597302620  0.333333334  0.264243083
     0.313287731  0.333333334  0.229019326
     0.097302620  0.500000000  0.264243083
     0.951542762  0.500000012  0.371354192
     0.731670010  0.333757895  0.403517738
     0.449501937  0.333564977  0.371432057
     0.231169387  0.500000003  0.405067062
     0.093781645  0.500000006  0.514353725
     0.870018678  0.333950205  0.542303591
     0.589612639  0.333510412  0.513264751
     0.370727214  0.500000014  0.546756275
     0.240384829  0.499999998  0.660124675
     0.006320524  0.334436118  0.681574564
     0.734980300  0.333493712  0.656534710
     0.511513954  0.499999999  0.687928475
     0.493679476  0.666666667  0.199600285
     0.993679476  0.833333334  0.199600285
     0.916910875  0.833333334  0.293662124
     0.632895986  0.833333334  0.258438368
     0.777694365  0.666666667  0.234824041
     0.629739032  0.666666667  0.340495311
     0.416910875  0.666666667  0.293662124
     0.132895986  0.666666667  0.258438368
     0.277694365  0.833333334  0.234824041
     0.129739032  0.833333334  0.340495311
     0.054424534  0.833486707  0.435305461
     0.769190559  0.833281136  0.399358201
     0.914452492  0.666573466  0.376011355
     0.768901585  0.666481033  0.480591152
     0.554174907  0.666210884  0.435317974
     0.269031015  0.666531439  0.399747527
     0.413868274  0.833274471  0.376010845
     0.268980219  0.832723666  0.481174945
     0.197697921  0.832858348  0.577179503
     0.908976144  0.833415142  0.539791503
     0.055919539  0.666507020  0.517150029
     0.918803505  0.666960856  0.620245551
     0.698829766  0.667619499  0.576210468
     0.409425841  0.666615393  0.541321419
     0.554688944  0.833259085  0.517048062
     0.417559212  0.836055055  0.620852913
     0.352116514  0.832737011  0.716840218
     0.057741065  0.832774722  0.690966383
     0.200366016  0.666303192  0.659826038
     0.848081219  0.663879311  0.715909127
     0.558421245  0.669165762  0.689344328
     0.701045974  0.833967302  0.657973589
     0.493679476  0.000000000  0.199600285
     0.993679476  0.166666667  0.199600285
     0.916910875  0.166666667  0.293662124
     0.632895986  0.166666667  0.258438368
     0.777694365  0.000000000  0.234824041
     0.629739032  0.000000000  0.340495311
     0.416910875  0.000000000  0.293662124
     0.132895986  0.000000000  0.258438368
     0.277694365  0.166666667  0.234824041
     0.129739032  0.166666667  0.340495311
     0.054424531  0.166513296  0.435305458
     0.769190557  0.166718874  0.399358203
     0.914248046  0.000000007  0.375968370
     0.768971052  0.000000007  0.480796246
     0.554416329  0.999999995  0.435200795
     0.269064599  0.000000003  0.399782075
     0.413868275  0.166725534  0.376010845
     0.268980217  0.167276331  0.481174948
     0.197697907  0.167141653  0.577179505
     0.908976143  0.166584876  0.539791512
     0.056021844  0.000000005  0.517355982
     0.918759950  0.000000001  0.620761807
     0.698246809  0.999999997  0.576519513
     0.408431357  0.000000009  0.539817780
     0.554688948  0.166740932  0.517048065
     0.417559188  0.163944936  0.620852919
     0.352116528  0.167262997  0.716840222
     0.057741076  0.167225278  0.690966399
     0.200233120  0.000000010  0.659558315
     0.851786614  0.000000003  0.716747386
     0.560105739  0.000000004  0.691625654
     0.701045984  0.166032706  0.657973586
     0.493679476  0.333333334  0.199600285
     0.993679476  0.500000000  0.199600285
     0.916910875  0.500000000  0.293662124
     0.632895986  0.500000000  0.258438368
     0.777694365  0.333333334  0.234824041
     0.629739032  0.333333334  0.340495311
     0.416910875  0.333333334  0.293662124
     0.132895986  0.333333334  0.258438368
     0.277694365  0.500000000  0.234824041
     0.129739032  0.500000000  0.340495311
     0.055051221  0.500000011  0.435453561
     0.769272302  0.500000000  0.399262927
     0.914452494  0.333426541  0.376011364
     0.768901593  0.333518979  0.480591160
     0.554174919  0.333789120  0.435317979
     0.269031017  0.333468563  0.399747528
     0.414041447  0.500000000  0.376047427
     0.270031344  0.499999996  0.482250772
     0.197289767  0.500000006  0.577910542
     0.908925200  0.500000001  0.539881540
     0.055919541  0.333492993  0.517150031
     0.918803529  0.333039155  0.620245570
     0.698829779  0.332380508  0.576210474
     0.409425843  0.333384615  0.541321421
     0.555318112  0.499999996  0.518012217
     0.417302299  0.500000010  0.623673403
     0.350004229  0.499999997  0.719316531
     0.057243586  0.500000004  0.691127878
     0.200366026  0.333696819  0.659826038
     0.848081214  0.336120666  0.715909145
     0.558421238  0.330834225  0.689344319
     0.698417523  0.499999996  0.656741674

  ion indices of the primitive-cell ions
   primitive index   ion index
                 1           1
                 2           2
                 3           3
                 4           4
                 5           5
                 6           6
                 7           7
                 8           8
                 9           9
                10          10
                11          11
                12          12
                13          13
                14          14
                15          15
                16          16
                17          17
                18          18
                19          19
                20          20
                21          21
                22          22
                23          23
                24          24
                25          25
                26          26
                27          27
                28          28
                29          29
                30          30
                31          31
                32          32
                33          33
                34          34
                35          35
                36          36
                37          37
                38          38
                39          39
                40          40
                41          41
                42          42
                43          43
                44          44
                45          45
                46          46
                47          47
                48          48
                49          49
                50          50
                51          51
                52          52
                53          53
                54          54
                55          55
                56          56
                57          57
                58          58
                59          59
                60          60
                61          61
                62          62
                63          63
                64          64
                65          65
                66          66
                67          67
                68          68
                69          69
                70          70
                71          71
                72          72
                73          73
                74          74
                75          75
                76          76
                77          77
                78          78
                79          79
                80          80
                81          81
                82          82
                83          83
                84          84
                85          85
                86          86
                87          87
                88          88
                89          89
                90          90
                91          91
                92          92
                93          93
                94          94
                95          95
                96          96
                97          97
                98          98
                99          99
               100         100
               101         101
               102         102
               103         103
               104         104
               105         105
               106         106
               107         107
               108         108
               109         109
               110         110
               111         111
               112         112
               113         113
               114         114
               115         115
               116         116
               117         117
               118         118
               119         119
               120         120
               121         121
               122         122
               123         123
               124         124
               125         125
               126         126
               127         127
               128         128
               129         129
               130         130
               131         131
               132         132
               133         133
               134         134
               135         135
               136         136
               137         137
               138         138
               139         139
               140         140
               141         141
               142         142
               143         143
               144         144
               145         145
               146         146
               147         147
               148         148

----------------------------------------------------------------------------------------

 
 
 KPOINTS: pymatgen v2020.8.13 with grid density = 

Automatic generation of k-mesh.
 Grid dimensions read from file:
 generate k-points for:    3    3    1

 Generating k-lattice:

  Cartesian coordinates                     Fractional coordinates (reciprocal lattice)
     0.032445129 -0.000000000  0.000000000     0.333333333  0.000000000  0.000000000
     0.000000000  0.029319983  0.000000000     0.000000000  0.333333333  0.000000000
     0.000000000  0.000000000  0.040000000     0.000000000  0.000000000  1.000000000

  Length of vectors
     0.032445129  0.029319983  0.040000000

  Shift w.r.t. Gamma in fractional coordinates (k-lattice)
     0.000000000  0.000000000  0.000000000

 
 Subroutine IBZKPT returns following result:
 ===========================================
 
 Found      5 irreducible k-points:
 
 Following reciprocal coordinates:
            Coordinates               Weight
  0.000000  0.000000  0.000000      1.000000
  0.333333  0.000000  0.000000      2.000000
  0.000000  0.333333  0.000000      2.000000
  0.333333  0.333333  0.000000      2.000000
  0.333333 -0.333333  0.000000      2.000000
 
 Following cartesian coordinates:
            Coordinates               Weight
  0.000000  0.000000  0.000000      1.000000
  0.032445  0.000000  0.000000      2.000000
  0.000000  0.029320  0.000000      2.000000
  0.032445  0.029320  0.000000      2.000000
  0.032445 -0.029320  0.000000      2.000000
 


--------------------------------------------------------------------------------------------------------




 Dimension of arrays:
   k-points           NKPTS =      5   k-points in BZ     NKDIM =      5   number of bands    NBANDS=    696
   number of dos      NEDOS =    301   number of ions     NIONS =    148
   non local maximal  LDIM  =      6   non local SUM 2l+1 LMDIM =     18
   total plane-waves  NPLWV = ******
   max r-space proj   IRMAX =   3955   max aug-charges    IRDMAX=  18961
   dimension x,y,z NGX =    80 NGY =   90 NGZ =  196
   dimension x,y,z NGXF=   160 NGYF=  180 NGZF=  392
   support grid    NGXF=   160 NGYF=  180 NGZF=  392
   ions per type =               1   3  48  96
   NGX,Y,Z   is equivalent  to a cutoff of  12.95, 13.16, 13.03 a.u.
   NGXF,Y,Z  is equivalent  to a cutoff of  25.89, 26.32, 26.07 a.u.

 SYSTEM =  Oxide-Surface                           
 POSCAR =   N  H Ti  O                             

--------------------------------------------------------------------------------------------------------


  energy-cutoff  :     1000.00
  volume of cell :     2920.01
      direct lattice vectors                 reciprocal lattice vectors
    10.273755933  0.000000000  0.000000000     0.097335386 -0.000000000  0.000000000
     0.000000000 11.368810418  0.000000000     0.000000000  0.087959950  0.000000000
     0.000000000  0.000000000 25.000000000     0.000000000  0.000000000  0.040000000

  length of vectors
    10.273755933 11.368810418 25.000000000     0.097335386  0.087959950  0.040000000


 
 k-points in units of 2pi/SCALE and weight: pymatgen v2020.8.13 with grid density = 
   0.00000000  0.00000000  0.00000000       0.111
   0.03244513  0.00000000  0.00000000       0.222
   0.00000000  0.02931998  0.00000000       0.222
   0.03244513  0.02931998  0.00000000       0.222
   0.03244513 -0.02931998  0.00000000       0.222
 
 k-points in reciprocal lattice and weights: pymatgen v2020.8.13 with grid density = 
   0.00000000  0.00000000  0.00000000       0.111
   0.33333333  0.00000000  0.00000000       0.222
   0.00000000  0.33333333  0.00000000       0.222
   0.33333333  0.33333333  0.00000000       0.222
   0.33333333 -0.33333333  0.00000000       0.222
 
 position of ions in fractional coordinates (direct lattice) 
   0.61731413  0.49999999  0.76880075
   0.55446195  0.49999999  0.80039972
   0.67641127  0.42796467  0.77186556
   0.67641127  0.57203531  0.77186556
   0.81328773  0.83333333  0.22901933
   0.59730262  0.66666667  0.26424308
   0.31328773  0.66666667  0.22901933
   0.09730262  0.83333333  0.26424308
   0.94995151  0.83336555  0.37156134
   0.73167000  0.66624211  0.40351773
   0.44950193  0.66643502  0.37143206
   0.23082697  0.83329165  0.40387661
   0.09068918  0.83345816  0.51408488
   0.87001868  0.66604981  0.54230357
   0.58961263  0.66648959  0.51326475
   0.36886099  0.83339684  0.54329179
   0.23650839  0.83265056  0.65939621
   0.00632053  0.66556388  0.68157454
   0.73498029  0.66650628  0.65653470
   0.50846160  0.83468834  0.68132976
   0.81328773  0.16666667  0.22901933
   0.59730262  0.00000000  0.26424308
   0.31328773  0.00000000  0.22901933
   0.09730262  0.16666667  0.26424308
   0.94995150  0.16663446  0.37156134
   0.73124651  1.00000000  0.40361575
   0.44968174  0.00000000  0.37154098
   0.23082697  0.16670836  0.40387661
   0.09068920  0.16654185  0.51408488
   0.86884260  0.00000001  0.54285931
   0.59024576  1.00000000  0.51366916
   0.36886098  0.16660318  0.54329179
   0.23650838  0.16734943  0.65939622
   0.00868582  0.99999999  0.68162734
   0.73818008  0.99999999  0.65878453
   0.50846160  0.16531165  0.68132975
   0.81328773  0.50000000  0.22901933
   0.59730262  0.33333333  0.26424308
   0.31328773  0.33333333  0.22901933
   0.09730262  0.50000000  0.26424308
   0.95154276  0.50000001  0.37135419
   0.73167001  0.33375790  0.40351774
   0.44950194  0.33356498  0.37143206
   0.23116939  0.50000000  0.40506706
   0.09378164  0.50000001  0.51435372
   0.87001868  0.33395020  0.54230359
   0.58961264  0.33351041  0.51326475
   0.37072721  0.50000001  0.54675628
   0.24038483  0.50000000  0.66012468
   0.00632052  0.33443612  0.68157456
   0.73498030  0.33349371  0.65653471
   0.51151395  0.50000000  0.68792847
   0.49367948  0.66666667  0.19960028
   0.99367948  0.83333333  0.19960028
   0.91691088  0.83333333  0.29366212
   0.63289599  0.83333333  0.25843837
   0.77769436  0.66666667  0.23482404
   0.62973903  0.66666667  0.34049531
   0.41691088  0.66666667  0.29366212
   0.13289599  0.66666667  0.25843837
   0.27769436  0.83333333  0.23482404
   0.12973903  0.83333333  0.34049531
   0.05442453  0.83348671  0.43530546
   0.76919056  0.83328114  0.39935820
   0.91445249  0.66657347  0.37601136
   0.76890159  0.66648103  0.48059115
   0.55417491  0.66621088  0.43531797
   0.26903102  0.66653144  0.39974753
   0.41386827  0.83327447  0.37601084
   0.26898022  0.83272367  0.48117495
   0.19769792  0.83285835  0.57717950
   0.90897614  0.83341514  0.53979150
   0.05591954  0.66650702  0.51715003
   0.91880351  0.66696086  0.62024555
   0.69882977  0.66761950  0.57621047
   0.40942584  0.66661539  0.54132142
   0.55468894  0.83325908  0.51704806
   0.41755921  0.83605505  0.62085291
   0.35211651  0.83273701  0.71684022
   0.05774107  0.83277472  0.69096638
   0.20036602  0.66630319  0.65982604
   0.84808122  0.66387931  0.71590913
   0.55842124  0.66916576  0.68934433
   0.70104597  0.83396730  0.65797359
   0.49367948  0.00000000  0.19960028
   0.99367948  0.16666667  0.19960028
   0.91691088  0.16666667  0.29366212
   0.63289599  0.16666667  0.25843837
   0.77769436  0.00000000  0.23482404
   0.62973903  0.00000000  0.34049531
   0.41691088  0.00000000  0.29366212
   0.13289599  0.00000000  0.25843837
   0.27769436  0.16666667  0.23482404
   0.12973903  0.16666667  0.34049531
   0.05442453  0.16651330  0.43530546
   0.76919056  0.16671887  0.39935820
   0.91424805  0.00000001  0.37596837
   0.76897105  0.00000001  0.48079625
   0.55441633  0.99999999  0.43520080
   0.26906460  0.00000000  0.39978207
   0.41386828  0.16672553  0.37601085
   0.26898022  0.16727633  0.48117495
   0.19769791  0.16714165  0.57717950
   0.90897614  0.16658488  0.53979151
   0.05602184  0.00000001  0.51735598
   0.91875995  0.00000000  0.62076181
   0.69824681  1.00000000  0.57651951
   0.40843136  0.00000001  0.53981778
   0.55468895  0.16674093  0.51704807
   0.41755919  0.16394494  0.62085292
   0.35211653  0.16726300  0.71684022
   0.05774108  0.16722528  0.69096640
   0.20023312  0.00000001  0.65955832
   0.85178661  0.00000000  0.71674739
   0.56010574  0.00000000  0.69162565
   0.70104598  0.16603271  0.65797359
   0.49367948  0.33333333  0.19960028
   0.99367948  0.50000000  0.19960028
   0.91691088  0.50000000  0.29366212
   0.63289599  0.50000000  0.25843837
   0.77769436  0.33333333  0.23482404
   0.62973903  0.33333333  0.34049531
   0.41691088  0.33333333  0.29366212
   0.13289599  0.33333333  0.25843837
   0.27769436  0.50000000  0.23482404
   0.12973903  0.50000000  0.34049531
   0.05505122  0.50000001  0.43545356
   0.76927230  0.50000000  0.39926293
   0.91445249  0.33342654  0.37601136
   0.76890159  0.33351898  0.48059116
   0.55417492  0.33378912  0.43531798
   0.26903102  0.33346856  0.39974753
   0.41404145  0.50000000  0.37604743
   0.27003134  0.50000000  0.48225077
   0.19728977  0.50000001  0.57791054
   0.90892520  0.50000000  0.53988154
   0.05591954  0.33349299  0.51715003
   0.91880353  0.33303915  0.62024557
   0.69882978  0.33238051  0.57621047
   0.40942584  0.33338461  0.54132142
   0.55531811  0.50000000  0.51801222
   0.41730230  0.50000001  0.62367340
   0.35000423  0.50000000  0.71931653
   0.05724359  0.50000000  0.69112788
   0.20036603  0.33369682  0.65982604
   0.84808121  0.33612067  0.71590914
   0.55842124  0.33083423  0.68934432
   0.69841752  0.50000000  0.65674167
 
 position of ions in cartesian coordinates  (Angst):
   6.34213471  5.68440510 19.22001870
   5.69640676  5.68440510 20.00999288
   6.94928429  4.86544920 19.29663903
   6.94928425  6.50336101 19.29663901
   8.35551965  9.47400869  5.72548315
   6.13654133  7.57920695  6.60607707
   3.21864168  7.57920695  5.72548315
   0.99966337  9.47400869  6.60607707
   9.75956997  9.47437499  9.28903355
   7.51699901  7.57438024 10.08794326
   4.61807317  7.57657341  9.28580145
   2.37145993  9.47353476 10.09691514
   0.93171853  9.47542779 12.85212209
   8.93835958  7.57219400 13.55758925
   6.05753622  7.57719384 12.83161876
   3.78958778  9.47473067 13.58229475
   2.42982943  9.46624631 16.48490516
   0.06493559  7.56666954 17.03936343
   7.55100812  7.57738353 16.41336745
   5.22381041  9.48941352 17.03324393
   8.35551965  1.89480174  5.72548315
   6.13654133  0.00000000  6.60607707
   3.21864168  0.00000000  5.72548315
   0.99966337  1.89480174  6.60607707
   9.75956989  1.89443559  9.28903355
   7.51264816 11.36881040 10.09039383
   4.61992047  0.00000004  9.28852462
   2.37145993  1.89527571 10.09691518
   0.93171870  1.89338277 12.85212210
   8.92627682  0.00000015 13.57148266
   6.06404086 11.36881041 12.84172898
   3.78958773  1.89407992 13.58229481
   2.42982936  1.90256398 16.48490539
   0.08923600 11.36881030 17.04068340
   7.58388201 11.36881034 16.46961323
   5.22381034  1.87939681 17.03324376
   8.35551965  5.68440521  5.72548315
   6.13654133  3.78960348  6.60607707
   3.21864168  3.78960348  5.72548315
   0.99966337  5.68440521  6.60607707
   9.77591810  5.68440534  9.28385480
   7.51699910  3.79443024 10.08794345
   4.61807319  3.79223699  9.28580141
   2.37497787  5.68440525 10.12667655
   0.96348973  5.68440528 12.85884312
   8.93835956  3.79661657 13.55758977
   6.05753635  3.79161665 12.83161878
   3.80876092  5.68440537 13.66890688
   2.46965507  5.68440518 16.50311688
   0.06493552  3.80214083 17.03936411
   7.55100822  3.79142678 16.41336775
   5.25516952  5.68440519 17.19821187
   5.07194244  7.57920695  4.99000712
  10.20882041  9.47400869  4.99000712
   9.42011854  9.47400869  7.34155311
   6.50221889  9.47400869  6.46095919
   7.98984209  7.57920695  5.87060104
   6.46978512  7.57920695  8.51238279
   4.28324058  7.57920695  7.34155311
   1.36534092  7.57920695  6.46095919
   2.85296413  9.47400869  5.87060104
   1.33290715  9.47400869  8.51238279
   0.55914438  9.47575236 10.88263653
   7.90247607  9.47341526  9.98395501
   9.39486171  7.57814736  9.40028388
   7.89950723  7.57709651 12.01477880
   5.69345774  7.57402524 10.88294935
   2.76395899  7.57766957  9.99368819
   4.25198164  9.47333949  9.40027112
   2.76343712  9.46707749 12.02937363
   2.03110019  9.46860866 14.42948756
   9.33859905  9.47493874 13.49478756
   0.57450370  7.57739195 12.92875072
   9.43956296  7.58255153 15.50613877
   7.17960645  7.59003951 14.40526169
   4.20634117  7.57862403 13.53303547
   5.69873883  9.47316457 12.92620155
   4.28990143  9.50495142 15.52132283
   3.61755912  9.46722921 17.92100545
   0.59321761  9.46765794 17.27415957
   2.05851155  7.57507467 16.49565094
   8.71297945  7.54751803 17.89772817
   5.73708358  7.60761868 17.23360819
   7.20237524  9.48121615 16.44933973
   5.07194244  0.00000000  4.99000712
  10.20882041  1.89480174  4.99000712
   9.42011854  1.89480174  7.34155311
   6.50221889  1.89480174  6.46095919
   7.98984209  0.00000000  5.87060104
   6.46978512  0.00000000  8.51238279
   4.28324058  0.00000000  7.34155311
   1.36534092  0.00000000  6.46095919
   2.85296413  1.89480174  5.87060104
   1.33290715  1.89480174  8.51238279
   0.55914435  1.89305810 10.88263644
   7.90247605  1.89539527  9.98395508
   9.39276129  0.00000008  9.39920926
   7.90022090  0.00000008 12.01990616
   5.69593805 11.36881036 10.88001988
   2.76430402  0.00000003  9.99455187
   4.25198165  1.89547098  9.40027113
   2.76343710  1.90173289 12.02937369
   2.03110004  1.90020176 14.42948761
   9.33859904  1.89387188 13.49478779
   0.57555475  0.00000006 12.93389956
   9.43911549  0.00000001 15.51904519
   7.17361730 11.36881038 14.41298784
   4.19612408  0.00000010 13.49544450
   5.69873887  1.89564604 12.92620163
   4.28990118  1.86385890 15.52132299
   3.61755927  1.90158131 17.92100555
   0.59321772  1.90115249 17.27415998
   2.05714620  0.00000011 16.48895789
   8.75104778  0.00000004 17.91868465
   5.75438966  0.00000005 17.29064134
   7.20237534  1.88759436 16.44933966
   5.07194244  3.78960348  4.99000712
  10.20882041  5.68440521  4.99000712
   9.42011854  5.68440521  7.34155311
   6.50221889  5.68440521  6.46095919
   7.98984209  3.78960348  5.87060104
   6.46978512  3.78960348  8.51238279
   4.28324058  3.78960348  7.34155311
   1.36534092  3.78960348  6.46095919
   2.85296413  5.68440521  5.87060104
   1.33290715  5.68440521  8.51238279
   0.56558281  5.68440533 10.88633903
   7.90331588  5.68440521  9.98157318
   9.39486174  3.79066313  9.40028409
   7.89950731  3.79171404 12.01477899
   5.69345786  3.79478523 10.88294946
   2.76395901  3.79114087  9.99368820
   4.25376077  5.68440521  9.40118568
   2.77423612  5.68440516 12.05626931
   2.02690691  5.68440528 14.44776356
   9.33807566  5.68440522 13.49703850
   0.57450371  3.79141861 12.92875077
   9.43956320  3.78625901 15.50613925
   7.17960659  3.77877099 14.40526184
   4.20634118  3.79018648 13.53303552
   5.70520275  5.68440517 12.95030542
   4.28726197  5.68440532 15.59183508
   3.59585802  5.68440518 17.98291328
   0.58810663  5.68440526 17.27819695
   2.05851165  3.79373587 16.49565094
   8.71297940  3.82129212 17.89772862
   5.73708351  3.76119158 17.23360797
   7.17537117  5.68440516 16.41854186
 


--------------------------------------------------------------------------------------------------------

--------------------------------------- Iteration      FINAL  ---------------------------------------


--------------------OUTCAR has been truncated-------------------------


--------------------OUTCAR has been truncated-------------------------


--------------------OUTCAR has been truncated-------------------------


--------------------OUTCAR has been truncated-------------------------


--------------------OUTCAR has been truncated-------------------------


--------------------OUTCAR has been truncated-------------------------


--------------------OUTCAR has been truncated-------------------------


--------------------OUTCAR has been truncated-------------------------


--------------------OUTCAR has been truncated-------------------------


--------------------OUTCAR has been truncated-------------------------


    MIXING:  cpu time      0.1112: real time      0.1135
    OFIELD:  cpu time      0.0000: real time      0.0000

  Hirshfeld charges:
            ion         q(e)     
   ------------------------------
      1     N          -0.192
      2     H           0.142
      3     H           0.125
      4     H           0.125
      5     Ti          0.821
      6     Ti          0.706
      7     Ti          0.821
      8     Ti          0.706
      9     Ti          0.736
     10     Ti          0.734
     11     Ti          0.738
     12     Ti          0.734
     13     Ti          0.732
     14     Ti          0.729
     15     Ti          0.736
     16     Ti          0.729
     17     Ti          0.725
     18     Ti          0.761
     19     Ti          0.719
     20     Ti          0.757
     21     Ti          0.821
     22     Ti          0.706
     23     Ti          0.821
     24     Ti          0.706
     25     Ti          0.736
     26     Ti          0.734
     27     Ti          0.737
     28     Ti          0.734
     29     Ti          0.732
     30     Ti          0.729
     31     Ti          0.733
     32     Ti          0.729
     33     Ti          0.725
     34     Ti          0.761
     35     Ti          0.721
     36     Ti          0.757
     37     Ti          0.821
     38     Ti          0.706
     39     Ti          0.821
     40     Ti          0.705
     41     Ti          0.736
     42     Ti          0.734
     43     Ti          0.738
     44     Ti          0.735
     45     Ti          0.731
     46     Ti          0.729
     47     Ti          0.736
     48     Ti          0.732
     49     Ti          0.723
     50     Ti          0.761
     51     Ti          0.719
     52     Ti          0.728
     53     O          -0.402
     54     O          -0.402
     55     O          -0.356
     56     O          -0.380
     57     O          -0.389
     58     O          -0.368
     59     O          -0.356
     60     O          -0.380
     61     O          -0.389
     62     O          -0.367
     63     O          -0.367
     64     O          -0.368
     65     O          -0.369
     66     O          -0.364
     67     O          -0.367
     68     O          -0.367
     69     O          -0.369
     70     O          -0.363
     71     O          -0.366
     72     O          -0.369
     73     O          -0.370
     74     O          -0.346
     75     O          -0.367
     76     O          -0.369
     77     O          -0.370
     78     O          -0.347
     79     O          -0.371
     80     O          -0.398
     81     O          -0.387
     82     O          -0.376
     83     O          -0.391
     84     O          -0.387
     85     O          -0.402
     86     O          -0.402
     87     O          -0.356
     88     O          -0.380
     89     O          -0.390
     90     O          -0.367
     91     O          -0.356
     92     O          -0.380
     93     O          -0.389
     94     O          -0.367
     95     O          -0.367
     96     O          -0.368
     97     O          -0.369
     98     O          -0.363
     99     O          -0.367
    100     O          -0.367
    101     O          -0.369
    102     O          -0.363
    103     O          -0.366
    104     O          -0.369
    105     O          -0.370
    106     O          -0.346
    107     O          -0.365
    108     O          -0.369
    109     O          -0.370
    110     O          -0.347
    111     O          -0.371
    112     O          -0.398
    113     O          -0.387
    114     O          -0.371
    115     O          -0.398
    116     O          -0.387
    117     O          -0.402
    118     O          -0.402
    119     O          -0.356
    120     O          -0.380
    121     O          -0.389
    122     O          -0.368
    123     O          -0.356
    124     O          -0.380
    125     O          -0.389
    126     O          -0.368
    127     O          -0.366
    128     O          -0.368
    129     O          -0.369
    130     O          -0.364
    131     O          -0.367
    132     O          -0.367
    133     O          -0.369
    134     O          -0.366
    135     O          -0.365
    136     O          -0.370
    137     O          -0.370
    138     O          -0.346
    139     O          -0.367
    140     O          -0.369
    141     O          -0.370
    142     O          -0.363
    143     O          -0.369
    144     O          -0.402
    145     O          -0.387
    146     O          -0.376
    147     O          -0.391
    148     O          -0.380

  Hirshfeld-I charges:
            ion         q(e)        dq(e)    
   ------------------------------------------
      1     N          -1.315     -0.483E-04
      2     H           0.445      0.128E-04
      3     H           0.433      0.129E-04
      4     H           0.433      0.129E-04
      5     Ti          2.032     -0.212E-10
      6     Ti          2.067     -0.626E-10
      7     Ti          2.032     -0.626E-11
      8     Ti          2.067      0.131E-10
      9     Ti          2.098      0.527E-10
     10     Ti          2.108     -0.987E-09
     11     Ti          2.099      0.414E-09
     12     Ti          2.104      0.239E-09
     13     Ti          2.090     -0.124E-08
     14     Ti          2.100      0.233E-07
     15     Ti          2.096      0.148E-07
     16     Ti          2.107      0.216E-08
     17     Ti          2.043      0.924E-08
     18     Ti          2.009     -0.501E-07
     19     Ti          2.045     -0.364E-06
     20     Ti          2.004     -0.321E-06
     21     Ti          2.032     -0.213E-10
     22     Ti          2.067      0.624E-11
     23     Ti          2.032     -0.197E-10
     24     Ti          2.067      0.125E-10
     25     Ti          2.098      0.527E-10
     26     Ti          2.106      0.580E-09
     27     Ti          2.098     -0.773E-11
     28     Ti          2.104      0.239E-09
     29     Ti          2.090     -0.124E-08
     30     Ti          2.099     -0.542E-08
     31     Ti          2.091     -0.573E-08
     32     Ti          2.107      0.216E-08
     33     Ti          2.043      0.924E-08
     34     Ti          2.005     -0.193E-08
     35     Ti          2.043      0.427E-07
     36     Ti          2.004     -0.321E-06
     37     Ti          2.032     -0.344E-10
     38     Ti          2.067     -0.626E-10
     39     Ti          2.032     -0.677E-11
     40     Ti          2.066      0.667E-10
     41     Ti          2.097     -0.213E-09
     42     Ti          2.108     -0.987E-09
     43     Ti          2.099      0.414E-09
     44     Ti          2.103      0.210E-08
     45     Ti          2.090     -0.759E-08
     46     Ti          2.100      0.233E-07
     47     Ti          2.096      0.148E-07
     48     Ti          2.098      0.856E-07
     49     Ti          2.047     -0.125E-06
     50     Ti          2.009     -0.501E-07
     51     Ti          2.045     -0.364E-06
     52     Ti          2.061      0.318E-05
     53     O          -0.896      0.368E-10
     54     O          -0.896     -0.126E-10
     55     O          -1.007      0.826E-10
     56     O          -1.073     -0.580E-10
     57     O          -1.109      0.857E-11
     58     O          -1.061      0.678E-09
     59     O          -1.008     -0.181E-09
     60     O          -1.072      0.845E-11
     61     O          -1.109      0.291E-10
     62     O          -1.060     -0.191E-09
     63     O          -1.038      0.375E-09
     64     O          -1.052     -0.588E-09
     65     O          -1.057     -0.560E-09
     66     O          -1.055      0.129E-07
     67     O          -1.040     -0.505E-08
     68     O          -1.053      0.112E-08
     69     O          -1.056      0.108E-09
     70     O          -1.055     -0.362E-08
     71     O          -1.022      0.834E-08
     72     O          -1.056      0.946E-08
     73     O          -1.058     -0.432E-08
     74     O          -1.021     -0.337E-07
     75     O          -1.031     -0.169E-06
     76     O          -1.057      0.313E-07
     77     O          -1.056      0.755E-08
     78     O          -1.023     -0.726E-07
     79     O          -0.886     -0.616E-08
     80     O          -1.083     -0.306E-08
     81     O          -1.084     -0.400E-07
     82     O          -0.896      0.449E-06
     83     O          -1.056      0.263E-05
     84     O          -1.087     -0.195E-06
     85     O          -0.896      0.388E-11
     86     O          -0.896     -0.126E-10
     87     O          -1.007      0.828E-10
     88     O          -1.073     -0.581E-10
     89     O          -1.109      0.184E-10
     90     O          -1.060      0.265E-10
     91     O          -1.008     -0.104E-10
     92     O          -1.073     -0.182E-10
     93     O          -1.109      0.314E-10
     94     O          -1.060     -0.191E-09
     95     O          -1.038      0.375E-09
     96     O          -1.052     -0.588E-09
     97     O          -1.057      0.702E-10
     98     O          -1.054     -0.304E-08
     99     O          -1.039     -0.539E-09
    100     O          -1.052      0.394E-09
    101     O          -1.056      0.108E-09
    102     O          -1.055     -0.362E-08
    103     O          -1.022      0.834E-08
    104     O          -1.056      0.946E-08
    105     O          -1.058     -0.255E-08
    106     O          -1.022      0.864E-08
    107     O          -1.021      0.281E-07
    108     O          -1.057      0.907E-08
    109     O          -1.056      0.755E-08
    110     O          -1.023     -0.726E-07
    111     O          -0.886     -0.616E-08
    112     O          -1.083     -0.306E-08
    113     O          -1.089      0.484E-08
    114     O          -0.885      0.950E-08
    115     O          -1.088      0.919E-07
    116     O          -1.087     -0.195E-06
    117     O          -0.896      0.368E-10
    118     O          -0.896     -0.154E-10
    119     O          -1.008      0.221E-09
    120     O          -1.073     -0.900E-10
    121     O          -1.109      0.857E-11
    122     O          -1.061      0.678E-09
    123     O          -1.008     -0.181E-09
    124     O          -1.072      0.787E-11
    125     O          -1.109      0.458E-10
    126     O          -1.057     -0.746E-09
    127     O          -1.040      0.366E-08
    128     O          -1.053     -0.122E-08
    129     O          -1.057     -0.560E-09
    130     O          -1.055      0.129E-07
    131     O          -1.040     -0.505E-08
    132     O          -1.053      0.112E-08
    133     O          -1.056      0.698E-09
    134     O          -1.052     -0.215E-07
    135     O          -1.022      0.870E-07
    136     O          -1.058     -0.180E-07
    137     O          -1.058     -0.432E-08
    138     O          -1.021     -0.337E-07
    139     O          -1.031     -0.169E-06
    140     O          -1.057      0.313E-07
    141     O          -1.054      0.125E-07
    142     O          -1.054     -0.815E-06
    143     O          -0.872      0.131E-05
    144     O          -1.090      0.829E-08
    145     O          -1.084     -0.400E-07
    146     O          -0.896      0.449E-06
    147     O          -1.056      0.263E-05
    148     O          -1.049      0.192E-05

   Hirshfeld-I converged in  34 cycles. Convergence criterion |dq|< 0.500E-04 e

  Atomic reference data used in the T-S method for vdW correction:
            C6at              R0at           ALPHAat      REFSTATE
            (au)              (au)            (au)                
   ---------------------------------------------------------------
   N          24.200          3.345          7.400         0
   H           6.500          3.099          4.500         0
   Ti       1044.000          4.516         98.000         0
   O          15.600          3.194          5.400         0

  Tkatchenko/Scheffler method for vdW energy calculation
  ---------------------------------------------------------------------------------------------

  Parameters of vdW forcefield:
            C6ts              R0ts           ALPHAts        RELVOL
            (au)              (au)            (au)                
   ---------------------------------------------------------------
   N          74.016          4.030         12.941          1.74885068
   H           0.602          2.085          1.370          0.30434478
   H           0.852          2.209          1.629          0.36198010
   H           0.852          2.209          1.629          0.36198042
   Ti         75.051          2.912         26.276          0.26811827
   Ti         77.474          2.928         26.696          0.27241205
   Ti         75.034          2.912         26.273          0.26808870
   Ti         77.481          2.928         26.698          0.27242506
   Ti         75.625          2.916         26.376          0.26914185
   Ti         75.033          2.912         26.273          0.26808682
   Ti         75.525          2.915         26.358          0.26896398
   Ti         75.195          2.913         26.301          0.26837523
   Ti         76.099          2.919         26.458          0.26998412
   Ti         75.438          2.915         26.343          0.26880923
   Ti         75.691          2.916         26.387          0.26925896
   Ti         75.233          2.913         26.307          0.26844274
   Ti         78.381          2.933         26.852          0.27400128
   Ti         76.236          2.920         26.482          0.27022699
   Ti         78.439          2.934         26.862          0.27410282
   Ti         76.377          2.921         26.507          0.27047592
   Ti         75.050          2.912         26.275          0.26811642
   Ti         77.472          2.928         26.696          0.27240855
   Ti         75.034          2.912         26.273          0.26808889
   Ti         77.481          2.928         26.698          0.27242460
   Ti         75.625          2.916         26.376          0.26914205
   Ti         75.091          2.913         26.283          0.26818956
   Ti         75.572          2.916         26.367          0.26904754
   Ti         75.195          2.913         26.301          0.26837620
   Ti         76.099          2.919         26.458          0.26998362
   Ti         75.494          2.915         26.353          0.26890771
   Ti         75.998          2.918         26.441          0.26980467
   Ti         75.233          2.913         26.307          0.26844300
   Ti         78.381          2.933         26.852          0.27400200
   Ti         76.442          2.921         26.518          0.27059182
   Ti         78.467          2.934         26.867          0.27415195
   Ti         76.377          2.921         26.507          0.27047623
   Ti         75.061          2.912         26.277          0.26813552
   Ti         77.475          2.928         26.697          0.27241466
   Ti         75.035          2.912         26.273          0.26809037
   Ti         77.545          2.928         26.709          0.27253704
   Ti         75.662          2.916         26.382          0.26920817
   Ti         75.034          2.912         26.273          0.26808755
   Ti         75.525          2.915         26.359          0.26896440
   Ti         75.376          2.914         26.333          0.26869911
   Ti         76.122          2.919         26.462          0.27002509
   Ti         75.438          2.915         26.343          0.26880895
   Ti         75.691          2.916         26.387          0.26925915
   Ti         75.691          2.916         26.387          0.26925929
   Ti         78.311          2.933         26.840          0.27387909
   Ti         76.237          2.920         26.482          0.27022775
   Ti         78.439          2.934         26.862          0.27410278
   Ti         76.259          2.920         26.486          0.27026831
   O          39.048          3.721          8.543          1.58209680
   O          39.041          3.721          8.543          1.58196669
   O          47.129          3.840          9.386          1.73812977
   O          51.263          3.894          9.789          1.81274762
   O          52.946          3.915          9.948          1.84227370
   O          50.494          3.884          9.715          1.79910485
   O          47.133          3.840          9.386          1.73820308
   O          51.261          3.894          9.789          1.81271851
   O          52.937          3.915          9.947          1.84211205
   O          50.477          3.884          9.714          1.79879903
   O          49.056          3.866          9.576          1.77330328
   O          49.992          3.878          9.667          1.79014478
   O          50.416          3.883          9.708          1.79771407
   O          50.155          3.880          9.683          1.79305813
   O          49.173          3.867          9.587          1.77541824
   O          50.076          3.879          9.675          1.79164050
   O          50.369          3.883          9.703          1.79687242
   O          50.257          3.881          9.692          1.79488240
   O          47.968          3.851          9.469          1.75351705
   O          50.422          3.883          9.708          1.79781495
   O          50.604          3.886          9.726          1.80105526
   O          47.869          3.850          9.459          1.75170764
   O          48.607          3.860          9.532          1.76516665
   O          50.477          3.884          9.714          1.79880243
   O          50.400          3.883          9.706          1.79743292
   O          47.990          3.851          9.471          1.75392085
   O          36.377          3.678          8.246          1.52703267
   O          49.586          3.872          9.627          1.78286028
   O          51.948          3.903          9.854          1.82482329
   O          37.166          3.691          8.335          1.54350618
   O          48.388          3.857          9.510          1.76119383
   O          52.131          3.905          9.871          1.82803776
   O          39.040          3.721          8.542          1.58193923
   O          39.041          3.721          8.543          1.58195605
   O          47.134          3.840          9.386          1.73820657
   O          51.264          3.894          9.789          1.81277594
   O          52.946          3.915          9.948          1.84226713
   O          50.478          3.884          9.714          1.79881767
   O          47.151          3.840          9.388          1.73852491
   O          51.263          3.894          9.789          1.81275499
   O          52.937          3.915          9.947          1.84210917
   O          50.474          3.884          9.713          1.79875258
   O          49.056          3.866          9.576          1.77329314
[...]
   -.512E+02 0.135E+02 -.121E+04   0.538E+02 -.140E+02 0.121E+04   -.263E+01 0.554E+00 0.891E+01   0.111E-02 -.414E-03 -.345E-01
   0.676E+02 0.142E+02 -.223E+04   -.724E+02 -.141E+02 0.225E+04   0.484E+01 -.181E+00 -.196E+02   0.155E-02 -.220E-02 -.181E-01
   0.705E+02 0.479E+01 -.195E+04   -.753E+02 -.465E+01 0.196E+04   0.484E+01 -.138E+00 -.766E+01   0.202E-02 -.104E-02 -.267E-01
   -.707E+02 0.169E-03 -.158E+04   0.767E+02 -.110E-03 0.158E+04   -.612E+01 0.217E-04 0.344E+01   -.394E-02 -.697E-04 -.344E-01
   0.510E+02 0.325E-04 -.224E+04   -.559E+02 0.792E-05 0.226E+04   0.491E+01 0.781E-06 -.196E+02   0.387E-02 -.398E-04 -.172E-01
   0.661E+02 0.520E-04 -.196E+04   -.703E+02 -.279E-04 0.197E+04   0.423E+01 0.172E-05 -.827E+01   0.493E-03 -.330E-04 -.278E-01
   -.757E+02 0.127E+02 -.156E+04   0.814E+02 -.125E+02 0.156E+04   -.576E+01 -.213E+00 0.341E+01   -.377E-02 -.137E-02 -.364E-01
   -.399E+02 0.170E+00 0.221E+04   0.453E+02 -.173E+00 -.222E+04   -.727E+01 0.157E-02 0.168E+02   0.147E-01 0.740E-03 -.256E-01
   -.404E+02 -.470E-04 0.221E+04   0.458E+02 -.281E-05 -.222E+04   -.729E+01 -.263E-04 0.168E+02   0.104E-01 0.781E-04 -.257E-01
   0.956E+02 -.206E-03 0.132E+04   -.999E+02 -.251E-04 -.131E+04   0.327E+01 -.201E-04 -.489E+01   0.774E-02 0.246E-03 -.176E-01
   0.891E+02 -.509E-03 0.161E+04   -.963E+02 -.554E-05 -.161E+04   0.760E+01 -.127E-03 -.279E+01   -.119E-01 0.621E-03 -.200E-01
   -.101E+03 0.133E+00 0.186E+04   0.108E+03 -.131E+00 -.186E+04   -.714E+01 -.321E-02 -.691E+00   -.559E-02 0.472E-03 -.201E-01
   -.796E+02 0.877E+00 0.102E+04   0.855E+02 -.926E+00 -.103E+04   -.607E+01 0.462E-01 0.432E+01   -.461E-03 0.185E-03 -.221E-01
   0.953E+02 -.651E-01 0.132E+04   -.994E+02 0.456E-01 -.131E+04   0.313E+01 0.210E-01 -.471E+01   0.105E-01 -.588E-04 -.158E-01
   0.881E+02 -.507E-01 0.161E+04   -.953E+02 0.623E-01 -.160E+04   0.763E+01 -.228E-01 -.281E+01   -.139E-01 -.580E-03 -.184E-01
   -.101E+03 -.194E-03 0.186E+04   0.108E+03 -.263E-05 -.186E+04   -.710E+01 -.121E-03 -.717E+00   -.484E-02 0.215E-03 -.195E-01
   -.930E+02 -.621E-04 0.102E+04   0.998E+02 -.271E-04 -.102E+04   -.681E+01 0.708E-05 0.429E+01   -.203E-04 0.855E-04 -.210E-01
   0.955E+02 0.107E-04 0.135E+03   -.103E+03 -.712E-05 -.130E+03   0.715E+01 0.114E-05 -.489E+01   -.620E-03 -.569E-05 -.241E-01
   0.890E+02 -.524E-04 0.457E+03   -.953E+02 0.319E-05 -.454E+03   0.634E+01 0.242E-04 -.290E+01   -.133E-02 0.452E-04 -.229E-01
   -.927E+02 -.294E+00 0.725E+03   0.993E+02 0.272E+00 -.727E+03   -.666E+01 0.220E-01 0.280E+01   0.228E-02 -.174E-03 -.210E-01
   -.736E+02 0.155E+01 -.108E+03   0.788E+02 -.161E+01 0.103E+03   -.531E+01 0.526E-01 0.494E+01   -.610E-03 -.132E-03 -.239E-01
   0.922E+02 -.108E+01 0.145E+03   -.985E+02 0.114E+01 -.141E+03   0.638E+01 -.536E-01 -.401E+01   -.131E-02 0.698E-04 -.245E-01
   0.902E+02 -.773E+00 0.451E+03   -.967E+02 0.749E+00 -.448E+03   0.659E+01 0.234E-01 -.297E+01   -.975E-03 -.440E-04 -.225E-01
   -.877E+02 -.187E-03 0.724E+03   0.940E+02 -.242E-04 -.726E+03   -.636E+01 -.251E-04 0.284E+01   0.234E-02 0.244E-03 -.209E-01
   -.949E+02 0.447E-04 -.127E+03   0.102E+03 -.503E-04 0.122E+03   -.711E+01 0.369E-05 0.445E+01   -.483E-03 0.252E-05 -.236E-01
   0.101E+03 0.204E-04 -.106E+04   -.108E+03 -.206E-04 0.106E+04   0.697E+01 -.354E-07 -.687E+01   0.122E-02 -.442E-06 -.324E-01
   0.822E+02 0.173E-05 -.696E+03   -.883E+02 0.117E-04 0.699E+03   0.613E+01 0.291E-06 -.306E+01   0.591E-03 -.107E-04 -.316E-01
   -.938E+02 0.550E+00 -.434E+03   0.100E+03 -.603E+00 0.431E+03   -.655E+01 0.528E-01 0.285E+01   0.191E-03 0.115E-04 -.291E-01
   -.723E+02 0.104E+02 -.121E+04   0.755E+02 -.107E+02 0.120E+04   -.323E+01 0.320E+00 0.904E+01   0.143E-02 -.541E-03 -.356E-01
   0.938E+02 0.923E+01 -.102E+04   -.100E+03 -.949E+01 0.103E+04   0.642E+01 0.265E+00 -.533E+01   0.285E-05 -.353E-03 -.332E-01
   0.926E+02 0.926E+00 -.711E+03   -.990E+02 -.945E+00 0.714E+03   0.651E+01 0.181E-01 -.330E+01   -.165E-03 0.709E-03 -.313E-01
   -.847E+02 0.267E-05 -.438E+03   0.910E+02 0.201E-04 0.436E+03   -.633E+01 0.739E-05 0.254E+01   -.849E-03 -.262E-04 -.290E-01
   -.726E+02 -.249E-04 -.124E+04   0.788E+02 0.126E-04 0.123E+04   -.625E+01 -.476E-07 0.594E+01   -.111E-02 0.108E-04 -.367E-01
   0.121E+03 0.802E-05 -.221E+04   -.126E+03 0.848E-05 0.223E+04   0.527E+01 -.750E-05 -.191E+02   -.115E-02 -.843E-05 -.207E-01
   0.537E+02 -.163E-03 -.194E+04   -.574E+02 0.809E-05 0.195E+04   0.368E+01 -.526E-04 -.734E+01   0.361E-02 0.181E-03 -.285E-01
   -.590E+02 0.625E+01 -.158E+04   0.642E+02 -.618E+01 0.157E+04   -.528E+01 -.694E-01 0.323E+01   -.330E-02 0.104E-02 -.356E-01
   0.233E+02 0.306E+02 -.221E+04   -.281E+02 -.305E+02 0.223E+04   0.481E+01 -.888E-01 -.184E+02   0.526E-02 -.225E-02 -.211E-01
   0.886E+02 0.460E+02 -.188E+04   -.937E+02 -.456E+02 0.189E+04   0.510E+01 -.393E+00 -.630E+01   0.401E-03 -.181E-02 -.318E-01
   -.778E+02 -.391E-04 -.149E+04   0.826E+02 0.139E-05 0.148E+04   -.483E+01 -.139E-04 0.440E+01   -.376E-02 0.464E-04 -.378E-01
 -----------------------------------------------------------------------------------------------
   -.307E+01 0.875E-04 0.611E+02   -.284E-13 -.469E-12 -.121E-10   0.306E+01 0.787E-04 -.556E+02   0.677E-01 -.814E-04 -.508E+01
 
 
 POSITION                                       TOTAL-FORCE (eV/Angst)
 -----------------------------------------------------------------------------------
      6.34213      5.68441     19.22002        -0.083436     -0.000001      0.029143
      5.69641      5.68441     20.00999        -0.022519     -0.000000      0.025949
      6.94928      4.86545     19.29664         0.040992     -0.052267     -0.005558
      6.94928      6.50336     19.29664         0.040993      0.052268     -0.005558
      8.35552      9.47401      5.72548         3.858729      0.000622      1.712783
      6.13654      7.57921      6.60608        -1.660127      0.000468     -1.939155
      3.21864      7.57921      5.72548         3.830438     -0.002948      1.699573
      0.99966      9.47401      6.60608        -1.690047     -0.005750     -1.943784
      9.75957      9.47437      9.28903        -0.008777      0.000364     -0.013535
      7.51700      7.57438     10.08794         0.018147     -0.003954      0.021453
      4.61807      7.57657      9.28580         0.004834      0.002718      0.001483
      2.37146      9.47353     10.09692        -0.014226      0.001927      0.010829
      0.93172      9.47543     12.85212        -0.028792     -0.002101     -0.028064
      8.93836      7.57219     13.55759         0.018720     -0.012972      0.055578
      6.05754      7.57719     12.83162        -0.011539     -0.007411     -0.033970
      3.78959      9.47473     13.58229         0.022311     -0.002194      0.030085
      2.42983      9.46625     16.48491        -0.000230     -0.005395      0.024211
      0.06494      7.56667     17.03936        -0.017478     -0.013673      0.005045
      7.55101      7.57738     16.41337         0.001338      0.023293      0.025586
      5.22381      9.48941     17.03324        -0.046263      0.002585      0.001852
      8.35552      1.89480      5.72548         3.858789     -0.000643      1.712766
      6.13654      0.00000      6.60608        -1.675991     -0.000021     -1.941982
      3.21864      0.00000      5.72548         3.848664     -0.000023      1.705852
      0.99966      1.89480      6.60608        -1.690049      0.005754     -1.943828
      9.75957      1.89444      9.28903        -0.008766     -0.000349     -0.013551
      7.51265     11.36881     10.09039         0.005819     -0.000011      0.030393
      4.61992      0.00000      9.28852         0.004356     -0.000008     -0.011535
      2.37146      1.89528     10.09692        -0.014219     -0.001932      0.010849
      0.93172      1.89338     12.85212        -0.028809      0.002097     -0.028051
      8.92628      0.00000     13.57148         0.017336      0.000011      0.019520
      6.06404     11.36881     12.84173        -0.022529      0.000002     -0.013858
      3.78959      1.89408     13.58229         0.022329      0.002194      0.030062
      2.42983      1.90256     16.48491        -0.000204      0.005397      0.024214
      0.08924     11.36881     17.04068        -0.040446     -0.000011      0.021960
      7.58388     11.36881     16.46961         0.000322     -0.000006      0.009056
      5.22381      1.87940     17.03324        -0.046289     -0.002581      0.001862
      8.35552      5.68441      5.72548         3.871967      0.000024      1.710871
      6.13654      3.78960      6.60608        -1.660163     -0.000450     -1.939115
      3.21864      3.78960      5.72548         3.830407      0.003005      1.699422
      0.99966      5.68441      6.60608        -1.660396     -0.000006     -1.877365
      9.77592      5.68441      9.28385        -0.018793     -0.000004     -0.016556
      7.51700      3.79443     10.08794         0.018157      0.003962      0.021475
      4.61807      3.79224      9.28580         0.004831     -0.002708      0.001446
      2.37498      5.68441     10.12668         0.022410      0.000002     -0.022522
      0.96349      5.68441     12.85884        -0.019433      0.000009     -0.056317
      8.93836      3.79662     13.55759         0.018665      0.012953      0.055535
      6.05754      3.79162     12.83162        -0.011543      0.007403     -0.033968
      3.80876      5.68441     13.66891         0.030536     -0.000008      0.045482
      2.46966      5.68441     16.50312        -0.006815      0.000003      0.032275
      0.06494      3.80214     17.03936        -0.017480      0.013690      0.005033
      7.55101      3.79143     16.41337         0.001297     -0.023275      0.025611
      5.25517      5.68441     17.19821         0.016728      0.000005      0.111833
      5.07194      7.57921      4.99001        -1.794368     -0.000110      1.022767
     10.20882      9.47401      4.99001        -1.791348      0.000362      1.020385
      9.42012      9.47401      7.34155        -0.960756     -0.000804     -0.198337
      6.50222      9.47401      6.46096         0.422565     -0.001436     -0.089645
      7.98984      7.57921      5.87060         0.224113      0.001073     -1.080348
      6.46979      7.57921      8.51238        -0.116994      0.002684      0.453002
      4.28324      7.57921      7.34155        -0.965794     -0.001499     -0.183861
      1.36534      7.57921      6.46096         0.433132      0.011926     -0.097850
      2.85296      9.47401      5.87060         0.233914     -0.002257     -1.081804
      1.33291      9.47401      8.51238        -0.060449     -0.002512      0.486128
      0.55914      9.47575     10.88264         0.045950      0.000863     -0.007001
      7.90248      9.47342      9.98396         0.036968      0.002111     -0.006944
      9.39486      7.57815      9.40028        -0.044683      0.000298      0.027609
      7.89951      7.57710     12.01478        -0.044172      0.000726      0.016814
      5.69346      7.57403     10.88295         0.042691     -0.002131     -0.009719
      2.76396      7.57767      9.99369         0.037039      0.001643     -0.015504
      4.25198      9.47334      9.40027        -0.042050     -0.001407      0.026366
      2.76344      9.46708     12.02937        -0.043920      0.005011      0.013507
      2.03110      9.46861     14.42949         0.055377      0.001261     -0.001796
      9.33860      9.47494     13.49479         0.047705     -0.002822     -0.006576
      0.57450      7.57739     12.92875        -0.044084     -0.000061      0.001890
      9.43956      7.58255     15.50614        -0.034559     -0.006283      0.055812
      7.17961      7.59004     14.40526         0.041755     -0.006428     -0.003725
      4.20634      7.57862     13.53304         0.050342      0.001080     -0.014306
      5.69874      9.47316     12.92620        -0.044466     -0.005093      0.007881
      4.28990      9.50495     15.52132        -0.035767     -0.002345      0.045142
      3.61756      9.46723     17.92101         0.059601      0.002734     -0.090141
      0.59322      9.46766     17.27416         0.034718     -0.002639      0.019712
      2.05851      7.57507     16.49565        -0.077191     -0.001503      0.036770
      8.71298      7.54752     17.89773         0.076628      0.015378     -0.072151
      5.73708      7.60762     17.23361         0.037322      0.028261      0.007573
      7.20238      9.48122     16.44934        -0.081617     -0.006156      0.032673
      5.07194      0.00000      4.99001        -1.792959      0.000003      1.021837
     10.20882      1.89480      4.99001        -1.791403     -0.000365      1.020404
      9.42012      1.89480      7.34155        -0.960788      0.000806     -0.198351
      6.50222      1.89480      6.46096         0.422600      0.001455     -0.089636
      7.98984      0.00000      5.87060         0.226628      0.000042     -1.080938
      6.46979      0.00000      8.51238        -0.102069      0.000002      0.444239
      4.28324      0.00000      7.34155        -0.965075     -0.000001     -0.186707
      1.36534      0.00000      6.46096         0.428482      0.000005     -0.090032
      2.85296      1.89480      5.87060         0.233932      0.002358     -1.081806
      1.33291      1.89480      8.51238        -0.060461      0.002509      0.486120
      0.55914      1.89306     10.88264         0.045929     -0.000863     -0.007016
      7.90248      1.89540      9.98396         0.036970     -0.002133     -0.006948
      9.39276      0.00000      9.39921        -0.040975      0.000007      0.025231
      7.90022      0.00000     12.01991        -0.046577      0.000000      0.015819
      5.69594     11.36881     10.88002         0.048433      0.000001     -0.009211
      2.76430      0.00000      9.99455         0.035787     -0.000003     -0.017747
      4.25198      1.89547      9.40027        -0.042052      0.001397      0.026370
      2.76344      1.90173     12.02937        -0.043907     -0.005010      0.013517
      2.03110      1.90020     14.42949         0.055394     -0.001260     -0.001776
      9.33860      1.89387     13.49479         0.047703      0.002817     -0.006575
      0.57555      0.00000     12.93390        -0.051039     -0.000010      0.015535
      9.43912      0.00000     15.51905        -0.032296     -0.000002      0.057531
      7.17362     11.36881     14.41299         0.057535     -0.000000      0.000868
      4.19612      0.00000     13.49544         0.052548      0.000002     -0.003287
      5.69874      1.89565     12.92620        -0.044471      0.005086      0.007881
      4.28990      1.86386     15.52132        -0.035777      0.002344      0.045125
      3.61756      1.90158     17.92101         0.059584     -0.002735     -0.090146
      0.59322      1.90115     17.27416         0.034722      0.002662      0.019698
      2.05715      0.00000     16.48896        -0.077775      0.000010      0.037454
      8.75105      0.00000     17.91868         0.066433      0.000001     -0.094746
      5.75439      0.00000     17.29064         0.035159     -0.000008      0.015170
      7.20238      1.88759     16.44934        -0.081606      0.006161      0.032674
      5.07194      3.78960      4.99001        -1.794414      0.000102      1.022799
     10.20882      5.68441      4.99001        -1.804854      0.000001      1.005952
      9.42012      5.68441      7.34155        -0.978711     -0.000006     -0.216513
      6.50222      5.68441      6.46096         0.419535     -0.000020     -0.089667
      7.98984      3.78960      5.87060         0.224112     -0.001111     -1.080324
      6.46979      3.78960      8.51238        -0.116985     -0.002687      0.452971
      4.28324      3.78960      7.34155        -0.965844      0.001499     -0.183914
      1.36534      3.78960      6.46096         0.433228     -0.011931     -0.097883
      2.85296      5.68441      5.87060         0.238961     -0.000103     -1.088055
      1.33291      5.68441      8.51238        -0.012003      0.000003      0.584301
      0.56558      5.68441     10.88634         0.047320     -0.000002     -0.010172
      7.90332      5.68441      9.98157         0.038327      0.000019     -0.006144
      9.39486      3.79066      9.40028        -0.044664     -0.000306      0.027598
      7.89951      3.79171     12.01478        -0.044173     -0.000728      0.016833
      5.69346      3.79479     10.88295         0.042676      0.002130     -0.009711
      2.76396      3.79114      9.99369         0.037024     -0.001641     -0.015497
      4.25376      5.68441      9.40119        -0.041237      0.000008      0.029761
      2.77424      5.68441     12.05627        -0.035324     -0.000000      0.011731
      2.02691      5.68441     14.44776         0.050695     -0.000001     -0.010540
      9.33808      5.68441     13.49704         0.048289      0.000002     -0.008405
      0.57450      3.79142     12.92875        -0.044082      0.000070      0.001891
      9.43956      3.78626     15.50614        -0.034533      0.006280      0.055844
      7.17961      3.77877     14.40526         0.041756      0.006426     -0.003718
      4.20634      3.79019     13.53304         0.050335     -0.001085     -0.014302
      5.70520      5.68441     12.95031        -0.047955      0.000003      0.010799
      4.28726      5.68441     15.59184        -0.047973     -0.000002      0.020510
      3.59586      5.68441     17.98291         0.017395     -0.000000     -0.077593
      0.58811      5.68441     17.27820         0.033195     -0.000028      0.022151
      2.05851      3.79374     16.49565        -0.077207      0.001489      0.036770
      8.71298      3.82129     17.89773         0.076661     -0.015378     -0.072150
      5.73708      3.76119     17.23361         0.037325     -0.028253      0.007573
      7.17537      5.68441     16.41854        -0.066836     -0.000006     -0.008588
 -----------------------------------------------------------------------------------
    total drift:                                0.060931      0.000085      0.344815


--------------------------------------------------------------------------------------------------------



  FREE ENERGIE OF THE ION-ELECTRON SYSTEM (eV)
  ---------------------------------------------------
  free  energy   TOTEN  =     -1320.05277990 eV

  energy  without entropy=    -1320.05277990  energy(sigma->0) =    -1320.05277990
 


--------------------------------------------------------------------------------------------------------


    POTLOK:  cpu time      2.1699: real time      2.1863


--------------------------------------------------------------------------------------------------------


     LOOP+:  cpu time   2311.1519: real time   2316.8964
    4ORBIT:  cpu time      0.0000: real time      0.0000

 total amount of memory used by VASP MPI-rank0  3380686. kBytes
=======================================================================

   base      :      30000. kBytes
   nonlr-proj:      43718. kBytes
   fftplans  :     100785. kBytes
   grid      :     260582. kBytes
   one-center:       2301. kBytes
   wavefun   :    2943300. kBytes
 
  
  
 General timing and accounting informations for this job:
 ========================================================
  
                  Total CPU time used (sec):     2341.468
                            User time (sec):     2337.887
                          System time (sec):        3.581
                         Elapsed time (sec):     2354.658
  
                   Maximum memory used (kb):     4706720.
                   Average memory used (kb):          N/A
  
                          Minor page faults:       342555
                          Major page faults:           63
                 Voluntary context switches:        44634
