 vasp.6.3.0 20Jan22 (build Aug 21 2024 11:13:42) complex                         
 executed on        HPECrayEX_GCC date 2024.11.27  01:45:08
 running  512 mpi-ranks, with    1 threads/rank
 distrk:  each k-point on  512 cores,    1 groups
 distr:  one band on NCORE=  16 cores,   32 groups


--------------------------------------------------------------------------------------------------------


 INCAR:
   SYSTEM = TiO2
   ISMEAR = 0
   SIGMA = 0.05
   EDIFF = 1E-4
   ALGO = ALL
   ISTART = 0
   IBRION = -1
   NSW = 0
   ISYM = 0
   ISIF = 2
   EDIFFG = -0.01
   DIPOL = 0.5 0.5 0.5
   IDIPOL = 3
   LDIPOL = .TRUE.
   LHFCALC = .TRUE.
   HFSCREEN = 0.2
   GGA = PE
   IVDW = 13
   VDW_S8 = 1.19528249
   VDW_A1 = 0.38663183
   VDW_A2 = 5.19133469
   ENCUT = 520
   PREC = Normal
   PRECFOCK = Fast
   LASPH = .TRUE.
   LREAL = .FALSE.
   ISPIN = 1
   NKREDX = 3
   NKREDY = 3
   NELM = 200
   NELMIN = 8
   NCORE = 16
   KPAR = 1
   LWAVE = .FALSE.
   LCHARG = .FALSE.

 POTCAR:    PAW_PBE Ti 08Apr2002                  
 POTCAR:    PAW_PBE O 08Apr2002                   
 POTCAR:    PAW_PBE Ti 08Apr2002                  
   SHA256 =  f8e8f1d080d9e9b45e792f1068744b07aba8441d1e7ce11486a5d4c0f5a1479e Ti/POTCAR             
   COPYR  = (c) Copyright 08Apr2002 Georg Kresse                                                    
   COPYR  = This file is part of the software VASP. Any use, copying, and all other rights are regul
   COPYR  = If you do not have a valid VASP license, you may not use, copy or distribute this file. 
   VRHFIN =Ti: d3 s1                                                                                
   LEXCH  = PE                                                                                      
   EATOM  =    94.7928 eV,    6.9671 Ry                                                             
                                                                                                    
   TITEL  = PAW_PBE Ti 08Apr2002                                                                    
   LULTRA =        F    use ultrasoft PP ?                                                          
   IUNSCR =        1    unscreen: 0-lin 1-nonlin 2-no                                               
   RPACOR =    2.200    partial core radius                                                         
   POMASS =   47.880; ZVAL   =    4.000    mass and valenz                                          
   RCORE  =    2.800    outmost cutoff radius                                                       
   RWIGS  =    2.500; RWIGS  =    1.323    wigner-seitz radius (au A)                               
   ENMAX  =  178.330; ENMIN  =  133.747 eV                                                          
   RCLOC  =    2.215    cutoff for local pot                                                        
   LCOR   =        T    correct aug charges                                                         
   LPAW   =        T    paw PP                                                                      
   EAUG   =  328.883                                                                                
   DEXC   =    0.000                                                                                
   RMAX   =    2.868    core radius for proj-oper                                                   
   RAUG   =    1.300    factor for augmentation sphere                                              
   RDEP   =    2.885    radius for radial grids                                                     
   RDEPT  =    2.320    core radius for aug-charge                                                  
                                                                                                    
   Atomic configuration                                                                             
    9 entries                                                                                       
     n  l   j            E        occ.                                                              
     1  0  0.50     -4865.3608   2.0000                                                             
     2  0  0.50      -533.1367   2.0000                                                             
     2  1  1.50      -440.5031   6.0000                                                             
     3  0  0.50       -59.3186   2.0000                                                             
     3  1  1.50       -35.7012   6.0000                                                             
     3  2  2.50        -1.9157   3.0000                                                             
     4  0  0.50        -3.7291   1.0000                                                             
     4  1  1.50        -4.0817   0.0000                                                             
     4  3  2.50        -1.3606   0.0000                                                             
   Description                                                                                      
     l       E           TYP  RCUT    TYP  RCUT                                                     
     2     -1.9156924     23  2.800                                                                 
     2     -0.4062961     23  2.800                                                                 
     0     -3.7290832     23  2.800                                                                 
     0     20.4087390     23  2.800                                                                 
     1     -5.4423304     23  2.800                                                                 
  local pseudopotential read in
  partial core-charges read in
  partial kinetic energy density read in
  atomic valenz-charges read in
  non local Contribution for L=           2  read in
    real space projection operators read in
  non local Contribution for L=           2  read in
    real space projection operators read in
  non local Contribution for L=           0  read in
    real space projection operators read in
  non local Contribution for L=           0  read in
    real space projection operators read in
  non local Contribution for L=           1  read in
    real space projection operators read in
    PAW grid and wavefunctions read in

   number of l-projection  operators is LMAX  =           5
   number of lm-projection operators is LMMAX =          15

 POTCAR:    PAW_PBE O 08Apr2002                   
   SHA256 =  818f92134a0a090dccd8ba1447fa70422a3b330e708bb4f08108d8ae51209ddf O/POTCAR              
   COPYR  = (c) Copyright 08Apr2002 Georg Kresse                                                    
   COPYR  = This file is part of the software VASP. Any use, copying, and all other rights are regul
   COPYR  = If you do not have a valid VASP license, you may not use, copy or distribute this file. 
   VRHFIN =O: s2p4                                                                                  
   LEXCH  = PE                                                                                      
   EATOM  =   432.3788 eV,   31.7789 Ry                                                             
                                                                                                    
   TITEL  = PAW_PBE O 08Apr2002                                                                     
   LULTRA =        F    use ultrasoft PP ?                                                          
   IUNSCR =        1    unscreen: 0-lin 1-nonlin 2-no                                               
   RPACOR =    1.200    partial core radius                                                         
   POMASS =   16.000; ZVAL   =    6.000    mass and valenz                                          
   RCORE  =    1.520    outmost cutoff radius                                                       
   RWIGS  =    1.550; RWIGS  =    0.820    wigner-seitz radius (au A)                               
   ENMAX  =  400.000; ENMIN  =  300.000 eV                                                          
   ICORE  =        2    local potential                                                             
   LCOR   =        T    correct aug charges                                                         
   LPAW   =        T    paw PP                                                                      
   EAUG   =  605.392                                                                                
   DEXC   =    0.000                                                                                
   RMAX   =    1.553    core radius for proj-oper                                                   
   RAUG   =    1.300    factor for augmentation sphere                                              
   RDEP   =    1.550    radius for radial grids                                                     
   RDEPT  =    1.329    core radius for aug-charge                                                  
                                                                                                    
   Atomic configuration                                                                             
    4 entries                                                                                       
     n  l   j            E        occ.                                                              
     1  0  0.50      -514.6923   2.0000                                                             
     2  0  0.50       -23.9615   2.0000                                                             
     2  1  0.50        -9.0305   4.0000                                                             
     3  2  1.50        -9.5241   0.0000                                                             
   Description                                                                                      
     l       E           TYP  RCUT    TYP  RCUT                                                     
     0    -23.9615318     23  1.200                                                                 
     0     -9.5240782     23  1.200                                                                 
     1     -9.0304911     23  1.520                                                                 
     1      8.1634956     23  1.520                                                                 
     2     -9.5240782      7  1.500                                                                 
  local pseudopotential read in
  partial core-charges read in
  partial kinetic energy density read in
  kinetic energy density of atom read in
  atomic valenz-charges read in
  non local Contribution for L=           0  read in
    real space projection operators read in
  non local Contribution for L=           0  read in
    real space projection operators read in
  non local Contribution for L=           1  read in
    real space projection operators read in
  non local Contribution for L=           1  read in
    real space projection operators read in
    PAW grid and wavefunctions read in

   number of l-projection  operators is LMAX  =           4
   number of lm-projection operators is LMMAX =           8

 -----------------------------------------------------------------------------
|                                                                             |
|               ----> ADVICE to this user running VASP <----                  |
|                                                                             |
|     You have a (more or less) 'large supercell' and for larger cells it     |
|     might be more efficient to use real-space projection operators.         |
|     Therefore, try LREAL= Auto in the INCAR file.                           |
|     Mind: For very accurate calculation, you might also keep the            |
|     reciprocal projection scheme (i.e. LREAL=.FALSE.).                      |
|                                                                             |
 -----------------------------------------------------------------------------

  PAW_PBE Ti 08Apr2002                  :
 energy of atom  1       EATOM=  -94.7928
 kinetic energy error for atom=    0.0002 (will be added to EATOM!!)
  PAW_PBE O 08Apr2002                   :
 energy of atom  2       EATOM= -432.3788
 kinetic energy error for atom=    0.0208 (will be added to EATOM!!)


 POSCAR: Ti  O
  positions in direct lattice
  No initial velocities read in
 WARNING: Using user supplied parameters
     VDW_S8 = 1.195
     VDW_A1 = 0.387
     VDW_A2 = 5.191
     because the xc functional is not supported. Required parameters not
     defined in the INCAR file will be replaced with PBE defaults ones.

 exchange correlation table for  LEXCH =        8
   RHO(1)=    0.500       N(1)  =     2000
   RHO(2)=  100.500       N(2)  =     4000



--------------------------------------------------------------------------------------------------------


 ion  position               nearest neighbor table
   1  0.808  0.833  0.295-  85 1.94  53 1.94  51 1.94  50 1.99  52 1.99  18 3.05   4 3.05   2 3.05

   2  0.592  0.667  0.327-  49 1.94 116 1.94  52 1.94  54 1.94  53 1.99  55 1.99  33 3.05   3 3.05
                             1 3.05   7 3.08
   3  0.308  0.667  0.295- 121 1.94  57 1.94  55 1.94  49 1.99  56 1.99  36 3.05   2 3.05   4 3.05

   4  0.092  0.833  0.327-  50 1.94  88 1.94  56 1.94  58 1.94  57 1.99  51 1.99  19 3.05   1 3.05
                             3 3.05   5 3.08
   5  0.945  0.833  0.423-  59 1.92  93 1.93  61 1.94  51 1.98  60 1.98  58 2.00   8 3.00   6 3.04
                            22 3.05   4 3.08
   6  0.727  0.666  0.451-  54 1.89 124 1.93  60 1.94  62 1.96  63 1.99  61 2.00   7 3.01   5 3.04
                            37 3.05  11 3.10
   7  0.444  0.666  0.422-  63 1.93 129 1.93  65 1.93  55 1.97  64 1.99  54 2.00   6 3.01   8 3.05
                            40 3.05   2 3.08
   8  0.226  0.833  0.452-  58 1.90  96 1.94  64 1.94  66 1.97  59 1.97  65 2.01   5 3.00  23 3.05
                             7 3.05   9 3.11
   9  0.086  0.834  0.550-  67 1.92 101 1.93  69 1.94  68 1.97  66 2.01  59 2.01  12 2.95  10 3.04
                            26 3.05   8 3.11
  10  0.865  0.666  0.575-  62 1.86 132 1.93  68 1.94  71 1.95  69 2.01  70 2.01  11 2.98   9 3.04
                            41 3.05  15 3.17
  11  0.584  0.667  0.549- 137 1.93  71 1.93  73 1.93  63 1.97  72 1.98  62 2.02  10 2.98  12 3.05
                            44 3.06   6 3.10
  12  0.364  0.833  0.577-  66 1.86 104 1.94  72 1.94  67 1.95  74 2.00  73 2.02   9 2.95  27 3.05
                            11 3.05
  13  0.231  0.833  0.681-  75 1.86  77 1.93 109 1.94  76 2.00  67 2.10  74 2.10  16 2.85  30 3.07
                            14 3.09
  14  1.000  0.666  0.700-  70 1.78  78 1.84 140 1.97  76 1.98  77 2.07  15 2.86  13 3.09  45 3.10

  15  0.729  0.666  0.677-  78 1.90 144 1.92  80 1.94  79 1.99  71 2.03  70 2.10  14 2.86  16 3.08
                            48 3.08  10 3.17
  16  0.503  0.834  0.700-  74 1.78  75 1.84  79 1.97 111 1.97  80 2.06  13 2.85  31 3.07  15 3.08

  17  0.808  0.167  0.295-  85 1.94 117 1.94  83 1.94  82 1.99  84 1.99  18 3.05  20 3.05  34 3.05

  18  0.592  0.000  0.327-  81 1.94  52 1.94  84 1.94  86 1.94  85 1.99  87 1.99   1 3.05  17 3.05
                            19 3.05  23 3.08
  19  0.308  0.000  0.295-  57 1.94  89 1.94  87 1.94  81 1.99  88 1.99  20 3.05   4 3.05  18 3.05

  20  0.092  0.167  0.327-  82 1.94  88 1.94 120 1.94  90 1.94  89 1.99  83 1.99  19 3.05  17 3.05
                            35 3.05  21 3.08
  21  0.945  0.167  0.423-  91 1.92  93 1.93 125 1.94  83 1.98  92 1.98  90 2.00  24 3.00  38 3.04
                            22 3.05  20 3.08
  22  0.726  0.000  0.451-  86 1.89  92 1.94  60 1.94  94 1.97  95 1.98  93 2.00  23 3.00   5 3.05
                            21 3.05  27 3.11
  23  0.444  1.000  0.423-  95 1.92  65 1.93  97 1.93  87 1.98  96 1.99  86 2.00  22 3.00  24 3.05
                             8 3.05  18 3.08
  24  0.226  0.167  0.452-  90 1.90  96 1.94 128 1.94  98 1.97  91 1.97  97 2.01  21 3.00  23 3.05
                            39 3.05  25 3.11
  25  0.086  0.166  0.550-  99 1.92 101 1.93 133 1.94 100 1.97  98 2.01  91 2.01  28 2.95  42 3.04
                            26 3.05  24 3.11
  26  0.864  1.000  0.576-  94 1.86  68 1.94 100 1.94 103 1.94 102 2.01 101 2.03  27 2.96   9 3.05
                            25 3.05
  27  0.585  1.000  0.550- 103 1.92  73 1.93 105 1.93 104 1.98  95 2.00  94 2.01  26 2.96  12 3.05
                            28 3.05  22 3.11
  28  0.364  0.167  0.577-  98 1.86 104 1.94 136 1.94  99 1.95 106 2.00 105 2.02  25 2.95  27 3.05
                            43 3.05
  29  0.231  0.167  0.681- 107 1.86 141 1.93 109 1.94 108 2.00  99 2.10 106 2.10  32 2.85  30 3.07
                            46 3.09
  30  0.003  1.000  0.700- 102 1.78 110 1.83  76 1.98 108 1.98 109 2.04  31 2.84  13 3.07  29 3.07

  31  0.732  1.000  0.680- 110 1.86  80 1.93 112 1.93 111 2.00 102 2.09 103 2.10  30 2.84  16 3.07
                            32 3.07
  32  0.503  0.166  0.700- 106 1.78 107 1.84 143 1.97 111 1.97 112 2.06  29 2.85  31 3.07  47 3.08

  33  0.808  0.500  0.295-  53 1.94 117 1.94 115 1.94 114 1.99 116 1.99  34 3.05   2 3.05  36 3.05

  34  0.592  0.333  0.327- 113 1.94 116 1.94  84 1.94 118 1.94 117 1.99 119 1.99  33 3.05  35 3.05
                            17 3.05  39 3.08
  35  0.308  0.333  0.295- 121 1.94  89 1.94 119 1.94 113 1.99 120 1.99  36 3.05  34 3.05  20 3.05

  36  0.092  0.500  0.327- 114 1.94  56 1.94 120 1.94 122 1.94 121 1.99 115 1.99   3 3.05  35 3.05
                            33 3.05  37 3.07
  37  0.946  0.500  0.422- 123 1.93  61 1.94 125 1.94 115 1.97 122 1.98 124 2.00  40 2.99   6 3.05
                            38 3.05  36 3.07
  38  0.727  0.334  0.451- 118 1.89 124 1.93  92 1.94 126 1.96 127 1.99 125 2.00  39 3.01  21 3.04
                            37 3.05  43 3.10
  39  0.444  0.334  0.422- 127 1.93 129 1.93  97 1.93 119 1.97 128 1.99 118 2.00  38 3.01  24 3.05
                            40 3.05  34 3.08
  40  0.226  0.500  0.453- 122 1.92  64 1.94 128 1.94 123 1.96 130 1.97 129 2.01  37 2.99   7 3.05
                            39 3.05  41 3.07
  41  0.089  0.500  0.550- 131 1.92  69 1.93 133 1.93 130 1.98 132 2.00 123 2.01  44 2.96  10 3.05
                            42 3.05  40 3.07
  42  0.865  0.334  0.575- 126 1.86 132 1.93 100 1.94 135 1.95 133 2.01 134 2.01  43 2.98  25 3.04
                            41 3.05  47 3.17
  43  0.584  0.333  0.549- 137 1.93 135 1.93 105 1.93 127 1.97 136 1.98 126 2.02  42 2.98  28 3.05
                            44 3.06  38 3.10
  44  0.366  0.500  0.580- 130 1.91  72 1.94 136 1.94 131 1.94 138 1.99 137 2.03  41 2.96  11 3.06
                            43 3.06  45 3.14
  45  0.234  0.500  0.681- 139 1.86 141 1.93  77 1.93 140 2.03 138 2.05 131 2.09  48 2.87  46 3.10
                            14 3.10  44 3.14
  46  1.000  0.334  0.700- 134 1.78 142 1.84 140 1.97 108 1.98 141 2.07  47 2.86  29 3.09  45 3.10

  47  0.729  0.334  0.677- 142 1.90 144 1.92 112 1.94 143 1.99 135 2.03 134 2.10  46 2.86  32 3.08
                            48 3.08  42 3.17
  48  0.505  0.500  0.706- 139 1.82 138 1.86  79 1.98 143 1.98 144 2.12  45 2.87  15 3.08  47 3.08

  49  0.488  0.667  0.269-   2 1.94   3 1.99
  50  0.988  0.833  0.269-   4 1.94   1 1.99
  51  0.911  0.833  0.353-   1 1.94   5 1.98   4 1.99
  52  0.627  0.833  0.321-  18 1.94   2 1.94   1 1.99
  53  0.772  0.667  0.300-  33 1.94   1 1.94   2 1.99
  54  0.624  0.667  0.395-   6 1.89   2 1.94   7 2.00
  55  0.411  0.667  0.353-   3 1.94   7 1.97   2 1.99
  56  0.127  0.667  0.321-  36 1.94   4 1.94   3 1.99
  57  0.272  0.833  0.300-  19 1.94   3 1.94   4 1.99
  58  0.124  0.833  0.395-   8 1.90   4 1.94   5 2.00
  59  0.049  0.834  0.480-   5 1.92   8 1.97   9 2.01
  60  0.764  0.833  0.447-  22 1.94   6 1.94   5 1.98
  61  0.909  0.667  0.427-   5 1.94  37 1.94   6 2.00
  62  0.764  0.666  0.520-  10 1.86   6 1.96  11 2.02
  63  0.549  0.666  0.480-   7 1.93  11 1.97   6 1.99
  64  0.264  0.667  0.448-  40 1.94   8 1.94   7 1.99
  65  0.409  0.833  0.427-   7 1.93  23 1.93   8 2.01
  66  0.264  0.833  0.521-  12 1.86   8 1.97   9 2.01
  67  0.193  0.833  0.607-   9 1.92  12 1.95  13 2.10
  68  0.904  0.834  0.573-  26 1.94  10 1.94   9 1.97
  69  0.051  0.666  0.553-  41 1.93   9 1.94  10 2.01
  70  0.914  0.668  0.645-  14 1.78  10 2.01  15 2.10
  71  0.694  0.669  0.605-  11 1.93  10 1.95  15 2.03
  72  0.405  0.666  0.575-  44 1.94  12 1.94  11 1.98
  73  0.549  0.833  0.553-  27 1.93  11 1.93  12 2.02
  74  0.412  0.835  0.646-  16 1.78  12 2.00  13 2.10
  75  0.346  0.833  0.732-  16 1.84  13 1.86
  76  0.051  0.833  0.709-  30 1.98  14 1.98  13 2.00
  77  0.194  0.666  0.681-  13 1.93  45 1.93  14 2.07
  78  0.841  0.661  0.731-  14 1.84  15 1.90
  79  0.554  0.668  0.708-  16 1.97  48 1.98  15 1.99
  80  0.695  0.834  0.679-  31 1.93  15 1.94  16 2.06
  81  0.488  0.000  0.269-  18 1.94  19 1.99
  82  0.988  0.167  0.269-  20 1.94  17 1.99
  83  0.911  0.167  0.353-  17 1.94  21 1.98  20 1.99
  84  0.627  0.167  0.321-  18 1.94  34 1.94  17 1.99
  85  0.772  0.000  0.300-   1 1.94  17 1.94  18 1.99
  86  0.624  0.000  0.395-  22 1.89  18 1.94  23 2.00
  87  0.411  0.000  0.353-  19 1.94  23 1.98  18 1.99
  88  0.127  0.000  0.321-   4 1.94  20 1.94  19 1.99
  89  0.272  0.167  0.300-  19 1.94  35 1.94  20 1.99
  90  0.124  0.167  0.395-  24 1.90  20 1.94  21 2.00
  91  0.049  0.166  0.480-  21 1.92  24 1.97  25 2.01
  92  0.764  0.167  0.447-  22 1.94  38 1.94  21 1.98
  93  0.909  0.000  0.427-  21 1.93   5 1.93  22 2.00
  94  0.764  1.000  0.520-  26 1.86  22 1.97  27 2.01
  95  0.549  1.000  0.480-  23 1.92  22 1.98  27 2.00
  96  0.264  1.000  0.448-  24 1.94   8 1.94  23 1.99
  97  0.409  0.167  0.427-  39 1.93  23 1.93  24 2.01
  98  0.264  0.167  0.521-  28 1.86  24 1.97  25 2.01
  99  0.193  0.167  0.607-  25 1.92  28 1.95  29 2.10
 100  0.904  0.166  0.573-  26 1.94  42 1.94  25 1.97
 101  0.051  1.000  0.553-  25 1.93   9 1.93  26 2.03
 102  0.913  1.000  0.646-  30 1.78  26 2.01  31 2.09
 103  0.693  1.000  0.606-  27 1.92  26 1.94  31 2.10
 104  0.404  1.000  0.574-  28 1.94  12 1.94  27 1.98
 105  0.549  0.167  0.553-  27 1.93  43 1.93  28 2.02
 106  0.412  0.165  0.646-  32 1.78  28 2.00  29 2.10
 107  0.346  0.167  0.732-  32 1.84  29 1.86
 108  0.051  0.167  0.709-  30 1.98  46 1.98  29 2.00
 109  0.194  1.000  0.681-  29 1.94  13 1.94  30 2.04
 110  0.846  1.000  0.731-  30 1.83  31 1.86
 111  0.554  1.000  0.709-  32 1.97  16 1.97  31 2.00
 112  0.695  0.166  0.679-  31 1.93  47 1.94  32 2.06
 113  0.488  0.333  0.269-  34 1.94  35 1.99
 114  0.988  0.500  0.269-  36 1.94  33 1.99
 115  0.911  0.500  0.353-  33 1.94  37 1.97  36 1.99
 116  0.627  0.500  0.321-   2 1.94  34 1.94  33 1.99
 117  0.772  0.333  0.300-  33 1.94  17 1.94  34 1.99
 118  0.624  0.333  0.395-  38 1.89  34 1.94  39 2.00
 119  0.411  0.333  0.353-  35 1.94  39 1.97  34 1.99
 120  0.127  0.333  0.321-  36 1.94  20 1.94  35 1.99
 121  0.272  0.500  0.300-   3 1.94  35 1.94  36 1.99
 122  0.124  0.500  0.395-  40 1.92  36 1.94  37 1.98
 123  0.050  0.500  0.480-  37 1.93  40 1.96  41 2.01
 124  0.764  0.500  0.447-   6 1.93  38 1.93  37 2.00
 125  0.909  0.333  0.427-  21 1.94  37 1.94  38 2.00
 126  0.764  0.334  0.520-  42 1.86  38 1.96  43 2.02
 127  0.549  0.334  0.480-  39 1.93  43 1.97  38 1.99
 128  0.264  0.333  0.448-  40 1.94  24 1.94  39 1.99
 129  0.409  0.500  0.427-  39 1.93   7 1.93  40 2.01
 130  0.265  0.500  0.522-  44 1.91  40 1.97  41 1.98
 131  0.193  0.500  0.608-  41 1.92  44 1.94  45 2.09
 132  0.904  0.500  0.573-  42 1.93  10 1.93  41 2.00
 133  0.051  0.334  0.553-  41 1.93  25 1.94  42 2.01
 134  0.914  0.332  0.645-  46 1.78  42 2.01  47 2.10
 135  0.694  0.331  0.605-  43 1.93  42 1.95  47 2.03
 136  0.405  0.334  0.575-  44 1.94  28 1.94  43 1.98
 137  0.551  0.500  0.554-  11 1.93  43 1.93  44 2.03
 138  0.413  0.500  0.649-  48 1.86  44 1.99  45 2.05
 139  0.344  0.500  0.734-  48 1.82  45 1.86
 140  0.051  0.500  0.708-  46 1.97  14 1.97  45 2.03
 141  0.194  0.334  0.681-  29 1.93  45 1.93  46 2.07
 142  0.841  0.339  0.731-  46 1.84  47 1.90
 143  0.554  0.332  0.708-  32 1.97  48 1.98  47 1.99
 144  0.693  0.500  0.675-  47 1.92  15 1.92  48 2.12


IMPORTANT INFORMATION: All symmetrisations will be switched off!
NOSYMM: (Re-)initialisation of all symmetry stuff for point group C_1.


----------------------------------------------------------------------------------------

                                     Primitive cell                                     

  volume of cell :    3260.5577

  direct lattice vectors                    reciprocal lattice vectors
    10.272661001  0.000000000  0.000000000     0.097345761 -0.000000000  0.000000000
     0.000000000 11.368814841  0.000000000     0.000000000  0.087959916  0.000000000
     0.000000000  0.000000000 27.918606646     0.000000000  0.000000000  0.035818406

  length of vectors
    10.272661001 11.368814841 27.918606646     0.097345761  0.087959916  0.035818406

  position of ions in fractional coordinates (direct lattice)
     0.807711828  0.833333333  0.294983814
     0.591733995  0.666666667  0.326524766
     0.307711828  0.666666667  0.294983814
     0.091733995  0.833333333  0.326524766
     0.944867475  0.833483152  0.422627596
     0.726738982  0.666274889  0.451092195
     0.444106433  0.666458569  0.422447728
     0.225578485  0.833310734  0.451609689
     0.086132124  0.833638734  0.550283865
     0.865384502  0.666258421  0.575202327
     0.584333971  0.666567706  0.549142644
     0.364016928  0.833403998  0.576575841
     0.230910651  0.832560955  0.680558882
     0.999901693  0.665685997  0.700218232
     0.728595823  0.665650969  0.676785737
     0.503166612  0.834263774  0.700316706
     0.807711828  0.166666667  0.294983814
     0.591733995  0.000000000  0.326524766
     0.307711828  0.000000000  0.294983814
     0.091733995  0.166666667  0.326524766
     0.944867478  0.166516851  0.422627591
     0.725973012  0.000000005  0.451276697
     0.444350544  0.999999987  0.422608466
     0.225578497  0.166689253  0.451609686
     0.086132127  0.166361208  0.550283855
     0.863845564  0.999999970  0.575880181
     0.585047016  0.999999947  0.549772272
     0.364016918  0.166595906  0.576575842
     0.230910624  0.167438902  0.680558885
     0.002689968  0.999999908  0.700212731
     0.731946955  0.999999927  0.679620553
     0.503166611  0.165736140  0.700316723
     0.807711828  0.500000000  0.294983814
     0.591733995  0.333333333  0.326524766
     0.307711828  0.333333333  0.294983814
     0.091733995  0.500000000  0.326524766
     0.946276730  0.499999994  0.422414338
     0.726738935  0.333725103  0.451092217
     0.444106457  0.333541418  0.422447728
     0.225897308  0.499999993  0.452623088
     0.088906581  0.499999966  0.550463072
     0.865384470  0.333741519  0.575202349
     0.584333992  0.333432206  0.549142671
     0.366000030  0.499999969  0.579526367
     0.234173028  0.499999922  0.680969463
     0.999901816  0.334313946  0.700218239
     0.728595771  0.334348948  0.676785765
     0.504848130  0.500000059  0.706300399
     0.488115435  0.666666667  0.268638048
     0.988115435  0.833333333  0.268638048
     0.911330389  0.833333333  0.352870532
     0.627308221  0.833333333  0.321329580
     0.772137602  0.666666667  0.300179000
     0.624204103  0.666666667  0.394801855
     0.411330389  0.666666667  0.352870532
     0.127308221  0.666666667  0.321329580
     0.272137602  0.833333333  0.300179000
     0.124204103  0.833333333  0.394801855
     0.049371632  0.833591140  0.479700522
     0.763878814  0.833294870  0.447406618
     0.909472918  0.666601464  0.426643918
     0.764115798  0.665859484  0.519955549
     0.548948862  0.666038851  0.479629476
     0.263606230  0.666525654  0.447867208
     0.408602473  0.833218717  0.426597909
     0.264214969  0.832790551  0.520806096
     0.192647505  0.832966326  0.606739341
     0.903977891  0.833515292  0.572814607
     0.051342120  0.666466393  0.552976092
     0.913517407  0.667956316  0.645056242
     0.693913575  0.669398629  0.605315771
     0.404628076  0.666481065  0.574659047
     0.549162150  0.833346641  0.552558136
     0.412474119  0.834845520  0.646038011
     0.346301039  0.832785297  0.731831052
     0.051487810  0.832577539  0.708561069
     0.194479963  0.666227037  0.680780232
     0.840911442  0.660851917  0.730600881
     0.553997145  0.668244795  0.707679655
     0.694916027  0.833785183  0.678846520
     0.488115435  0.000000000  0.268638048
     0.988115435  0.166666667  0.268638048
     0.911330389  0.166666667  0.352870532
     0.627308221  0.166666667  0.321329580
     0.772137602  0.000000000  0.300179000
     0.624204103  0.000000000  0.394801855
     0.411330389  0.000000000  0.352870532
     0.127308221  0.000000000  0.321329580
     0.272137602  0.166666667  0.300179000
     0.124204103  0.166666667  0.394801855
     0.049371637  0.166408854  0.479700525
     0.763878812  0.166705120  0.447406625
     0.909098740  0.000000010  0.426558467
     0.763732032  0.999999986  0.520279761
     0.549080278  0.999999973  0.479528916
     0.263707891  0.999999995  0.447871000
     0.408602485  0.166781271  0.426597912
     0.264214987  0.167209419  0.520806100
     0.192647540  0.167033587  0.606739355
     0.903977891  0.166484653  0.572814621
     0.051407116  0.999999974  0.553209384
     0.913270550  0.999999955  0.645561087
     0.693071972  0.999999994  0.605913180
     0.403519767  0.999999978  0.573716312
     0.549162141  0.166653285  0.552558131
     0.412474160  0.165154427  0.646038034
     0.346301036  0.167214609  0.731831055
     0.051487791  0.167422343  0.708561078
     0.194451383  0.999999967  0.680577762
     0.845591310  0.999999912  0.731437657
     0.554016688  0.999999980  0.708972671
     0.694916044  0.166214807  0.678846564
     0.488115435  0.333333333  0.268638048
     0.988115435  0.500000000  0.268638048
     0.911330389  0.500000000  0.352870532
     0.627308221  0.500000000  0.321329580
     0.772137602  0.333333333  0.300179000
     0.624204103  0.333333333  0.394801855
     0.411330389  0.333333333  0.352870532
     0.127308221  0.333333333  0.321329580
     0.272137602  0.500000000  0.300179000
     0.124204103  0.500000000  0.394801855
     0.049986085  0.499999969  0.479933091
     0.763943594  0.499999992  0.447069508
     0.909472926  0.333398513  0.426643929
     0.764115786  0.334140452  0.519955575
     0.548948855  0.333961117  0.479629481
     0.263606235  0.333474322  0.447867201
     0.408575684  0.499999984  0.426592437
     0.265424932  0.499999948  0.521803455
     0.193132790  0.499999951  0.607506952
     0.904245311  0.499999957  0.573419831
     0.051342111  0.333533542  0.552976109
     0.913517381  0.332043576  0.645056280
     0.693913570  0.330601279  0.605315814
     0.404628083  0.333518848  0.574659069
     0.550777758  0.499999970  0.553856307
     0.413284616  0.499999950  0.648812249
     0.344481302  0.499999954  0.734007035
     0.051456199  0.499999930  0.708346611
     0.194479941  0.333772822  0.680780243
     0.840911400  0.339148051  0.730600932
     0.553997180  0.331755134  0.707679720
     0.692580030  0.499999919  0.675171948

  ion indices of the primitive-cell ions
   primitive index   ion index
                 1           1
                 2           2
                 3           3
                 4           4
                 5           5
                 6           6
                 7           7
                 8           8
                 9           9
                10          10
                11          11
                12          12
                13          13
                14          14
                15          15
                16          16
                17          17
                18          18
                19          19
                20          20
                21          21
                22          22
                23          23
                24          24
                25          25
                26          26
                27          27
                28          28
                29          29
                30          30
                31          31
                32          32
                33          33
                34          34
                35          35
                36          36
                37          37
                38          38
                39          39
                40          40
                41          41
                42          42
                43          43
                44          44
                45          45
                46          46
                47          47
                48          48
                49          49
                50          50
                51          51
                52          52
                53          53
                54          54
                55          55
                56          56
                57          57
                58          58
                59          59
                60          60
                61          61
                62          62
                63          63
                64          64
                65          65
                66          66
                67          67
                68          68
                69          69
                70          70
                71          71
                72          72
                73          73
                74          74
                75          75
                76          76
                77          77
                78          78
                79          79
                80          80
                81          81
                82          82
                83          83
                84          84
                85          85
                86          86
                87          87
                88          88
                89          89
                90          90
                91          91
                92          92
                93          93
                94          94
                95          95
                96          96
                97          97
                98          98
                99          99
               100         100
               101         101
               102         102
               103         103
               104         104
               105         105
               106         106
               107         107
               108         108
               109         109
               110         110
               111         111
               112         112
               113         113
               114         114
               115         115
               116         116
               117         117
               118         118
               119         119
               120         120
               121         121
               122         122
               123         123
               124         124
               125         125
               126         126
               127         127
               128         128
               129         129
               130         130
               131         131
               132         132
               133         133
               134         134
               135         135
               136         136
               137         137
               138         138
               139         139
               140         140
               141         141
               142         142
               143         143
               144         144

----------------------------------------------------------------------------------------



 KPOINTS: pymatgen v2020.8.13 with grid density = 

Automatic generation of k-mesh.
 Grid dimensions read from file:
 generate k-points for:    3    3    1

 Generating k-lattice:

  Cartesian coordinates                     Fractional coordinates (reciprocal lattice)
     0.032448587 -0.000000000  0.000000000     0.333333333 -0.000000000  0.000000000
     0.000000000  0.029319972  0.000000000     0.000000000  0.333333333  0.000000000
     0.000000000  0.000000000  0.035818406     0.000000000  0.000000000  1.000000000

  Length of vectors
     0.032448587  0.029319972  0.035818406

  Shift w.r.t. Gamma in fractional coordinates (k-lattice)
     0.000000000  0.000000000  0.000000000

 
 Subroutine IBZKPT returns following result:
 ===========================================
 
 Found      5 irreducible k-points:
 
 Following reciprocal coordinates:
            Coordinates               Weight
  0.000000  0.000000  0.000000      1.000000
  0.333333  0.000000  0.000000      2.000000
  0.000000  0.333333  0.000000      2.000000
  0.333333  0.333333  0.000000      2.000000
  0.333333 -0.333333  0.000000      2.000000
 
 Following cartesian coordinates:
            Coordinates               Weight
  0.000000  0.000000  0.000000      1.000000
  0.032449  0.000000  0.000000      2.000000
  0.000000  0.029320  0.000000      2.000000
  0.032449  0.029320  0.000000      2.000000
  0.032449 -0.029320  0.000000      2.000000
 
 
 Subroutine IBZKPT_HF returns following result:
 ==============================================
 
 Found      9 k-points in 1st BZ
 the following      9 k-points will be used (e.g. in the exchange kernel)
 Following reciprocal coordinates:   # in IRBZ
  0.000000  0.000000  0.000000    0.11111111   1 t-inv F
  0.333333  0.000000  0.000000    0.11111111   2 t-inv F
  0.000000  0.333333  0.000000    0.11111111   3 t-inv F
  0.333333  0.333333  0.000000    0.11111111   4 t-inv F
  0.333333 -0.333333  0.000000    0.11111111   5 t-inv F
 -0.333333 -0.000000 -0.000000    0.11111111   2 t-inv T
 -0.000000 -0.333333 -0.000000    0.11111111   3 t-inv T
 -0.333333 -0.333333 -0.000000    0.11111111   4 t-inv T
 -0.333333  0.333333 -0.000000    0.11111111   5 t-inv T


--------------------------------------------------------------------------------------------------------




 Dimension of arrays:
   k-points           NKPTS =      5   k-points in BZ     NKDIM =      9   number of bands    NBANDS=    480
   number of dos      NEDOS =    301   number of ions     NIONS =    144
   non local maximal  LDIM  =      5   non local SUM 2l+1 LMDIM =     15
   total plane-waves  NPLWV = 614400
   max r-space proj   IRMAX =      1   max aug-charges    IRDMAX=  13212
   dimension x,y,z NGX =    60 NGY =   64 NGZ =  160
   dimension x,y,z NGXF=   120 NGYF=  128 NGZF=  320
   support grid    NGXF=   120 NGYF=  128 NGZF=  320
   ions per type =              48  96
   NGX,Y,Z   is equivalent  to a cutoff of   9.71,  9.36,  9.53 a.u.
   NGXF,Y,Z  is equivalent  to a cutoff of  19.42, 18.72, 19.05 a.u.

 SYSTEM =  TiO2                                    
 POSCAR =  Ti  O                                   

--------------------------------------------------------------------------------------------------------


  energy-cutoff  :      520.00
  volume of cell :     3260.56
      direct lattice vectors                 reciprocal lattice vectors
    10.272661001  0.000000000  0.000000000     0.097345761 -0.000000000  0.000000000
     0.000000000 11.368814841  0.000000000     0.000000000  0.087959916  0.000000000
     0.000000000  0.000000000 27.918606646     0.000000000  0.000000000  0.035818406

  length of vectors
    10.272661001 11.368814841 27.918606646     0.097345761  0.087959916  0.035818406



 k-points in units of 2pi/SCALE and weight: pymatgen v2020.8.13 with grid density = 
   0.00000000  0.00000000  0.00000000       0.111
   0.03244859  0.00000000  0.00000000       0.222
   0.00000000  0.02931997  0.00000000       0.222
   0.03244859  0.02931997  0.00000000       0.222
   0.03244859 -0.02931997  0.00000000       0.222

 k-points in reciprocal lattice and weights: pymatgen v2020.8.13 with grid density = 
   0.00000000  0.00000000  0.00000000       0.111
   0.33333333  0.00000000  0.00000000       0.222
   0.00000000  0.33333333  0.00000000       0.222
   0.33333333  0.33333333  0.00000000       0.222
   0.33333333 -0.33333333  0.00000000       0.222

 position of ions in fractional coordinates (direct lattice) 
   0.80771183  0.83333333  0.29498381
   0.59173400  0.66666667  0.32652477
   0.30771183  0.66666667  0.29498381
   0.09173400  0.83333333  0.32652477
   0.94486748  0.83348315  0.42262760
   0.72673898  0.66627489  0.45109219
   0.44410643  0.66645857  0.42244773
   0.22557848  0.83331073  0.45160969
   0.08613212  0.83363873  0.55028387
   0.86538450  0.66625842  0.57520233
   0.58433397  0.66656771  0.54914264
   0.36401693  0.83340400  0.57657584
   0.23091065  0.83256096  0.68055888
   0.99990169  0.66568600  0.70021823
   0.72859582  0.66565097  0.67678574
   0.50316661  0.83426377  0.70031671
   0.80771183  0.16666667  0.29498381
   0.59173400  0.00000000  0.32652477
   0.30771183  0.00000000  0.29498381
   0.09173400  0.16666667  0.32652477
   0.94486748  0.16651685  0.42262759
   0.72597301  0.00000000  0.45127670
   0.44435054  0.99999999  0.42260847
   0.22557850  0.16668925  0.45160969
   0.08613213  0.16636121  0.55028386
   0.86384556  0.99999997  0.57588018
   0.58504702  0.99999995  0.54977227
   0.36401692  0.16659591  0.57657584
   0.23091062  0.16743890  0.68055888
   0.00268997  0.99999991  0.70021273
   0.73194695  0.99999993  0.67962055
   0.50316661  0.16573614  0.70031672
   0.80771183  0.50000000  0.29498381
   0.59173400  0.33333333  0.32652477
   0.30771183  0.33333333  0.29498381
   0.09173400  0.50000000  0.32652477
   0.94627673  0.49999999  0.42241434
   0.72673894  0.33372510  0.45109222
   0.44410646  0.33354142  0.42244773
   0.22589731  0.49999999  0.45262309
   0.08890658  0.49999997  0.55046307
   0.86538447  0.33374152  0.57520235
   0.58433399  0.33343221  0.54914267
   0.36600003  0.49999997  0.57952637
   0.23417303  0.49999992  0.68096946
   0.99990182  0.33431395  0.70021824
   0.72859577  0.33434895  0.67678576
   0.50484813  0.50000006  0.70630040
   0.48811543  0.66666667  0.26863805
   0.98811543  0.83333333  0.26863805
   0.91133039  0.83333333  0.35287053
   0.62730822  0.83333333  0.32132958
   0.77213760  0.66666667  0.30017900
   0.62420410  0.66666667  0.39480185
   0.41133039  0.66666667  0.35287053
   0.12730822  0.66666667  0.32132958
   0.27213760  0.83333333  0.30017900
   0.12420410  0.83333333  0.39480185
   0.04937163  0.83359114  0.47970052
   0.76387881  0.83329487  0.44740662
   0.90947292  0.66660146  0.42664392
   0.76411580  0.66585948  0.51995555
   0.54894886  0.66603885  0.47962948
   0.26360623  0.66652565  0.44786721
   0.40860247  0.83321872  0.42659791
   0.26421497  0.83279055  0.52080610
   0.19264750  0.83296633  0.60673934
   0.90397789  0.83351529  0.57281461
   0.05134212  0.66646639  0.55297609
   0.91351741  0.66795632  0.64505624
   0.69391358  0.66939863  0.60531577
   0.40462808  0.66648107  0.57465905
   0.54916215  0.83334664  0.55255814
   0.41247412  0.83484552  0.64603801
   0.34630104  0.83278530  0.73183105
   0.05148781  0.83257754  0.70856107
   0.19447996  0.66622704  0.68078023
   0.84091144  0.66085192  0.73060088
   0.55399715  0.66824480  0.70767966
   0.69491603  0.83378518  0.67884652
   0.48811543  0.00000000  0.26863805
   0.98811543  0.16666667  0.26863805
   0.91133039  0.16666667  0.35287053
   0.62730822  0.16666667  0.32132958
   0.77213760  0.00000000  0.30017900
   0.62420410  0.00000000  0.39480185
   0.41133039  0.00000000  0.35287053
   0.12730822  0.00000000  0.32132958
   0.27213760  0.16666667  0.30017900
   0.12420410  0.16666667  0.39480185
   0.04937164  0.16640885  0.47970053
   0.76387881  0.16670512  0.44740662
   0.90909874  0.00000001  0.42655847
   0.76373203  0.99999999  0.52027976
   0.54908028  0.99999997  0.47952892
   0.26370789  1.00000000  0.44787100
   0.40860248  0.16678127  0.42659791
   0.26421499  0.16720942  0.52080610
   0.19264754  0.16703359  0.60673936
   0.90397789  0.16648465  0.57281462
   0.05140712  0.99999997  0.55320938
   0.91327055  0.99999995  0.64556109
   0.69307197  0.99999999  0.60591318
   0.40351977  0.99999998  0.57371631
   0.54916214  0.16665329  0.55255813
   0.41247416  0.16515443  0.64603803
   0.34630104  0.16721461  0.73183105
   0.05148779  0.16742234  0.70856108
   0.19445138  0.99999997  0.68057776
   0.84559131  0.99999991  0.73143766
   0.55401669  0.99999998  0.70897267
   0.69491604  0.16621481  0.67884656
   0.48811543  0.33333333  0.26863805
   0.98811543  0.50000000  0.26863805
   0.91133039  0.50000000  0.35287053
   0.62730822  0.50000000  0.32132958
   0.77213760  0.33333333  0.30017900
   0.62420410  0.33333333  0.39480185
   0.41133039  0.33333333  0.35287053
   0.12730822  0.33333333  0.32132958
   0.27213760  0.50000000  0.30017900
   0.12420410  0.50000000  0.39480185
   0.04998609  0.49999997  0.47993309
   0.76394359  0.49999999  0.44706951
   0.90947293  0.33339851  0.42664393
   0.76411579  0.33414045  0.51995557
   0.54894885  0.33396112  0.47962948
   0.26360624  0.33347432  0.44786720
   0.40857568  0.49999998  0.42659244
   0.26542493  0.49999995  0.52180345
   0.19313279  0.49999995  0.60750695
   0.90424531  0.49999996  0.57341983
   0.05134211  0.33353354  0.55297611
   0.91351738  0.33204358  0.64505628
   0.69391357  0.33060128  0.60531581
   0.40462808  0.33351885  0.57465907
   0.55077776  0.49999997  0.55385631
   0.41328462  0.49999995  0.64881225
   0.34448130  0.49999995  0.73400703
   0.05145620  0.49999993  0.70834661
   0.19447994  0.33377282  0.68078024
   0.84091140  0.33914805  0.73060093
   0.55399718  0.33175513  0.70767972
   0.69258003  0.49999992  0.67517195

 position of ions in cartesian coordinates  (Angst):
   8.29734980  9.47401237  8.23553708
   6.07868274  7.57920989  9.11611650
   3.16101930  7.57920989  8.23553708
   0.94235224  9.47401237  9.11611650
   9.70630326  9.47571563 11.79917362
   7.46554320  7.57475585 12.59386554
   4.56215484  7.57684407 11.79415194
   2.31729130  9.47375544 12.60831326
   0.88480611  9.47748441 15.36315878
   8.88980162  7.57456863 16.05884750
   6.00266479  7.57808483 15.33129746
   3.73942250  9.47481574 16.09719411
   2.37206684  9.46523134 19.00025572
  10.27165113  7.56806084 19.54911740
   7.48461789  7.56766262 18.89491477
   5.16886004  9.48459037 19.55186666
   8.29734980  1.89480247  8.23553708
   6.07868274  0.00000000  9.11611650
   3.16101930  0.00000000  8.23553708
   0.94235224  1.89480247  9.11611650
   9.70630329  1.89309925 11.79917348
   7.45767464  0.00000006 12.59901660
   4.56466251 11.36881469 11.79863953
   2.31729142  1.89505925 12.60831319
   0.88480614  1.89132977 15.36315850
   8.87399264 11.36881450 16.07777224
   6.00998966 11.36881424 15.34887580
   3.73942240  1.89399801 16.09719414
   2.37206657  1.90358187 19.00025580
   0.02763313 11.36881380 19.54896380
   7.51904294 11.36881401 18.97405890
   5.16886002  1.88422349 19.55186713
   8.29734980  5.68440742  8.23553708
   6.07868274  3.78960495  9.11611650
   3.16101930  3.78960495  8.23553708
   0.94235224  5.68440742  9.11611650
   9.72078006  5.68440735 11.79321974
   7.46554272  3.79405891 12.59386617
   4.56215508  3.79197062 11.79415195
   2.32056646  5.68440734 12.63660594
   0.91330717  5.68440704 15.36816199
   8.88980129  3.79424554 16.05884813
   6.00266502  3.79072901 15.33129823
   3.75979424  5.68440707 16.17956868
   2.40558014  5.68440653 19.01171856
  10.27165239  3.80075335 19.54911759
   7.48461736  3.80115129 18.89491555
   5.18613370  5.68440810 19.71892302
   5.01424439  7.57920989  7.50000000
  10.15057489  9.47401237  7.50000000
   9.36178814  9.47401237  9.85165358
   6.44412470  9.47401237  8.97107415
   7.93190783  7.57920989  8.38057942
   6.41223715  7.57920989 11.02231769
   4.22545764  7.57920989  9.85165358
   1.30779420  7.57920989  8.97107415
   2.79557733  9.47401237  8.38057942
   1.27590665  9.47401237 11.02231769
   0.50717804  9.47694332 13.39257019
   7.84706810  9.47357509 12.49096938
   9.34270698  7.57846862 11.91130372
   7.84950255  7.57003318 14.51643443
   5.63916556  7.57207237 13.39058667
   2.70793744  7.57760675 12.50382840
   4.19743469  9.47270931 11.91001923
   2.71419081  9.46784158 14.54018053
   1.97900251  9.46983993 16.93931700
   9.28625843  9.47608102 15.99218568
   0.52742019  7.57693302 15.43832201
   9.38425464  7.59387168 18.00907147
   7.12833892  7.61026907 16.89957292
   4.15660705  7.57709983 16.04367990
   5.64135660  9.47416366 15.42665324
   4.23720679  9.49120413 18.03648111
   3.55743318  9.46778185 20.43170328
   0.52891682  9.46541988 19.78203777
   1.99782673  7.57421182 19.00643550
   8.63839817  7.51310308 20.39735862
   5.69102487  7.59715135 19.75742992
   7.13863677  9.47914937 18.95244897
   5.01424439  0.00000000  7.50000000
  10.15057489  1.89480247  7.50000000
   9.36178814  1.89480247  9.85165358
   6.44412470  1.89480247  8.97107415
   7.93190783  0.00000000  8.38057942
   6.41223715  0.00000000 11.02231769
   4.22545764  0.00000000  9.85165358
   1.30779420  0.00000000  8.97107415
   2.79557733  1.89480247  8.38057942
   1.27590665  1.89480247 11.02231769
   0.50717809  1.89187145 13.39257027
   7.84706808  1.89523964 12.49096957
   9.33886318  0.00000011 11.90891805
   7.84556026 11.36881468 14.52548598
   5.64051556 11.36881453 13.38777918
   2.70898177 11.36881478 12.50393426
   4.19743481  1.89610539 11.91001930
   2.71419099  1.90097292 14.54018065
   1.97900287  1.89897392 16.93931739
   9.28625843  1.89273320 15.99218609
   0.52808787 11.36881455 15.44483519
   9.38171877 11.36881433 18.02316605
   7.11969342 11.36881477 16.91625175
   4.14522178 11.36881459 16.01736004
   5.64135651  1.89465034 15.42665312
   4.23720721  1.87761010 18.03648174
   3.55743314  1.90103193 20.43170335
   0.52891662  1.90339362 19.78203802
   1.99753314 11.36881446 19.00078282
   8.68647287 11.36881384 20.42072022
   5.69122562 11.36881461 19.79352912
   7.13863695  1.88966536 18.95245019
   5.01424439  3.78960495  7.50000000
  10.15057489  5.68440742  7.50000000
   9.36178814  5.68440742  9.85165358
   6.44412470  5.68440742  8.97107415
   7.93190783  3.78960495  8.38057942
   6.41223715  3.78960495 11.02231769
   4.22545764  3.78960495  9.85165358
   1.30779420  3.78960495  8.97107415
   2.79557733  5.68440742  8.38057942
   1.27590665  5.68440742 11.02231769
   0.51349011  5.68440707 13.39906318
   7.84773357  5.68440733 12.48155774
   9.34270706  3.79034596 11.91130403
   7.84950243  3.79878093 14.51643517
   5.63916549  3.79674211 13.39058683
   2.70793749  3.79120782 12.50382822
   4.19715950  5.68440724 11.90986644
   2.72662035  5.68440683 14.56802540
   1.98398768  5.68440687 16.96074764
   9.28900554  5.68440693 16.00908270
   0.52742010  3.79188108 15.43832247
   9.38425438  3.77494194 18.00907254
   7.12833887  3.75854473 16.89957410
   4.15660712  3.79171403 16.04368052
   5.65795319  5.68440708 15.46289637
   4.24553276  5.68440685 18.11393398
   3.53873964  5.68440689 20.49245367
   0.52859209  5.68440663 19.77605041
   1.99782651  3.79460142 19.00643581
   8.63839775  3.85571139 20.39736005
   5.69102523  3.77166269 19.75743172
   7.11463986  5.68440650 18.84986003



--------------------------------------------------------------------------------------------------------

--------------------------------------- Iteration      FINAL  ---------------------------------------


--------------------OUTCAR has been truncated-------------------------


--------------------OUTCAR has been truncated-------------------------


--------------------OUTCAR has been truncated-------------------------


--------------------OUTCAR has been truncated-------------------------


--------------------OUTCAR has been truncated-------------------------


--------------------OUTCAR has been truncated-------------------------


--------------------OUTCAR has been truncated-------------------------


--------------------OUTCAR has been truncated-------------------------


--------------------OUTCAR has been truncated-------------------------


--------------------OUTCAR has been truncated-------------------------


    FORVDW:  cpu time     22.0556: real time     22.0632

  FORCE on cell =-STRESS in cart. coord.  units (eV):
  Direction    XX          YY          ZZ          XY          YZ          ZX
  --------------------------------------------------------------------------------------
  Alpha Z  1519.80749  1519.80749  1519.80749
  Ewald  254897.90268253179.38190************     0.00037    -0.00012  -604.00428
  Hartree265976.23757265393.59806************     0.00004     0.00014  -288.13480
  E(xc)   -2795.56701 -2790.13178 -2781.66758    -0.00001     0.00002    -2.68384
  Local  ************************523838.08368    -0.00035    -0.00003   909.07371
  n-local -1748.81191 -1725.41862 -1774.53305     0.00001    -0.00007    -5.20547
  augment   803.82637   799.85127   801.25787     0.00000    -0.00001    -0.95381
  Kinetic 13818.96823 13900.38593 13964.99559    -0.00006    -0.00002    -9.54202
  Fock    -1288.63254 -1276.66068 -1275.04681    -0.00000     0.00001    -0.17669
  vdW       -26.50882   -28.13484   -23.31929    -0.00000     0.00000    -0.29433
  -------------------------------------------------------------------------------------
  Total    -105.48931   -56.62998   -49.58157    -0.00001    -0.00009    -1.92153
  in kB     -51.83548   -27.82692   -24.36346    -0.00001    -0.00004    -0.94420
  external pressure =      -34.68 kB  Pullay stress =        0.00 kB


 VOLUME and BASIS-vectors are now :
 -----------------------------------------------------------------------------
  energy-cutoff  :      520.00
  volume of cell :     3260.56
      direct lattice vectors                 reciprocal lattice vectors
    10.272661001  0.000000000  0.000000000     0.097345761 -0.000000000  0.000000000
     0.000000000 11.368814841  0.000000000     0.000000000  0.087959916  0.000000000
     0.000000000  0.000000000 27.918606646     0.000000000  0.000000000  0.035818406

  length of vectors
    10.272661001 11.368814841 27.918606646     0.097345761  0.087959916  0.035818406


 FORCES acting on ions:
    Electron-Ion                     Ewald-Force                    Non-Local-Force
 -----------------------------------------------------------------------------------------------
   0.102E+02 0.392E-02 0.991E+03   -.722E+01 -.172E-03 -.989E+03   0.872E+00 0.120E-02 -.191E+01
   -.157E+01 -.376E-01 0.802E+03   0.505E+00 0.414E-01 -.804E+03   -.686E+00 0.397E-03 -.865E+00
   0.102E+02 0.327E-01 0.991E+03   -.721E+01 -.329E-01 -.988E+03   0.860E+00 0.450E-04 -.191E+01
   -.204E+01 0.344E-01 0.802E+03   0.942E+00 -.363E-01 -.804E+03   -.696E+00 -.472E-04 -.869E+00
   -.465E+00 0.201E+00 0.362E+03   0.312E+00 -.211E+00 -.362E+03   0.121E+00 0.809E-03 0.233E-01
   0.404E+00 -.653E+00 0.227E+03   -.239E+00 0.670E+00 -.227E+03   -.410E-01 0.158E-01 -.129E+00
   0.448E-01 -.638E-01 0.362E+03   -.153E+00 0.775E-01 -.363E+03   0.112E+00 0.518E-02 0.135E-02
   -.193E+01 0.234E+00 0.224E+03   0.217E+01 -.237E+00 -.224E+03   -.352E-01 0.320E-02 -.127E+00
   -.262E+01 0.230E+00 -.237E+03   0.239E+01 -.262E+00 0.236E+03   0.213E+00 0.794E-02 0.140E+00
   -.336E+01 0.181E+00 -.351E+03   0.392E+01 -.107E+00 0.352E+03   -.100E+00 -.312E-01 -.176E+00
   -.272E+00 0.574E+00 -.229E+03   0.208E+00 -.550E+00 0.229E+03   0.177E+00 0.438E-02 0.833E-01
   -.153E+01 0.919E+00 -.359E+03   0.206E+01 -.903E+00 0.360E+03   -.127E+00 -.140E-02 -.213E+00
   0.642E+01 -.678E+00 -.815E+03   -.740E+01 0.748E+00 0.815E+03   0.595E+00 0.160E-01 -.457E-01
   -.259E+02 -.328E+01 -.937E+03   0.273E+02 0.319E+01 0.937E+03   -.405E-01 0.113E+00 0.803E+00
   0.252E+01 -.245E+01 -.804E+03   -.276E+01 0.265E+01 0.804E+03   0.670E+00 0.949E-02 0.209E+00
   -.274E+02 -.792E+00 -.936E+03   0.291E+02 0.936E+00 0.936E+03   0.796E-01 0.303E-01 0.736E+00
   0.102E+02 -.392E-02 0.991E+03   -.722E+01 0.175E-03 -.989E+03   0.872E+00 -.121E-02 -.191E+01
   -.160E+01 0.112E-04 0.802E+03   0.520E+00 0.209E-05 -.804E+03   -.690E+00 0.114E-04 -.869E+00
   0.102E+02 0.186E-04 0.991E+03   -.718E+01 0.477E-06 -.988E+03   0.869E+00 0.456E-05 -.191E+01
   -.204E+01 -.344E-01 0.802E+03   0.942E+00 0.363E-01 -.804E+03   -.696E+00 0.443E-04 -.869E+00
   -.465E+00 -.201E+00 0.362E+03   0.312E+00 0.211E+00 -.362E+03   0.121E+00 -.813E-03 0.233E-01
   -.856E+00 0.278E-05 0.226E+03   0.106E+01 -.219E-05 -.226E+03   -.207E-01 0.806E-05 -.129E+00
   0.242E+00 -.120E-04 0.362E+03   -.377E+00 0.790E-05 -.363E+03   0.115E+00 -.388E-05 0.974E-02
   -.193E+01 -.234E+00 0.224E+03   0.217E+01 0.237E+00 -.224E+03   -.352E-01 -.321E-02 -.127E+00
   -.262E+01 -.230E+00 -.237E+03   0.239E+01 0.262E+00 0.236E+03   0.213E+00 -.794E-02 0.140E+00
   -.359E+01 -.329E-05 -.356E+03   0.419E+01 0.516E-06 0.357E+03   -.953E-01 0.116E-05 -.183E+00
   -.149E+01 0.211E-04 -.234E+03   0.130E+01 -.660E-05 0.234E+03   0.211E+00 -.207E-05 0.157E+00
   -.153E+01 -.919E+00 -.359E+03   0.206E+01 0.903E+00 0.360E+03   -.127E+00 0.142E-02 -.213E+00
   0.642E+01 0.678E+00 -.815E+03   -.740E+01 -.748E+00 0.815E+03   0.595E+00 -.160E-01 -.457E-01
   -.269E+02 -.102E-04 -.935E+03   0.286E+02 0.219E-04 0.936E+03   0.432E-01 0.742E-05 0.717E+00
   0.435E+01 -.737E-04 -.813E+03   -.514E+01 0.106E-03 0.812E+03   0.581E+00 0.543E-05 0.213E-02
   -.274E+02 0.792E+00 -.936E+03   0.291E+02 -.936E+00 0.936E+03   0.796E-01 -.303E-01 0.736E+00
   0.102E+02 -.164E-05 0.991E+03   -.720E+01 -.295E-05 -.989E+03   0.874E+00 0.166E-05 -.191E+01
   -.157E+01 0.375E-01 0.802E+03   0.505E+00 -.414E-01 -.804E+03   -.686E+00 -.409E-03 -.865E+00
   0.102E+02 -.327E-01 0.991E+03   -.721E+01 0.329E-01 -.988E+03   0.860E+00 -.549E-04 -.191E+01
   -.218E+01 0.114E-04 0.802E+03   0.112E+01 -.125E-05 -.803E+03   -.694E+00 0.527E-05 -.841E+00
   -.247E+00 0.156E-04 0.362E+03   0.225E-01 -.177E-04 -.362E+03   0.117E+00 0.189E-04 0.435E-01
   0.404E+00 0.653E+00 0.227E+03   -.239E+00 -.670E+00 -.227E+03   -.410E-01 -.158E-01 -.129E+00
   0.448E-01 0.639E-01 0.362E+03   -.153E+00 -.775E-01 -.363E+03   0.112E+00 -.518E-02 0.134E-02
   -.257E+01 -.170E-04 0.219E+03   0.282E+01 0.896E-05 -.219E+03   -.442E-01 -.103E-04 -.465E-01
   -.142E+01 -.704E-05 -.239E+03   0.103E+01 0.114E-05 0.238E+03   0.164E+00 -.114E-04 0.145E+00
   -.336E+01 -.181E+00 -.351E+03   0.392E+01 0.107E+00 0.352E+03   -.100E+00 0.312E-01 -.176E+00
   -.272E+00 -.574E+00 -.229E+03   0.208E+00 0.550E+00 0.229E+03   0.177E+00 -.437E-02 0.833E-01
   -.240E+01 -.150E-04 -.373E+03   0.285E+01 -.562E-05 0.373E+03   -.140E+00 -.181E-04 -.912E-01
   0.708E+01 -.250E-05 -.818E+03   -.835E+01 -.322E-06 0.817E+03   0.413E+00 -.105E-04 -.157E-01
   -.259E+02 0.328E+01 -.937E+03   0.273E+02 -.319E+01 0.937E+03   -.406E-01 -.113E+00 0.803E+00
   0.252E+01 0.245E+01 -.804E+03   -.276E+01 -.265E+01 0.804E+03   0.670E+00 -.948E-02 0.209E+00
   -.332E+02 0.983E-05 -.967E+03   0.341E+02 -.571E-04 0.965E+03   0.196E+00 -.113E-04 0.106E+01
   -.657E+01 0.176E-02 0.160E+04   0.117E+02 -.277E-03 -.162E+04   -.628E+01 -.251E-02 0.166E+02
   -.679E+01 0.928E-02 0.160E+04   0.119E+02 -.848E-02 -.162E+04   -.627E+01 0.958E-04 0.166E+02
   0.435E+02 0.109E+00 0.101E+04   -.484E+02 -.117E+00 -.101E+04   0.357E+01 0.595E-02 -.421E+01
   0.313E+02 -.343E-02 0.123E+04   -.387E+02 0.863E-02 -.123E+04   0.702E+01 -.797E-02 -.254E+01
   -.425E+02 -.448E-01 0.141E+04   0.500E+02 0.463E-01 -.141E+04   -.652E+01 -.577E-02 -.244E+00
   -.357E+02 -.482E+00 0.752E+03   0.414E+02 0.532E+00 -.756E+03   -.525E+01 -.410E-01 0.412E+01
   0.441E+02 0.736E-01 0.101E+04   -.489E+02 -.537E-01 -.101E+04   0.354E+01 -.206E-01 -.401E+01
   0.306E+02 0.587E-01 0.123E+04   -.380E+02 -.644E-01 -.123E+04   0.704E+01 0.106E-01 -.255E+01
   -.426E+02 0.339E-01 0.141E+04   0.501E+02 -.294E-01 -.141E+04   -.649E+01 -.970E-02 -.248E+00
   -.382E+02 0.200E+00 0.752E+03   0.442E+02 -.208E+00 -.757E+03   -.543E+01 0.544E-02 0.423E+01
   0.388E+02 -.131E+00 0.120E+03   -.455E+02 0.171E+00 -.115E+03   0.608E+01 -.363E-01 -.494E+01
   0.399E+02 0.158E+00 0.352E+03   -.468E+02 -.227E+00 -.349E+03   0.624E+01 0.579E-01 -.287E+01
   -.406E+02 -.310E-01 0.529E+03   0.474E+02 0.631E-01 -.532E+03   -.615E+01 -.357E-01 0.255E+01
   -.340E+02 0.722E+00 -.120E+03   0.388E+02 -.865E+00 0.114E+03   -.438E+01 0.125E+00 0.499E+01
   0.408E+02 0.119E+01 0.122E+03   -.472E+02 -.131E+01 -.118E+03   0.574E+01 0.977E-01 -.388E+01
   0.382E+02 0.976E+00 0.348E+03   -.449E+02 -.923E+00 -.345E+03   0.608E+01 -.572E-01 -.275E+01
   -.393E+02 0.299E+00 0.529E+03   0.459E+02 -.297E+00 -.532E+03   -.601E+01 -.444E-02 0.257E+01
   -.355E+02 0.138E+01 -.126E+03   0.408E+02 -.155E+01 0.119E+03   -.481E+01 0.157E+00 0.548E+01
   0.426E+02 0.458E+00 -.777E+03   -.489E+02 -.509E+00 0.785E+03   0.575E+01 0.405E-01 -.724E+01
   0.378E+02 -.763E+00 -.526E+03   -.449E+02 0.609E+00 0.529E+03   0.637E+01 0.132E+00 -.299E+01
   -.422E+02 0.372E+00 -.357E+03   0.488E+02 -.252E+00 0.354E+03   -.596E+01 -.125E+00 0.262E+01
   -.388E+02 -.316E+01 -.982E+03   0.410E+02 0.384E+01 0.972E+03   -.234E+01 -.606E+00 0.912E+01
   0.429E+02 -.431E+01 -.760E+03   -.494E+02 0.517E+01 0.767E+03   0.580E+01 -.782E+00 -.553E+01
   0.389E+02 0.146E+01 -.540E+03   -.456E+02 -.128E+01 0.544E+03   0.599E+01 -.210E+00 -.310E+01
   -.390E+02 0.728E-03 -.352E+03   0.454E+02 -.209E-01 0.349E+03   -.584E+01 0.585E-02 0.267E+01
   -.332E+02 -.159E+01 -.985E+03   0.347E+02 0.196E+01 0.975E+03   -.155E+01 -.339E+00 0.913E+01
   0.164E+02 -.701E+00 -.160E+04   -.219E+02 0.624E+00 0.162E+04   0.485E+01 0.574E-01 -.203E+02
   0.324E+02 0.531E+00 -.145E+04   -.374E+02 -.663E+00 0.146E+04   0.458E+01 0.168E+00 -.751E+01
   -.244E+02 -.126E+01 -.123E+04   0.289E+02 0.118E+01 0.122E+04   -.405E+01 -.114E-01 0.291E+01
   0.173E+02 0.213E-02 -.159E+04   -.240E+02 -.114E+01 0.162E+04   0.605E+01 0.112E+01 -.200E+02
   0.284E+02 0.835E+00 -.144E+04   -.331E+02 -.410E+00 0.145E+04   0.415E+01 -.857E+00 -.600E+01
   -.287E+02 -.131E+00 -.122E+04   0.343E+02 -.312E+00 0.121E+04   -.520E+01 0.380E+00 0.303E+01
   -.660E+01 0.711E-04 0.160E+04   0.117E+02 0.899E-06 -.162E+04   -.628E+01 -.563E-04 0.166E+02
   -.679E+01 -.924E-02 0.160E+04   0.119E+02 0.848E-02 -.162E+04   -.627E+01 -.148E-03 0.166E+02
   0.435E+02 -.109E+00 0.101E+04   -.484E+02 0.117E+00 -.101E+04   0.357E+01 -.591E-02 -.421E+01
   0.313E+02 0.340E-02 0.123E+04   -.387E+02 -.863E-02 -.123E+04   0.702E+01 0.797E-02 -.254E+01
   -.425E+02 -.614E-05 0.141E+04   0.500E+02 0.226E-05 -.141E+04   -.651E+01 -.201E-05 -.251E+00
   -.361E+02 -.294E-04 0.753E+03   0.419E+02 0.101E-04 -.757E+03   -.528E+01 -.269E-05 0.419E+01
   0.439E+02 -.299E-04 0.101E+04   -.487E+02 0.559E-05 -.101E+04   0.352E+01 -.680E-05 -.416E+01
   0.307E+02 0.146E-04 0.123E+04   -.381E+02 -.515E-08 -.123E+04   0.704E+01 -.902E-05 -.254E+01
   -.426E+02 -.340E-01 0.141E+04   0.501E+02 0.294E-01 -.141E+04   -.649E+01 0.969E-02 -.248E+00
   -.382E+02 -.200E+00 0.752E+03   0.442E+02 0.208E+00 -.757E+03   -.543E+01 -.541E-02 0.423E+01
   0.388E+02 0.131E+00 0.120E+03   -.455E+02 -.171E+00 -.115E+03   0.608E+01 0.363E-01 -.494E+01
   0.399E+02 -.158E+00 0.352E+03   -.468E+02 0.227E+00 -.349E+03   0.624E+01 -.579E-01 -.287E+01
   -.397E+02 0.580E-04 0.530E+03   0.463E+02 -.248E-04 -.533E+03   -.600E+01 0.136E-04 0.260E+01
   -.346E+02 -.308E-04 -.122E+03   0.396E+02 0.120E-04 0.116E+03   -.463E+01 -.396E-06 0.527E+01
   0.398E+02 0.274E-04 0.122E+03   -.462E+02 -.127E-04 -.117E+03   0.582E+01 -.218E-05 -.464E+01
   0.383E+02 -.287E-04 0.348E+03   -.450E+02 -.120E-05 -.345E+03   0.605E+01 -.584E-05 -.295E+01
   -.393E+02 -.299E+00 0.529E+03   0.459E+02 0.297E+00 -.532E+03   -.601E+01 0.442E-02 0.257E+01
   -.355E+02 -.138E+01 -.126E+03   0.408E+02 0.155E+01 0.119E+03   -.481E+01 -.157E+00 0.548E+01
   0.426E+02 -.458E+00 -.777E+03   -.489E+02 0.509E+00 0.785E+03   0.575E+01 -.406E-01 -.724E+01
   0.378E+02 0.763E+00 -.526E+03   -.449E+02 -.609E+00 0.529E+03   0.637E+01 -.132E+00 -.299E+01
   -.408E+02 -.415E-05 -.360E+03   0.471E+02 0.247E-04 0.357E+03   -.568E+01 0.759E-05 0.237E+01
   -.368E+02 -.376E-04 -.983E+03   0.387E+02 0.378E-04 0.973E+03   -.199E+01 -.493E-05 0.928E+01
   0.426E+02 -.315E-04 -.770E+03   -.490E+02 0.602E-04 0.778E+03   0.582E+01 -.876E-05 -.728E+01
   0.388E+02 0.407E-04 -.533E+03   -.455E+02 -.529E-04 0.536E+03   0.603E+01 0.154E-04 -.304E+01
   -.390E+02 -.656E-03 -.352E+03   0.454E+02 0.209E-01 0.349E+03   -.584E+01 -.588E-02 0.267E+01
   -.332E+02 0.159E+01 -.985E+03   0.347E+02 -.196E+01 0.975E+03   -.155E+01 0.339E+00 0.913E+01
   0.164E+02 0.701E+00 -.160E+04   -.219E+02 -.624E+00 0.162E+04   0.485E+01 -.574E-01 -.203E+02
   0.324E+02 -.531E+00 -.145E+04   -.374E+02 0.663E+00 0.146E+04   0.458E+01 -.168E+00 -.751E+01
   -.256E+02 0.934E-04 -.123E+04   0.314E+02 -.113E-03 0.122E+04   -.521E+01 -.136E-04 0.316E+01
   0.158E+02 0.121E-04 -.160E+04   -.215E+02 -.134E-04 0.162E+04   0.502E+01 -.103E-04 -.204E+02
   0.279E+02 0.116E-03 -.145E+04   -.323E+02 -.945E-04 0.146E+04   0.389E+01 -.168E-04 -.798E+01
   -.287E+02 0.132E+00 -.122E+04   0.343E+02 0.312E+00 0.121E+04   -.520E+01 -.380E+00 0.303E+01
   -.657E+01 -.176E-02 0.160E+04   0.117E+02 0.276E-03 -.162E+04   -.628E+01 0.253E-02 0.166E+02
   -.683E+01 -.583E-05 0.160E+04   0.120E+02 -.160E-05 -.162E+04   -.629E+01 0.941E-05 0.166E+02
   0.435E+02 0.932E-04 0.101E+04   -.485E+02 -.172E-04 -.101E+04   0.368E+01 -.453E-04 -.417E+01
   0.314E+02 0.321E-04 0.123E+04   -.387E+02 -.411E-05 -.123E+04   0.702E+01 0.833E-05 -.254E+01
   -.425E+02 0.448E-01 0.141E+04   0.500E+02 -.463E-01 -.141E+04   -.652E+01 0.577E-02 -.244E+00
   -.357E+02 0.482E+00 0.752E+03   0.414E+02 -.532E+00 -.756E+03   -.525E+01 0.410E-01 0.412E+01
   0.441E+02 -.736E-01 0.101E+04   -.489E+02 0.537E-01 -.101E+04   0.354E+01 0.207E-01 -.401E+01
   0.306E+02 -.588E-01 0.123E+04   -.380E+02 0.644E-01 -.123E+04   0.704E+01 -.106E-01 -.255E+01
   -.426E+02 0.281E-04 0.141E+04   0.501E+02 0.854E-07 -.141E+04   -.648E+01 -.136E-04 -.262E+00
   -.405E+02 0.688E-05 0.751E+03   0.474E+02 0.671E-05 -.755E+03   -.621E+01 0.335E-05 0.401E+01
   0.391E+02 0.470E-04 0.119E+03   -.466E+02 -.182E-04 -.113E+03   0.673E+01 -.114E-04 -.494E+01
   0.390E+02 0.945E-04 0.355E+03   -.456E+02 -.508E-04 -.352E+03   0.593E+01 -.259E-05 -.258E+01
   -.406E+02 0.309E-01 0.529E+03   0.474E+02 -.631E-01 -.532E+03   -.615E+01 0.357E-01 0.255E+01
   -.340E+02 -.722E+00 -.120E+03   0.388E+02 0.865E+00 0.114E+03   -.438E+01 -.125E+00 0.499E+01
   0.408E+02 -.119E+01 0.122E+03   -.472E+02 0.131E+01 -.118E+03   0.574E+01 -.977E-01 -.388E+01
   0.382E+02 -.975E+00 0.348E+03   -.449E+02 0.923E+00 -.345E+03   0.608E+01 0.572E-01 -.275E+01
   -.378E+02 -.178E-04 0.529E+03   0.442E+02 0.288E-04 -.532E+03   -.575E+01 -.476E-05 0.263E+01
   -.398E+02 0.403E-04 -.133E+03   0.468E+02 -.294E-04 0.128E+03   -.632E+01 -.902E-05 0.473E+01
   0.427E+02 -.108E-04 -.779E+03   -.500E+02 -.440E-06 0.787E+03   0.674E+01 0.521E-05 -.701E+01
   0.355E+02 0.195E-04 -.530E+03   -.416E+02 0.937E-07 0.534E+03   0.562E+01 -.208E-05 -.313E+01
   -.422E+02 -.372E+00 -.357E+03   0.488E+02 0.252E+00 0.354E+03   -.596E+01 0.125E+00 0.262E+01
   -.388E+02 0.316E+01 -.982E+03   0.410E+02 -.384E+01 0.972E+03   -.234E+01 0.606E+00 0.912E+01
   0.429E+02 0.431E+01 -.760E+03   -.494E+02 -.517E+01 0.767E+03   0.580E+01 0.782E+00 -.553E+01
   0.389E+02 -.146E+01 -.540E+03   -.456E+02 0.128E+01 0.544E+03   0.599E+01 0.210E+00 -.310E+01
   -.369E+02 0.492E-05 -.363E+03   0.432E+02 -.567E-04 0.360E+03   -.580E+01 0.113E-04 0.214E+01
   -.374E+02 0.234E-04 -.100E+04   0.421E+02 -.492E-04 0.994E+03   -.411E+01 0.786E-05 0.802E+01
   0.196E+02 0.666E-04 -.160E+04   -.269E+02 -.622E-05 0.162E+04   0.682E+01 -.136E-04 -.194E+02
   0.289E+02 -.175E-03 -.145E+04   -.330E+02 0.173E-03 0.145E+04   0.387E+01 -.181E-06 -.728E+01
   -.244E+02 0.126E+01 -.123E+04   0.289E+02 -.118E+01 0.122E+04   -.405E+01 0.115E-01 0.291E+01
   0.173E+02 -.216E-02 -.159E+04   -.240E+02 0.114E+01 0.162E+04   0.605E+01 -.112E+01 -.200E+02
   0.284E+02 -.835E+00 -.144E+04   -.331E+02 0.410E+00 0.145E+04   0.415E+01 0.857E+00 -.600E+01
   -.196E+02 -.190E-03 -.119E+04   0.233E+02 0.171E-03 0.118E+04   -.371E+01 0.176E-04 0.565E+01
 -----------------------------------------------------------------------------------------------
   -.202E+02 -.166E-04 0.648E+02   0.227E-12 -.691E-12 0.000E+00   0.218E+02 0.120E-04 -.585E+02


 POSITION                                       TOTAL-FORCE (eV/Angst)
 -----------------------------------------------------------------------------------
      8.29735      9.47401      8.23554         4.286042      0.005218      2.082168
      6.07868      7.57921      9.11612        -1.884087      0.004253     -2.124166
      3.16102      7.57921      8.23554         4.247386     -0.000091      2.054892
      0.94235      9.47401      9.11612        -1.932155     -0.001991     -2.127583
      9.70630      9.47572     11.79917        -0.018292      0.003076     -0.030668
      7.46554      7.57476     12.59387         0.018194      0.003595      0.037084
      4.56215      7.57684     11.79415        -0.006965      0.005246     -0.024547
      2.31729      9.47376     12.60831         0.011569      0.003181      0.019728
      0.88481      9.47748     15.36316        -0.028180      0.004740     -0.008076
      8.88980      7.57457     16.05885         0.085987      0.019216      0.183429
      6.00266      7.57808     15.33130         0.055306      0.027072     -0.005551
      3.73942      9.47482     16.09719         0.035207      0.037288      0.066785
      2.37207      9.46523     19.00026        -0.126087      0.048437      0.031239
     10.27165      7.56806     19.54912        -0.164338     -0.046307      0.338772
      7.48462      7.56766     18.89491         0.521847      0.102228      0.527483
      5.16886      9.48459     19.55187         0.244068      0.172686      0.094777
      8.29735      1.89480      8.23554         4.286056     -0.005220      2.082169
      6.07868      0.00000      9.11612        -1.912861      0.000024     -2.121380
      3.16102      0.00000      8.23554         4.276359      0.000023      2.074442
      0.94235      1.89480      9.11612        -1.932118      0.001991     -2.127590
      9.70630      1.89310     11.79917        -0.018320     -0.003078     -0.030691
      7.45767      0.00000     12.59902         0.016470      0.000009      0.036841
      4.56466     11.36881     11.79864        -0.006175     -0.000010     -0.027234
      2.31729      1.89506     12.60831         0.011588     -0.003185      0.019756
      0.88481      1.89133     15.36316        -0.028156     -0.004748     -0.008088
      8.87399     11.36881     16.07777         0.066763      0.000000      0.120335
      6.00999     11.36881     15.34888         0.020819      0.000011     -0.006308
      3.73942      1.89400     16.09719         0.035220     -0.037244      0.066783
      2.37207      1.90358     19.00026        -0.126088     -0.048434      0.031258
      0.02763     11.36881     19.54896         0.204465      0.000017      0.129243
      7.51904     11.36881     18.97406         0.044398      0.000033      0.049893
      5.16886      1.88422     19.55187         0.244106     -0.172651      0.094819
      8.29735      5.68441      8.23554         4.288573     -0.000004      2.069525
      6.07868      3.78960      9.11612        -1.884082     -0.004284     -2.124195
      3.16102      3.78960      8.23554         4.247378      0.000065      2.054914
      0.94235      5.68441      9.11612        -1.895107      0.000017     -2.066729
      9.72078      5.68441     11.79322        -0.035650      0.000019     -0.045181
      7.46554      3.79406     12.59387         0.018202     -0.003604      0.037088
      4.56216      3.79197     11.79415        -0.007000     -0.005249     -0.024563
      2.32057      5.68441     12.63661         0.013098     -0.000018     -0.039275
      0.91331      5.68441     15.36816        -0.101783     -0.000019     -0.062152
      8.88980      3.79425     16.05885         0.086017     -0.019201      0.183409
      6.00267      3.79073     15.33130         0.055274     -0.027084     -0.005568
      3.75979      5.68441     16.17957        -0.034617     -0.000038     -0.292762
      2.40558      5.68441     19.01172        -0.526465     -0.000014     -0.142217
     10.27165      3.80075     19.54912        -0.164417      0.046276      0.338823
      7.48462      3.80115     18.89492         0.521873     -0.102218      0.527581
      5.18613      5.68441     19.71892        -0.542771     -0.000055     -2.020143
      5.01424      7.57921      7.50000        -2.127094     -0.001562      1.519662
     10.15057      9.47401      7.50000        -2.118819      0.001054      1.512956
      9.36179      9.47401      9.85165        -0.813263     -0.000968     -0.342447
      6.44412      9.47401      8.97107         0.685169     -0.004101     -0.191953
      7.93191      7.57921      8.38058         0.047229     -0.005367     -1.072040
      6.41224      7.57921     11.02232        -0.337277      0.003751      0.578200
      4.22546      7.57921      9.85165        -0.823383     -0.003954     -0.325205
      1.30779      7.57921      8.97107         0.699161      0.006661     -0.199665
      2.79558      9.47401      8.38058         0.060094     -0.006803     -1.075199
      1.27591      9.47401     11.02232        -0.241993     -0.001354      0.656090
      0.50718      9.47694     13.39257         0.278940     -0.002367     -0.110344
      7.84707      9.47358     12.49097         0.266763     -0.002650     -0.112764
      9.34271      7.57847     11.91130        -0.269040     -0.009531      0.099809
      7.84950      7.57003     14.51643        -0.305953      0.000990      0.040130
      5.63917      7.57207     13.39059         0.264019      0.000295     -0.109953
      2.70794      7.57761     12.50383         0.260632     -0.013418     -0.105353
      4.19743      9.47271     11.91002        -0.276050     -0.003531      0.103550
      2.71419      9.46784     14.54018        -0.270857      0.002532      0.065851
      1.97900      9.46984     16.93932         0.274213     -0.003512     -0.145179
      9.28626      9.47608     15.99219         0.265007     -0.002769     -0.105270
      0.52742      7.57693     15.43832        -0.248256     -0.025523      0.095672
      9.38425      7.59387     18.00907        -0.441521     -0.014528     -0.271569
      7.12834      7.61027     16.89957         0.199481     -0.038327     -0.189938
      4.15661      7.57710     16.04368         0.231206     -0.064120     -0.080915
      5.64136      9.47416     15.42665        -0.273567     -0.013891      0.112520
      4.23721      9.49120     18.03648        -0.354877     -0.018758     -0.088588
      3.55743      9.46778     20.43170         0.087239     -0.010442     -0.326397
      0.52892      9.46542     19.78204         0.289146      0.063861     -0.212958
      1.99783      7.57421     19.00644        -0.095894     -0.097528      0.116105
      8.63840      7.51310     20.39736         0.249280      0.145866     -0.838302
      5.69102      7.59715     19.75743         0.054588     -0.579668      0.154436
      7.13864      9.47915     18.95245        -0.332963     -0.008085      0.129153
      5.01424      0.00000      7.50000        -2.122974      0.000005      1.514338
     10.15057      1.89480      7.50000        -2.118838     -0.001082      1.512963
      9.36179      1.89480      9.85165        -0.813260      0.000973     -0.342424
      6.44412      1.89480      8.97107         0.685208      0.004077     -0.191940
      7.93191      0.00000      8.38058         0.051053     -0.000006     -1.074643
      6.41224      0.00000     11.02232        -0.312860     -0.000021      0.579984
      4.22546      0.00000      9.85165        -0.822354     -0.000033     -0.334815
      1.30779      0.00000      8.97107         0.692938      0.000005     -0.192483
      2.79558      1.89480      8.38058         0.060097      0.006762     -1.075226
      1.27591      1.89480     11.02232        -0.242069      0.001350      0.656020
      0.50718      1.89187     13.39257         0.278924      0.002369     -0.110334
      7.84707      1.89524     12.49097         0.266796      0.002648     -0.112780
      9.33886      0.00000     11.90892        -0.269567      0.000052      0.102243
      7.84556     11.36881     14.52549        -0.296956     -0.000019      0.052101
      5.64052     11.36881     13.38778         0.266314      0.000011     -0.111651
      2.70898     11.36881     12.50393         0.259035     -0.000040     -0.111009
      4.19743      1.89611     11.91002        -0.276042      0.003511      0.103580
      2.71419      1.90097     14.54018        -0.270869     -0.002536      0.065879
      1.97900      1.89897     16.93932         0.274205      0.003490     -0.145195
      9.28626      1.89273     15.99219         0.265014      0.002730     -0.105272
      0.52809     11.36881     15.44484        -0.264676      0.000031      0.095624
      9.38172     11.36881     18.02317        -0.390771     -0.000005     -0.126421
      7.11969     11.36881     16.91625         0.236689      0.000020     -0.176300
      4.14522     11.36881     16.01736         0.250420      0.000007     -0.091978
      5.64136      1.89465     15.42665        -0.273567      0.013945      0.112490
      4.23721      1.87761     18.03648        -0.354873      0.018754     -0.088582
      3.55743      1.90103     20.43170         0.087236      0.010442     -0.326376
      0.52892      1.90339     19.78204         0.289138     -0.063837     -0.212943
      1.99753     11.36881     19.00078        -0.221129     -0.000036      0.131738
      8.68647     11.36881     20.42072         0.047281     -0.000013     -0.371144
      5.69123     11.36881     19.79353         0.151458      0.000002     -0.198015
      7.13864      1.88967     18.95245        -0.332979      0.008038      0.129186
      5.01424      3.78960      7.50000        -2.127075      0.001591      1.519636
     10.15057      5.68441      7.50000        -2.133672      0.000003      1.502977
      9.36179      5.68441      9.85165        -0.823076      0.000022     -0.345269
      6.44412      5.68441      8.97107         0.683793      0.000038     -0.191704
      7.93191      3.78960      8.38058         0.047277      0.005383     -1.072068
      6.41224      3.78960     11.02232        -0.337293     -0.003784      0.578193
      4.22546      3.78960      9.85165        -0.823420      0.003975     -0.325202
      1.30779      3.78960      8.97107         0.699140     -0.006712     -0.199681
      2.79558      5.68441      8.38058         0.064595      0.000013     -1.079588
      1.27591      5.68441     11.02232        -0.190828      0.000018      0.798678
      0.51349      5.68441     13.39906         0.296873      0.000015     -0.086637
      7.84773      5.68441     12.48156         0.273058      0.000043     -0.106921
      9.34271      3.79035     11.91130        -0.268997      0.009500      0.099799
      7.84950      3.79878     14.51644        -0.305996     -0.000941      0.040153
      5.63917      3.79674     13.39059         0.264008     -0.000299     -0.109845
      2.70794      3.79121     12.50383         0.260638      0.013457     -0.105331
      4.19716      5.68441     11.90987        -0.276271      0.000006      0.115084
      2.72662      5.68441     14.56803        -0.213659      0.000001      0.187177
      1.98399      5.68441     16.96075         0.376749     -0.000005     -0.042975
      9.28901      5.68441     16.00908         0.280204      0.000017     -0.120727
      0.52742      3.79188     15.43832        -0.248228      0.025516      0.095679
      9.38425      3.77494     18.00907        -0.441496      0.014517     -0.271503
      7.12834      3.75854     16.89957         0.199441      0.038317     -0.189927
      4.15661      3.79171     16.04368         0.231230      0.064117     -0.080971
      5.65795      5.68441     15.46290        -0.314557     -0.000042      0.124679
      4.24553      5.68441     18.11393         0.045769     -0.000018      0.783502
      3.53874      5.68441     20.49245         0.524910      0.000045     -0.030343
      0.52859      5.68441     19.77605         0.395262     -0.000002     -0.249224
      1.99783      3.79460     19.00644        -0.095907      0.097532      0.116140
      8.63840      3.85571     20.39736         0.249306     -0.145873     -0.838365
      5.69103      3.77166     19.75743         0.054603      0.579727      0.154433
      7.11464      5.68441     18.84986        -0.572313      0.000000      0.604867
 -----------------------------------------------------------------------------------
    total drift:                                0.058632      0.000000      0.009034


--------------------------------------------------------------------------------------------------------



  FREE ENERGIE OF THE ION-ELECTRON SYSTEM (eV)
  ---------------------------------------------------
  free  energy   TOTEN  =     -1570.32017761 eV

  energy  without entropy=    -1570.32017761  energy(sigma->0) =    -1570.32017761



--------------------------------------------------------------------------------------------------------


    POTLOK:  cpu time      0.8373: real time      0.8373


--------------------------------------------------------------------------------------------------------


     LOOP+:  cpu time   3143.6471: real time   3145.6048
    4ORBIT:  cpu time      0.0000: real time      0.0000

 total amount of memory used by VASP MPI-rank0   155430. kBytes
=======================================================================

   base      :      30000. kBytes
   nonl-proj :      19398. kBytes
   fftplans  :       3479. kBytes
   grid      :       3946. kBytes
   one-center:         97. kBytes
   HF        :         90. kBytes
   nonlr-proj:      34761. kBytes
   wavefun   :      20274. kBytes
   fock_wrk  :      43385. kBytes

  
  
 General timing and accounting informations for this job:
 ========================================================
  
                  Total CPU time used (sec):     3191.525
                            User time (sec):     3172.561
                          System time (sec):       18.965
                         Elapsed time (sec):     3199.164
  
                   Maximum memory used (kb):      450352.
                   Average memory used (kb):          N/A
  
                          Minor page faults:       434424
                          Major page faults:          447
                 Voluntary context switches:        11144
