 vasp.6.3.0 20Jan22 (build Apr  1 2022 16:44:48) complex                         
 executed on        HPECrayEX_GCC date 2022.10.25  01:08:00
 running  512 mpi-ranks, with    1 threads/rank
 distrk:  each k-point on  512 cores,    1 groups
 distr:  one band on NCORE=   8 cores,   64 groups


--------------------------------------------------------------------------------------------------------


 INCAR:
   SYSTEM = MgO-rocksalt
   ISMEAR = 0
   SIGMA = 0.05
   EDIFF = 1E-6
   ALGO = ALL
   ISTART = 0
   IBRION = -1
   NSW = 0
   ISYM = 0
   DIPOL = 0.5 0.5 0.5
   IDIPOL = 3
   LDIPOL = .TRUE.
   GGA = RE
   AGGAC = 0.0
   LUSE_VDW = .TRUE.
   LASPH = .TRUE.
   ENCUT = 600
   PREC = Accurate
   LASPH = .TRUE.
   LREAL = .FALSE.
   ISPIN = 1
   NELM = 200
   NELMIN = 8
   NCORE = 8
   KPAR = 1
   LWAVE = .FALSE.
   LCHARG = .FALSE.

 POTCAR:    PAW_PBE Mg_pv 13Apr2007               
 POTCAR:    PAW_PBE O 08Apr2002                   
 -----------------------------------------------------------------------------
|                                                                             |
|               ----> ADVICE to this user running VASP <----                  |
|                                                                             |
|     You have switched on vdW-DFT.                                           |
|     This routine was written and supplied by Jiri Klimes. We recommend      |
|     that you carefully read and cite the following publications:            |
|       J. Klimes, D.R. Bowler, A. Michelides                                 |
|          J. Phys.: Cond Matt. 22 022201 (2010)                              |
|       J. Klimes, D.R. Bowler, A. Michelides                                 |
|          Phys. Rev. B. 83, 195131 (2011)                                    |
|     and references therein.                                                 |
|                                                                             |
 -----------------------------------------------------------------------------

 POTCAR:    PAW_PBE Mg_pv 13Apr2007               
   SHA256 =  f474ac0dd33840b9ae76c01d57fea79fdf77cdfbb07d5ade72c65f83c709b62b Mg_pv/POTCAR          
   COPYR  = (c) Copyright 13Apr2007 Georg Kresse                                                    
   COPYR  = This file is part of the software VASP. Any use, copying, and all other rights are regul
   COPYR  = If you do not have a valid VASP license, you may not use, copy or distribute this file. 
   VRHFIN =Mg: p6s2                                                                                 
   LEXCH  = PE                                                                                      
   EATOM  =  1056.7344 eV,   77.6678 Ry                                                             
                                                                                                    
   TITEL  = PAW_PBE Mg_pv 13Apr2007                                                                 
   LULTRA =        F    use ultrasoft PP ?                                                          
   IUNSCR =        1    unscreen: 0-lin 1-nonlin 2-no                                               
   RPACOR =    1.500    partial core radius                                                         
   POMASS =   24.305; ZVAL   =    8.000    mass and valenz                                          
   RCORE  =    2.000    outmost cutoff radius                                                       
   RWIGS  =    2.000; RWIGS  =    1.058    wigner-seitz radius (au A)                               
   ENMAX  =  403.929; ENMIN  =  302.947 eV                                                          
   RCLOC  =    1.506    cutoff for local pot                                                        
   LCOR   =        T    correct aug charges                                                         
   LPAW   =        T    paw PP                                                                      
   EAUG   =  758.780                                                                                
   DEXC   =    0.000                                                                                
   RMAX   =    2.045    core radius for proj-oper                                                   
   RAUG   =    1.300    factor for augmentation sphere                                              
   RDEP   =    2.025    radius for radial grids                                                     
   RDEPT  =    1.557    core radius for aug-charge                                                  
                                                                                                    
   Atomic configuration                                                                             
    5 entries                                                                                       
     n  l   j            E        occ.                                                              
     1  0  0.50     -1259.6230   2.0000                                                             
     2  0  0.50       -79.8442   2.0000                                                             
     2  1  1.50       -46.6121   6.0000                                                             
     3  0  0.50        -4.7055   2.0000                                                             
     3  2  1.50        -1.3606   0.0000                                                             
   Description                                                                                      
     l       E           TYP  RCUT    TYP  RCUT                                                     
     1    -46.6121073     23  1.600                                                                 
     1      2.7211652     23  1.600                                                                 
     0     -4.7054661     23  2.000                                                                 
     0     61.2262170     23  2.000                                                                 
     2     -1.3605826     23  2.000                                                                 
  local pseudopotential read in
  partial core-charges read in
  partial kinetic energy density read in
  atomic valenz-charges read in
  non local Contribution for L=           1  read in
    real space projection operators read in
  non local Contribution for L=           1  read in
    real space projection operators read in
  non local Contribution for L=           0  read in
    real space projection operators read in
  non local Contribution for L=           0  read in
    real space projection operators read in
  non local Contribution for L=           2  read in
    real space projection operators read in
    PAW grid and wavefunctions read in

   number of l-projection  operators is LMAX  =           5
   number of lm-projection operators is LMMAX =          13

 POTCAR:    PAW_PBE O 08Apr2002                   
   SHA256 =  818f92134a0a090dccd8ba1447fa70422a3b330e708bb4f08108d8ae51209ddf O/POTCAR              
   COPYR  = (c) Copyright 08Apr2002 Georg Kresse                                                    
   COPYR  = This file is part of the software VASP. Any use, copying, and all other rights are regul
   COPYR  = If you do not have a valid VASP license, you may not use, copy or distribute this file. 
   VRHFIN =O: s2p4                                                                                  
   LEXCH  = PE                                                                                      
   EATOM  =   432.3788 eV,   31.7789 Ry                                                             
                                                                                                    
   TITEL  = PAW_PBE O 08Apr2002                                                                     
   LULTRA =        F    use ultrasoft PP ?                                                          
   IUNSCR =        1    unscreen: 0-lin 1-nonlin 2-no                                               
   RPACOR =    1.200    partial core radius                                                         
   POMASS =   16.000; ZVAL   =    6.000    mass and valenz                                          
   RCORE  =    1.520    outmost cutoff radius                                                       
   RWIGS  =    1.550; RWIGS  =    0.820    wigner-seitz radius (au A)                               
   ENMAX  =  400.000; ENMIN  =  300.000 eV                                                          
   ICORE  =        2    local potential                                                             
   LCOR   =        T    correct aug charges                                                         
   LPAW   =        T    paw PP                                                                      
   EAUG   =  605.392                                                                                
   DEXC   =    0.000                                                                                
   RMAX   =    1.553    core radius for proj-oper                                                   
   RAUG   =    1.300    factor for augmentation sphere                                              
   RDEP   =    1.550    radius for radial grids                                                     
   RDEPT  =    1.329    core radius for aug-charge                                                  
                                                                                                    
   Atomic configuration                                                                             
    4 entries                                                                                       
     n  l   j            E        occ.                                                              
     1  0  0.50      -514.6923   2.0000                                                             
     2  0  0.50       -23.9615   2.0000                                                             
     2  1  0.50        -9.0305   4.0000                                                             
     3  2  1.50        -9.5241   0.0000                                                             
   Description                                                                                      
     l       E           TYP  RCUT    TYP  RCUT                                                     
     0    -23.9615318     23  1.200                                                                 
     0     -9.5240782     23  1.200                                                                 
     1     -9.0304911     23  1.520                                                                 
     1      8.1634956     23  1.520                                                                 
     2     -9.5240782      7  1.500                                                                 
  local pseudopotential read in
  partial core-charges read in
  partial kinetic energy density read in
  kinetic energy density of atom read in
  atomic valenz-charges read in
  non local Contribution for L=           0  read in
    real space projection operators read in
  non local Contribution for L=           0  read in
    real space projection operators read in
  non local Contribution for L=           1  read in
    real space projection operators read in
  non local Contribution for L=           1  read in
    real space projection operators read in
    PAW grid and wavefunctions read in

   number of l-projection  operators is LMAX  =           4
   number of lm-projection operators is LMMAX =           8

 -----------------------------------------------------------------------------
|                                                                             |
|               ----> ADVICE to this user running VASP <----                  |
|                                                                             |
|     You have a (more or less) 'large supercell' and for larger cells it     |
|     might be more efficient to use real-space projection operators.         |
|     Therefore, try LREAL= Auto in the INCAR file.                           |
|     Mind: For very accurate calculation, you might also keep the            |
|     reciprocal projection scheme (i.e. LREAL=.FALSE.).                      |
|                                                                             |
 -----------------------------------------------------------------------------

 -----------------------------------------------------------------------------
|                                                                             |
|               ----> ADVICE to this user running VASP <----                  |
|                                                                             |
|     You enforced a specific xc type in the INCAR file but a different       |
|     type was found in the POTCAR file.                                      |
|     I HOPE YOU KNOW WHAT YOU ARE DOING!                                     |
|                                                                             |
 -----------------------------------------------------------------------------

  PAW_PBE Mg_pv 13Apr2007               :
 energy of atom  1       EATOM=-1056.7344
 kinetic energy error for atom=    0.0221 (will be added to EATOM!!)
  PAW_PBE O 08Apr2002                   :
 energy of atom  2       EATOM= -432.3788
 kinetic energy error for atom=    0.0168 (will be added to EATOM!!)


 POSCAR: Mg  O
  positions in direct lattice
  No initial velocities read in
 exchange correlation table for  LEXCH =       40
   RHO(1)=    0.500       N(1)  =     2000
   RHO(2)=  100.500       N(2)  =     4000



--------------------------------------------------------------------------------------------------------


 ion  position               nearest neighbor table
   1  0.000  0.750  0.350-  33 2.14  35 2.14  36 2.14  43 2.14  52 2.14
   2  0.250  0.000  0.350-  34 2.14  35 2.14  36 2.14  44 2.14  51 2.14
   3  0.000  0.000  0.450-  35 2.14  34 2.14  33 2.14  41 2.14  50 2.14  39 2.14
   4  0.250  0.750  0.450-  36 2.14  34 2.14  33 2.14  42 2.14  49 2.14  40 2.14
   5  0.000  0.750  0.550-  40 2.14  56 2.14  39 2.14  47 2.14  33 2.15  37 2.16
   6  0.250  0.000  0.550-  55 2.14  48 2.14  40 2.14  39 2.14  34 2.15  38 2.16
   7  1.000  1.000  0.650-  39 2.13  54 2.14  38 2.14  37 2.14  45 2.14
   8  0.250  0.750  0.650-  40 2.13  53 2.14  38 2.14  46 2.14  37 2.14
   9  0.000  0.250  0.350-  41 2.14  35 2.14  43 2.14  44 2.14  60 2.14
  10  0.250  0.500  0.350-  42 2.14  36 2.14  43 2.14  44 2.14  59 2.14
  11  0.000  0.500  0.450-  43 2.14  41 2.14  42 2.14  33 2.14  58 2.14  47 2.14
  12  0.250  0.250  0.450-  44 2.14  41 2.14  42 2.14  34 2.14  57 2.14  48 2.14
  13  0.000  0.250  0.550-  48 2.14  64 2.14  39 2.14  47 2.14  41 2.15  45 2.16
  14  0.250  0.500  0.550-  47 2.14  48 2.14  40 2.14  63 2.14  42 2.15  46 2.16
  15  0.000  0.500  0.650-  47 2.13  46 2.14  62 2.14  37 2.14  45 2.14
  16  0.250  0.250  0.650-  48 2.13  61 2.14  38 2.14  46 2.14  45 2.14
  17  0.500  0.750  0.350-  49 2.14  36 2.14  51 2.14  52 2.14  59 2.14
  18  0.750  0.000  0.350-  50 2.14  35 2.14  51 2.14  52 2.14  60 2.14
  19  0.500  0.000  0.450-  51 2.14  49 2.14  50 2.14  34 2.14  57 2.14  55 2.14
  20  0.750  0.750  0.450-  52 2.14  49 2.14  50 2.14  33 2.14  58 2.14  56 2.14
  21  0.500  0.750  0.550-  55 2.14  63 2.14  40 2.14  56 2.14  49 2.15  53 2.16
  22  0.750  0.000  0.550-  55 2.14  64 2.14  56 2.14  39 2.14  50 2.15  54 2.16
  23  0.500  1.000  0.650-  55 2.13  53 2.14  61 2.14  54 2.14  38 2.14
  24  0.750  0.750  0.650-  56 2.13  53 2.14  54 2.14  62 2.14  37 2.14
  25  0.500  0.250  0.350-  57 2.14  51 2.14  44 2.14  59 2.14  60 2.14
  26  0.750  0.500  0.350-  58 2.14  52 2.14  43 2.14  59 2.14  60 2.14
  27  0.500  0.500  0.450-  59 2.14  49 2.14  57 2.14  58 2.14  42 2.14  63 2.14
  28  0.750  0.250  0.450-  60 2.14  50 2.14  57 2.14  58 2.14  41 2.14  64 2.14
  29  0.500  0.250  0.550-  55 2.14  63 2.14  48 2.14  64 2.14  57 2.15  61 2.16
  30  0.750  0.500  0.550-  47 2.14  64 2.14  56 2.14  63 2.14  58 2.15  62 2.16
  31  0.500  0.500  0.650-  63 2.13  53 2.14  61 2.14  46 2.14  62 2.14
  32  0.750  0.250  0.650-  64 2.13  61 2.14  54 2.14  62 2.14  45 2.14
  33  0.000  0.750  0.450-   1 2.14   3 2.14   4 2.14  11 2.14  20 2.14   5 2.15
  34  0.250  0.000  0.450-   2 2.14   3 2.14   4 2.14  12 2.14  19 2.14   6 2.15
  35  0.000  0.000  0.350-   3 2.14   2 2.14   1 2.14   9 2.14  18 2.14
  36  0.250  0.750  0.350-   4 2.14   2 2.14   1 2.14  10 2.14  17 2.14
  37  0.000  0.750  0.652-  15 2.14   7 2.14   8 2.14  24 2.14   5 2.16
  38  0.250  1.000  0.652-   8 2.14  16 2.14  23 2.14   7 2.14   6 2.16
  39  0.000  0.000  0.550-   7 2.13  13 2.14   5 2.14   6 2.14  22 2.14   3 2.14
  40  0.250  0.750  0.550-   8 2.13   5 2.14   6 2.14  14 2.14  21 2.14   4 2.14
  41  0.000  0.250  0.450-   9 2.14   3 2.14  11 2.14  12 2.14  28 2.14  13 2.15
  42  0.250  0.500  0.450-  10 2.14   4 2.14  11 2.14  12 2.14  27 2.14  14 2.15
  43  0.000  0.500  0.350-  11 2.14   9 2.14  10 2.14   1 2.14  26 2.14
  44  0.250  0.250  0.350-  12 2.14   9 2.14  10 2.14   2 2.14  25 2.14
  45  1.000  0.250  0.652-  15 2.14   7 2.14  32 2.14  16 2.14  13 2.16
  46  0.250  0.500  0.651-  15 2.14   8 2.14  16 2.14  31 2.14  14 2.16
  47  0.000  0.500  0.550-  15 2.13  14 2.14  30 2.14  13 2.14   5 2.14  11 2.14
  48  0.250  0.250  0.550-  16 2.13  13 2.14   6 2.14  14 2.14  29 2.14  12 2.14
  49  0.500  0.750  0.450-  17 2.14   4 2.14  19 2.14  20 2.14  27 2.14  21 2.15
  50  0.750  0.000  0.450-  18 2.14   3 2.14  19 2.14  20 2.14  28 2.14  22 2.15
  51  0.500  0.000  0.350-  19 2.14  17 2.14  18 2.14   2 2.14  25 2.14
  52  0.750  0.750  0.350-  20 2.14  17 2.14  18 2.14   1 2.14  26 2.14
  53  0.500  0.750  0.651-  24 2.14   8 2.14  23 2.14  31 2.14  21 2.16
  54  0.750  1.000  0.652-  24 2.14  32 2.14  23 2.14   7 2.14  22 2.16
  55  0.500  0.000  0.550-  23 2.13  29 2.14  21 2.14   6 2.14  22 2.14  19 2.14
  56  0.750  0.750  0.550-  24 2.13   5 2.14  22 2.14  30 2.14  21 2.14  20 2.14
  57  0.500  0.250  0.450-  25 2.14  19 2.14  12 2.14  27 2.14  28 2.14  29 2.15
  58  0.750  0.500  0.450-  26 2.14  20 2.14  11 2.14  27 2.14  28 2.14  30 2.15
  59  0.500  0.500  0.350-  27 2.14  17 2.14  25 2.14  26 2.14  10 2.14
  60  0.750  0.250  0.350-  28 2.14  18 2.14  25 2.14  26 2.14   9 2.14
  61  0.500  0.250  0.651-  32 2.14  16 2.14  23 2.14  31 2.14  29 2.16
  62  0.750  0.500  0.651-  15 2.14  24 2.14  32 2.14  31 2.14  30 2.16
  63  0.500  0.500  0.550-  31 2.13  29 2.14  21 2.14  14 2.14  30 2.14  27 2.14
  64  0.750  0.250  0.550-  32 2.13  13 2.14  22 2.14  30 2.14  29 2.14  28 2.14


IMPORTANT INFORMATION: All symmetrisations will be switched off!
NOSYMM: (Re-)initialisation of all symmetry stuff for point group C_1.


----------------------------------------------------------------------------------------

                                     Primitive cell                                     

  volume of cell :    1563.6717

  direct lattice vectors                    reciprocal lattice vectors
     8.546113626  0.000000000  0.000000000     0.117012252  0.000000000  0.000000000
     0.000000000  8.546113626  0.000000000     0.000000000  0.117012252  0.000000000
     0.000000000  0.000000000 21.409585219     0.000000000  0.000000000  0.046708051

  length of vectors
     8.546113626  8.546113626 21.409585219     0.117012252  0.117012252  0.046708051

  position of ions in fractional coordinates (direct lattice)
     0.000000000  0.750000000  0.350310383
     0.250000000  0.000000000  0.350310383
     0.000000000  0.000000000  0.450103461
     0.250000000  0.750000000  0.450103461
     0.000000010  0.750048803  0.550439856
     0.250007043  0.000000008  0.550439704
     0.999999995  0.999999990  0.649719877
     0.250129022  0.750046398  0.649515153
     0.000000000  0.250000000  0.350310383
     0.250000000  0.500000000  0.350310383
     0.000000000  0.500000000  0.450103461
     0.250000000  0.250000000  0.450103461
     0.000000008  0.249951191  0.550439878
     0.249952443  0.499999988  0.550416708
     0.000000008  0.500000002  0.649556603
     0.250129040  0.249953598  0.649515180
     0.500000000  0.750000000  0.350310383
     0.750000000  0.000000000  0.350310383
     0.500000000  0.000000000  0.450103461
     0.750000000  0.750000000  0.450103461
     0.499999994  0.750023873  0.550431636
     0.749992958  0.000000009  0.550439691
     0.500000007  0.999999987  0.649588587
     0.749870979  0.750046409  0.649515150
     0.500000000  0.250000000  0.350310383
     0.750000000  0.500000000  0.350310383
     0.500000000  0.500000000  0.450103461
     0.750000000  0.250000000  0.450103461
     0.499999994  0.249976122  0.550431644
     0.750047559  0.499999989  0.550416700
     0.500000000  0.500000010  0.649650227
     0.749870966  0.249953590  0.649515177
     0.000000000  0.750000000  0.450103461
     0.250000000  0.000000000  0.450103461
     0.000000000  0.000000000  0.350310383
     0.250000000  0.750000000  0.350310383
     0.000000003  0.749984296  0.651540068
     0.250006609  0.999999987  0.651525352
     0.000000004  0.000000004  0.550202403
     0.249933110  0.750006583  0.550136903
     0.000000000  0.250000000  0.450103461
     0.250000000  0.500000000  0.450103461
     0.000000000  0.500000000  0.350310383
     0.250000000  0.250000000  0.350310383
     0.999999998  0.250015696  0.651540104
     0.249804499  0.500000006  0.651481806
     0.000000005  0.499999989  0.550151038
     0.249933115  0.249993413  0.550136917
     0.500000000  0.750000000  0.450103461
     0.750000000  0.000000000  0.450103461
     0.500000000  0.000000000  0.350310383
     0.750000000  0.750000000  0.350310383
     0.500000003  0.750077766  0.651339700
     0.749993397  0.999999990  0.651525348
     0.499999997  0.000000005  0.550107257
     0.750066894  0.750006583  0.550136900
     0.500000000  0.250000000  0.450103461
     0.750000000  0.500000000  0.450103461
     0.500000000  0.500000000  0.350310383
     0.750000000  0.250000000  0.350310383
     0.500000003  0.249922229  0.651339732
     0.750195501  0.500000005  0.651481798
     0.499999996  0.499999991  0.550123034
     0.750066889  0.249993417  0.550136915

  ion indices of the primitive-cell ions
   primitive index   ion index
                 1           1
                 2           2
                 3           3
                 4           4
                 5           5
                 6           6
                 7           7
                 8           8
                 9           9
                10          10
                11          11
                12          12
                13          13
                14          14
                15          15
                16          16
                17          17
                18          18
                19          19
                20          20
                21          21
                22          22
                23          23
                24          24
                25          25
                26          26
                27          27
                28          28
                29          29
                30          30
                31          31
                32          32
                33          33
                34          34
                35          35
                36          36
                37          37
                38          38
                39          39
                40          40
                41          41
                42          42
                43          43
                44          44
                45          45
                46          46
                47          47
                48          48
                49          49
                50          50
                51          51
                52          52
                53          53
                54          54
                55          55
                56          56
                57          57
                58          58
                59          59
                60          60
                61          61
                62          62
                63          63
                64          64

----------------------------------------------------------------------------------------



 KPOINTS: pymatgen v2020.8.13 with grid density = 

Automatic generation of k-mesh.
 Grid dimensions read from file:
 generate k-points for:    2    2    1

 Generating k-lattice:

  Cartesian coordinates                     Fractional coordinates (reciprocal lattice)
     0.058506126  0.000000000  0.000000000     0.500000000  0.000000000  0.000000000
     0.000000000  0.058506126  0.000000000     0.000000000  0.500000000  0.000000000
     0.000000000  0.000000000  0.046708051     0.000000000  0.000000000  1.000000000

  Length of vectors
     0.058506126  0.058506126  0.046708051

  Shift w.r.t. Gamma in fractional coordinates (k-lattice)
     0.000000000  0.000000000  0.000000000

 
 Subroutine IBZKPT returns following result:
 ===========================================
 
 Found      4 irreducible k-points:
 
 Following reciprocal coordinates:
            Coordinates               Weight
  0.000000  0.000000  0.000000      1.000000
  0.500000  0.000000  0.000000      1.000000
  0.000000  0.500000  0.000000      1.000000
  0.500000  0.500000  0.000000      1.000000
 
 Following cartesian coordinates:
            Coordinates               Weight
  0.000000  0.000000  0.000000      1.000000
  0.058506  0.000000  0.000000      1.000000
  0.000000  0.058506  0.000000      1.000000
  0.058506  0.058506  0.000000      1.000000
 


--------------------------------------------------------------------------------------------------------




 Dimension of arrays:
   k-points           NKPTS =      4   k-points in BZ     NKDIM =      4   number of bands    NBANDS=    320
   number of dos      NEDOS =    301   number of ions     NIONS =     64
   non local maximal  LDIM  =      5   non local SUM 2l+1 LMDIM =     13
   total plane-waves  NPLWV = 882000
   max r-space proj   IRMAX =      1   max aug-charges    IRDMAX=  11315
   dimension x,y,z NGX =    70 NGY =   70 NGZ =  180
   dimension x,y,z NGXF=   140 NGYF=  140 NGZF=  360
   support grid    NGXF=   140 NGYF=  140 NGZF=  360
   ions per type =              32  32
   NGX,Y,Z   is equivalent  to a cutoff of  13.62, 13.62, 13.98 a.u.
   NGXF,Y,Z  is equivalent  to a cutoff of  27.23, 27.23, 27.95 a.u.

 SYSTEM =  MgO-rocksalt                            
 POSCAR =  Mg  O                                   

--------------------------------------------------------------------------------------------------------


  energy-cutoff  :      600.00
  volume of cell :     1563.67
      direct lattice vectors                 reciprocal lattice vectors
     8.546113626  0.000000000  0.000000000     0.117012252  0.000000000  0.000000000
     0.000000000  8.546113626  0.000000000     0.000000000  0.117012252  0.000000000
     0.000000000  0.000000000 21.409585219     0.000000000  0.000000000  0.046708051

  length of vectors
     8.546113626  8.546113626 21.409585219     0.117012252  0.117012252  0.046708051



 k-points in units of 2pi/SCALE and weight: pymatgen v2020.8.13 with grid density = 
   0.00000000  0.00000000  0.00000000       0.250
   0.05850613  0.00000000  0.00000000       0.250
   0.00000000  0.05850613  0.00000000       0.250
   0.05850613  0.05850613  0.00000000       0.250

 k-points in reciprocal lattice and weights: pymatgen v2020.8.13 with grid density = 
   0.00000000  0.00000000  0.00000000       0.250
   0.50000000  0.00000000  0.00000000       0.250
   0.00000000  0.50000000  0.00000000       0.250
   0.50000000  0.50000000  0.00000000       0.250

 position of ions in fractional coordinates (direct lattice) 
   0.00000000  0.75000000  0.35031038
   0.25000000  0.00000000  0.35031038
   0.00000000  0.00000000  0.45010346
   0.25000000  0.75000000  0.45010346
   0.00000001  0.75004880  0.55043986
   0.25000704  0.00000001  0.55043970
   1.00000000  0.99999999  0.64971988
   0.25012902  0.75004640  0.64951515
   0.00000000  0.25000000  0.35031038
   0.25000000  0.50000000  0.35031038
   0.00000000  0.50000000  0.45010346
   0.25000000  0.25000000  0.45010346
   0.00000001  0.24995119  0.55043988
   0.24995244  0.49999999  0.55041671
   0.00000001  0.50000000  0.64955660
   0.25012904  0.24995360  0.64951518
   0.50000000  0.75000000  0.35031038
   0.75000000  0.00000000  0.35031038
   0.50000000  0.00000000  0.45010346
   0.75000000  0.75000000  0.45010346
   0.49999999  0.75002387  0.55043164
   0.74999296  0.00000001  0.55043969
   0.50000001  0.99999999  0.64958859
   0.74987098  0.75004641  0.64951515
   0.50000000  0.25000000  0.35031038
   0.75000000  0.50000000  0.35031038
   0.50000000  0.50000000  0.45010346
   0.75000000  0.25000000  0.45010346
   0.49999999  0.24997612  0.55043164
   0.75004756  0.49999999  0.55041670
   0.50000000  0.50000001  0.64965023
   0.74987097  0.24995359  0.64951518
   0.00000000  0.75000000  0.45010346
   0.25000000  0.00000000  0.45010346
   0.00000000  0.00000000  0.35031038
   0.25000000  0.75000000  0.35031038
   0.00000000  0.74998430  0.65154007
   0.25000661  0.99999999  0.65152535
   0.00000000  0.00000000  0.55020240
   0.24993311  0.75000658  0.55013690
   0.00000000  0.25000000  0.45010346
   0.25000000  0.50000000  0.45010346
   0.00000000  0.50000000  0.35031038
   0.25000000  0.25000000  0.35031038
   1.00000000  0.25001570  0.65154010
   0.24980450  0.50000001  0.65148181
   0.00000001  0.49999999  0.55015104
   0.24993312  0.24999341  0.55013692
   0.50000000  0.75000000  0.45010346
   0.75000000  0.00000000  0.45010346
   0.50000000  0.00000000  0.35031038
   0.75000000  0.75000000  0.35031038
   0.50000000  0.75007777  0.65133970
   0.74999340  0.99999999  0.65152535
   0.50000000  0.00000000  0.55010726
   0.75006689  0.75000658  0.55013690
   0.50000000  0.25000000  0.45010346
   0.75000000  0.50000000  0.45010346
   0.50000000  0.50000000  0.35031038
   0.75000000  0.25000000  0.35031038
   0.50000000  0.24992223  0.65133973
   0.75019550  0.50000000  0.65148180
   0.50000000  0.49999999  0.55012303
   0.75006689  0.24999342  0.55013692

 position of ions in cartesian coordinates  (Angst):
   0.00000000  6.40958522  7.50000000
   2.13652841  0.00000000  7.50000000
   0.00000000  0.00000000  9.63652841
   2.13652841  6.40958522  9.63652841
   0.00000008  6.41000230 11.78468902
   2.13658859  0.00000007 11.78468576
   8.54611359  8.54611354 13.91023308
   2.13763104  6.40998174 13.90585001
   0.00000000  2.13652841  7.50000000
   2.13652841  4.27305681  7.50000000
   0.00000000  4.27305681  9.63652841
   2.13652841  2.13652841  9.63652841
   0.00000007  2.13611128 11.78468948
   2.13612198  4.27305671 11.78419342
   0.00000006  4.27305683 13.90673744
   2.13763120  2.13613185 13.90585060
   4.27305681  6.40958522  7.50000000
   6.40958522  0.00000000  7.50000000
   4.27305681  0.00000000  9.63652841
   6.40958522  6.40958522  9.63652841
   4.27305677  6.40978924 11.78451302
   6.40952503  0.00000008 11.78468547
   4.27305687  8.54611351 13.90742221
   6.40848259  6.40998183 13.90584995
   4.27305681  2.13652841  7.50000000
   6.40958522  4.27305681  7.50000000
   4.27305681  4.27305681  9.63652841
   6.40958522  2.13652841  9.63652841
   4.27305676  2.13632434 11.78451318
   6.40999167  4.27305672 11.78419325
   4.27305681  4.27305690 13.90874189
   6.40848248  2.13613178 13.90585053
   0.00000000  6.40958522  9.63652841
   2.13652841  0.00000000  9.63652841
   0.00000000  0.00000000  7.50000000
   2.13652841  6.40958522  7.50000000
   0.00000003  6.40945101 13.94920262
   2.13658489  8.54611351 13.94888755
   0.00000003  0.00000004 11.77960524
   2.13595676  6.40964148 11.77820290
   0.00000000  2.13652841  9.63652841
   2.13652841  4.27305681  9.63652841
   0.00000000  4.27305681  7.50000000
   2.13652841  2.13652841  7.50000000
   8.54611361  2.13666254 13.94920339
   2.13485764  4.27305686 13.94795524
   0.00000004  4.27305672 11.77850553
   2.13595680  2.13647211 11.77820321
   4.27305681  6.40958522  9.63652841
   6.40958522  0.00000000  9.63652841
   4.27305681  0.00000000  7.50000000
   6.40958522  6.40958522  7.50000000
   4.27305684  6.41024982 13.94491281
   6.40952879  8.54611354 13.94888747
   4.27305679  0.00000004 11.77756820
   6.41015690  6.40964148 11.77820283
   4.27305681  2.13652841  9.63652841
   6.40958522  4.27305681  9.63652841
   4.27305681  4.27305681  7.50000000
   6.40958522  2.13652841  7.50000000
   4.27305684  2.13586377 13.94491349
   6.41125599  4.27305685 13.94795507
   4.27305678  4.27305673 11.77790598
   6.41015686  2.13647215 11.77820317



--------------------------------------------------------------------------------------------------------

--------------------------------------- Iteration      FINAL  ---------------------------------------


--------------------OUTCAR has been truncated-------------------------


--------------------OUTCAR has been truncated-------------------------


--------------------OUTCAR has been truncated-------------------------


--------------------OUTCAR has been truncated-------------------------


--------------------OUTCAR has been truncated-------------------------


--------------------OUTCAR has been truncated-------------------------


--------------------OUTCAR has been truncated-------------------------


--------------------OUTCAR has been truncated-------------------------


--------------------OUTCAR has been truncated-------------------------


--------------------OUTCAR has been truncated-------------------------


  FORCE on cell =-STRESS in cart. coord.  units (eV):
  Direction    XX          YY          ZZ          XY          YZ          ZX
  --------------------------------------------------------------------------------------
  Alpha Z   850.71337   850.71337   850.71337
  Ewald  156267.68047156267.66805************     0.00000    -0.00001     0.00001
  Hartree166369.68812166369.68138************    -0.00000    -0.00000     0.00000
  E(xc)   -2518.34568 -2518.34570 -2520.81613     0.00000     0.00000    -0.00000
  Local  ************************332530.33118     0.00001     0.00001    -0.00001
  n-local -2815.74613 -2815.74632 -2834.32057     0.00000     0.00000     0.00000
  augment  1078.41957  1078.41960  1069.82562    -0.00000     0.00000     0.00000
  Kinetic  7305.87535  7305.87566  7344.02358    -0.00001     0.00000    -0.00000
  Fock        0.00000     0.00000     0.00000     0.00000     0.00000     0.00000
  -------------------------------------------------------------------------------------
  Total     -30.67078   -30.67107    -2.44250    -0.00000     0.00000    -0.00000
  in kB     -31.42606   -31.42635    -2.50265    -0.00000     0.00000    -0.00000
  external pressure =      -21.79 kB  Pullay stress =        0.00 kB


 VOLUME and BASIS-vectors are now :
 -----------------------------------------------------------------------------
  energy-cutoff  :      600.00
  volume of cell :     1563.67
      direct lattice vectors                 reciprocal lattice vectors
     8.546113626  0.000000000  0.000000000     0.117012252  0.000000000  0.000000000
     0.000000000  8.546113626  0.000000000     0.000000000  0.117012252  0.000000000
     0.000000000  0.000000000 21.409585219     0.000000000  0.000000000  0.046708051

  length of vectors
     8.546113626  8.546113626 21.409585219     0.117012252  0.117012252  0.046708051


 FORCES acting on ions:
    Electron-Ion                     Ewald-Force                    Non-Local-Force
 -----------------------------------------------------------------------------------------------
   -.275E-05 -.752E-02 0.201E+04   0.124E-05 0.774E-02 -.200E+04   -.106E-05 -.174E-03 -.641E+01
   0.154E-01 -.391E-05 0.201E+04   -.155E-01 0.567E-05 -.200E+04   0.928E-04 0.283E-06 -.641E+01
   -.779E-05 -.284E-04 0.664E+03   0.911E-05 0.321E-04 -.665E+03   -.296E-05 -.358E-05 0.462E+00
   0.149E-01 -.586E-02 0.664E+03   -.174E-01 0.723E-02 -.665E+03   0.188E-02 -.101E-02 0.449E+00
   0.266E-04 -.403E-01 -.669E+03   -.277E-04 0.548E-01 0.670E+03   -.278E-06 -.144E-01 -.281E+00
   0.206E+00 -.198E-04 -.669E+03   -.225E+00 0.181E-04 0.669E+03   0.124E-01 0.654E-06 -.266E+00
   -.871E-05 -.967E-05 -.200E+04   0.819E-05 0.743E-05 0.199E+04   0.117E-05 -.632E-06 0.560E+01
   0.200E+00 0.281E+00 -.199E+04   -.227E+00 -.280E+00 0.199E+04   0.867E-02 -.568E-02 0.559E+01
   0.525E-06 0.752E-02 0.201E+04   0.126E-05 -.774E-02 -.200E+04   0.268E-06 0.173E-03 -.641E+01
   0.317E-02 0.256E-05 0.201E+04   -.328E-02 -.566E-05 -.200E+04   0.953E-04 0.123E-05 -.640E+01
   -.290E-05 0.302E-04 0.664E+03   0.363E-05 -.313E-04 -.665E+03   0.243E-06 0.243E-05 0.448E+00
   0.149E-01 0.586E-02 0.664E+03   -.174E-01 -.723E-02 -.665E+03   0.188E-02 0.101E-02 0.449E+00
   0.174E-04 0.403E-01 -.669E+03   -.177E-04 -.548E-01 0.670E+03   0.118E-06 0.144E-01 -.281E+00
   -.282E+00 0.162E-04 -.669E+03   0.273E+00 -.176E-04 0.669E+03   0.115E-01 0.684E-06 -.275E+00
   0.391E-04 0.119E-04 -.199E+04   -.442E-04 -.599E-05 0.199E+04   0.321E-05 -.326E-05 0.557E+01
   0.201E+00 -.281E+00 -.199E+04   -.227E+00 0.280E+00 0.199E+04   0.867E-02 0.568E-02 0.559E+01
   0.184E-05 0.449E-02 0.201E+04   -.126E-05 -.437E-02 -.200E+04   -.236E-06 -.954E-04 -.641E+01
   -.154E-01 -.666E-05 0.201E+04   0.155E-01 0.568E-05 -.200E+04   -.918E-04 0.126E-06 -.641E+01
   0.634E-05 -.135E-04 0.665E+03   -.936E-05 0.166E-04 -.665E+03   0.415E-05 -.151E-05 0.440E+00
   -.149E-01 -.585E-02 0.664E+03   0.174E-01 0.722E-02 -.665E+03   -.188E-02 -.101E-02 0.449E+00
   -.233E-04 0.291E+00 -.669E+03   0.248E-04 -.299E+00 0.669E+03   0.254E-06 0.310E-02 -.306E+00
   -.206E+00 -.157E-04 -.669E+03   0.225E+00 0.179E-04 0.669E+03   -.124E-01 -.316E-05 -.266E+00
   -.180E-05 -.101E-04 -.199E+04   0.236E-05 0.110E-04 0.199E+04   0.120E-05 0.238E-05 0.560E+01
   -.200E+00 0.281E+00 -.199E+04   0.227E+00 -.280E+00 0.199E+04   -.867E-02 -.568E-02 0.559E+01
   -.118E-05 -.449E-02 0.201E+04   -.124E-05 0.437E-02 -.200E+04   0.120E-05 0.957E-04 -.641E+01
   -.317E-02 0.509E-05 0.201E+04   0.328E-02 -.566E-05 -.200E+04   -.944E-04 -.665E-06 -.640E+01
   0.345E-05 0.157E-04 0.664E+03   -.357E-05 -.163E-04 -.665E+03   -.651E-06 -.679E-06 0.438E+00
   -.149E-01 0.585E-02 0.664E+03   0.174E-01 -.722E-02 -.665E+03   -.188E-02 0.101E-02 0.449E+00
   -.246E-04 -.291E+00 -.669E+03   0.244E-04 0.299E+00 0.669E+03   0.212E-05 -.309E-02 -.306E+00
   0.282E+00 0.411E-05 -.669E+03   -.273E+00 -.955E-05 0.669E+03   -.115E-01 0.595E-05 -.275E+00
   -.215E-04 0.163E-04 -.200E+04   0.274E-04 -.128E-04 0.199E+04   -.235E-05 -.274E-05 0.563E+01
   -.201E+00 -.281E+00 -.199E+04   0.227E+00 0.280E+00 0.199E+04   -.867E-02 0.568E-02 0.559E+01
   -.849E-06 -.327E-01 0.498E+03   0.481E-06 0.301E-01 -.498E+03   0.252E-06 0.347E-02 -.808E-01
   0.764E-01 -.172E-04 0.498E+03   -.747E-01 0.162E-04 -.498E+03   -.278E-02 -.179E-06 -.779E-01
   -.607E-06 -.706E-05 0.151E+04   0.132E-05 0.503E-05 -.151E+04   0.136E-05 0.352E-06 0.357E+01
   0.632E-02 -.138E-02 0.151E+04   -.650E-02 0.153E-02 -.151E+04   0.246E-03 -.207E-03 0.357E+01
   0.196E-04 0.165E-01 -.151E+04   -.214E-04 -.327E-01 0.152E+04   0.171E-05 0.226E-01 -.496E+01
   0.964E-01 -.912E-05 -.151E+04   -.122E+00 0.127E-04 0.152E+04   0.340E-01 0.551E-06 -.495E+01
   0.936E-05 -.208E-04 -.497E+03   -.107E-04 0.174E-04 0.497E+03   0.308E-06 0.218E-05 0.245E+00
   0.301E-02 0.633E-01 -.496E+03   -.417E-02 -.699E-01 0.496E+03   0.670E-02 0.806E-02 0.301E+00
   -.126E-06 0.327E-01 0.498E+03   0.115E-05 -.301E-01 -.498E+03   -.396E-06 -.347E-02 -.808E-01
   -.118E-01 0.124E-04 0.498E+03   0.141E-01 -.158E-04 -.498E+03   -.302E-02 -.251E-06 -.744E-01
   -.157E-05 0.362E-05 0.151E+04   0.825E-06 -.502E-05 -.151E+04   0.195E-06 -.456E-06 0.357E+01
   0.633E-02 0.138E-02 0.151E+04   -.650E-02 -.153E-02 -.151E+04   0.248E-03 0.208E-03 0.357E+01
   0.833E-06 -.165E-01 -.151E+04   -.320E-07 0.327E-01 0.152E+04   -.601E-06 -.226E-01 -.496E+01
   -.451E+00 0.342E-05 -.151E+04   0.425E+00 -.664E-05 0.152E+04   0.535E-01 0.221E-05 -.494E+01
   0.146E-04 0.219E-04 -.497E+03   -.184E-04 -.161E-04 0.496E+03   0.259E-05 -.235E-05 0.277E+00
   0.303E-02 -.633E-01 -.496E+03   -.419E-02 0.699E-01 0.496E+03   0.670E-02 -.805E-02 0.301E+00
   0.430E-05 0.402E-01 0.498E+03   -.121E-05 -.412E-01 -.498E+03   -.899E-06 0.123E-02 -.772E-01
   -.764E-01 -.205E-04 0.498E+03   0.747E-01 0.164E-04 -.498E+03   0.278E-02 0.910E-06 -.779E-01
   -.733E-06 -.378E-05 0.151E+04   -.132E-05 0.360E-05 -.151E+04   0.141E-05 0.171E-05 0.357E+01
   -.632E-02 -.138E-02 0.151E+04   0.650E-02 0.153E-02 -.151E+04   -.247E-03 -.207E-03 0.357E+01
   -.490E-05 0.395E+00 -.151E+04   0.715E-05 -.395E+00 0.152E+04   -.378E-06 -.877E-02 -.490E+01
   -.963E-01 -.306E-05 -.151E+04   0.122E+00 0.612E-05 0.152E+04   -.340E-01 -.239E-05 -.495E+01
   -.630E-05 -.326E-05 -.496E+03   0.960E-05 0.920E-05 0.496E+03   -.118E-05 0.162E-05 0.289E+00
   -.301E-02 0.633E-01 -.496E+03   0.417E-02 -.699E-01 0.496E+03   -.670E-02 0.806E-02 0.301E+00
   -.203E-06 -.402E-01 0.498E+03   -.897E-06 0.412E-01 -.498E+03   0.111E-05 -.123E-02 -.772E-01
   0.118E-01 0.162E-04 0.498E+03   -.141E-01 -.155E-04 -.498E+03   0.302E-02 -.229E-05 -.744E-01
   -.258E-06 0.632E-05 0.151E+04   -.819E-06 -.359E-05 -.151E+04   0.811E-06 -.377E-06 0.357E+01
   -.632E-02 0.138E-02 0.151E+04   0.650E-02 -.153E-02 -.151E+04   -.247E-03 0.207E-03 0.357E+01
   -.117E-04 -.395E+00 -.151E+04   0.110E-04 0.395E+00 0.152E+04   -.262E-06 0.877E-02 -.490E+01
   0.451E+00 -.499E-05 -.151E+04   -.425E+00 0.336E-05 0.152E+04   -.535E-01 0.165E-05 -.494E+01
   -.161E-04 0.120E-04 -.497E+03   0.171E-04 -.102E-04 0.496E+03   -.189E-05 -.129E-05 0.274E+00
   -.302E-02 -.633E-01 -.496E+03   0.419E-02 0.699E-01 0.496E+03   -.670E-02 -.806E-02 0.301E+00
 -----------------------------------------------------------------------------------------------
   -.177E-06 -.124E-04 0.144E+02   0.174E-12 -.209E-13 -.568E-11   0.797E-05 -.146E-05 -.144E+02


 POSITION                                       TOTAL-FORCE (eV/Angst)
 -----------------------------------------------------------------------------------
      0.00000      6.40959      7.50000        -0.000003      0.000039      0.324452
      2.13653      0.00000      7.50000        -0.000031      0.000002      0.324335
      0.00000      0.00000      9.63653        -0.000002      0.000000      0.027067
      2.13653      6.40959      9.63653        -0.000589      0.000351      0.024161
      0.00000      6.41000     11.78469        -0.000001      0.000001      0.004235
      2.13659      0.00000     11.78469        -0.005931     -0.000001     -0.002487
      8.54611      8.54611     13.91023         0.000001     -0.000003     -0.004171
      2.13763      6.40998     13.90585        -0.018148     -0.004366      0.013536
      0.00000      2.13653      7.50000         0.000002     -0.000038      0.324452
      2.13653      4.27306      7.50000        -0.000019     -0.000002      0.324269
      0.00000      4.27306      9.63653         0.000001      0.000002      0.025480
      2.13653      2.13653      9.63653        -0.000589     -0.000349      0.024160
      0.00000      2.13611     11.78469        -0.000000     -0.000002      0.004233
      2.13612      4.27306     11.78419         0.002324     -0.000000      0.001447
      0.00000      4.27306     13.90674        -0.000002      0.000003      0.017063
      2.13763      2.13613     13.90585        -0.018144      0.004363      0.013538
      4.27306      6.40959      7.50000         0.000000      0.000024      0.324334
      6.40959      0.00000      7.50000         0.000032     -0.000001      0.324335
      4.27306      0.00000      9.63653         0.000001      0.000002      0.022952
      6.40959      6.40959      9.63653         0.000589      0.000352      0.024160
      4.27306      6.40979     11.78451         0.000002     -0.004794     -0.009994
      6.40953      0.00000     11.78469         0.005933     -0.000001     -0.002488
      4.27306      8.54611     13.90742         0.000002      0.000003      0.001477
      6.40848      6.40998     13.90585         0.018147     -0.004369      0.013537
      4.27306      2.13653      7.50000        -0.000001     -0.000024      0.324337
      6.40959      4.27306      7.50000         0.000019     -0.000001      0.324271
      4.27306      4.27306      9.63653        -0.000001     -0.000001      0.025482
      6.40959      2.13653      9.63653         0.000587     -0.000352      0.024161
      4.27306      2.13632     11.78451         0.000002      0.004793     -0.009994
      6.40999      4.27306     11.78419        -0.002326      0.000001      0.001453
      4.27306      4.27306     13.90874         0.000003      0.000001     -0.013602
      6.40848      2.13613     13.90585         0.018140      0.004367      0.013537
      0.00000      6.40959      9.63653        -0.000000      0.000911      0.052244
      2.13653      0.00000      9.63653        -0.001039     -0.000001      0.053071
      0.00000      0.00000      7.50000         0.000002     -0.000001     -0.397308
      2.13653      6.40959      7.50000         0.000071     -0.000056     -0.397244
      0.00000      6.40945     13.94920        -0.000000      0.006328     -0.016473
      2.13658      8.54611     13.94889         0.008470      0.000004     -0.012115
      0.00000      0.00000     11.77961        -0.000001     -0.000001     -0.009152
      2.13596      6.40964     11.77820         0.005537      0.001425     -0.002956
      0.00000      2.13653      9.63653         0.000001     -0.000913      0.052245
      2.13653      4.27306      9.63653        -0.000716     -0.000003      0.051902
      0.00000      4.27306      7.50000        -0.000001     -0.000002     -0.397242
      2.13653      2.13653      7.50000         0.000077      0.000056     -0.397244
      8.54611      2.13666     13.94920         0.000000     -0.006335     -0.016478
      2.13486      4.27306     13.94796         0.027715     -0.000001     -0.009293
      0.00000      4.27306     11.77851        -0.000001      0.000004     -0.007855
      2.13596      2.13647     11.77820         0.005534     -0.001420     -0.002958
      4.27306      6.40959      9.63653         0.000002      0.000206      0.052513
      6.40959      0.00000      9.63653         0.001041     -0.000003      0.053074
      4.27306      0.00000      7.50000        -0.000001      0.000002     -0.397301
      6.40959      6.40959      7.50000        -0.000074     -0.000061     -0.397242
      4.27306      6.41025     13.94491         0.000002     -0.008649      0.009146
      6.40953      8.54611     13.94889        -0.008467      0.000001     -0.012115
      4.27306      0.00000     11.77757         0.000002      0.000008      0.005449
      6.41016      6.40964     11.77820        -0.005537      0.001426     -0.002960
      4.27306      2.13653      9.63653        -0.000000     -0.000206      0.052514
      6.40959      4.27306      9.63653         0.000714     -0.000001      0.051902
      4.27306      4.27306      7.50000        -0.000000      0.000003     -0.397255
      6.40959      2.13653      7.50000        -0.000071      0.000058     -0.397241
      4.27306      2.13586     13.94491        -0.000001      0.008644      0.009143
      6.41126      4.27306     13.94796        -0.027716      0.000000     -0.009293
      4.27306      4.27306     11.77791        -0.000001      0.000001      0.005752
      6.41016      2.13647     11.77820        -0.005535     -0.001423     -0.002958
 -----------------------------------------------------------------------------------
    total drift:                                0.000008     -0.000014      0.022648


--------------------------------------------------------------------------------------------------------



  FREE ENERGIE OF THE ION-ELECTRON SYSTEM (eV)
  ---------------------------------------------------
  free  energy   TOTEN  =      -227.13635543 eV

  energy  without entropy=     -227.13635543  energy(sigma->0) =     -227.13635543



--------------------------------------------------------------------------------------------------------


    POTLOK:  cpu time      2.3200: real time      2.3207


--------------------------------------------------------------------------------------------------------


     LOOP+:  cpu time    166.9848: real time    167.2086
    4ORBIT:  cpu time      0.0000: real time      0.0000

 total amount of memory used by VASP MPI-rank0    61053. kBytes
=======================================================================

   base      :      30000. kBytes
   nonl-proj :      12234. kBytes
   fftplans  :       4926. kBytes
   grid      :       7379. kBytes
   one-center:         64. kBytes
   wavefun   :       6450. kBytes

  
  
 General timing and accounting informations for this job:
 ========================================================
  
                  Total CPU time used (sec):      199.740
                            User time (sec):      198.248
                          System time (sec):        1.492
                         Elapsed time (sec):      209.466
  
                   Maximum memory used (kb):      269296.
                   Average memory used (kb):          N/A
  
                          Minor page faults:        56852
                          Major page faults:            0
                 Voluntary context switches:        12524
