 **********************************************************************
                          MRCC program system
 **********************************************************************
 
                              Written by
     Mihaly Kallay, Peter R. Nagy, David Mester, Laszlo Gyevi-Nagy,
        Jozsef Csoka, P. Bernat Szabo, Zoltan Rolik, Gyula Samu,
     Jozsef Csontos, Bence Hegely, Adam Ganyecz, Istvan Ladjanszki,
       Lorant Szegedy, Bence Ladoczki, Klara Petrov, Mate Farkas,
                    Pal D. Mezei, and Reka A. Horvath
 
        Department of Physical Chemistry and Materials Science
            Budapest University of Technology and Economics
                  Budapest P.O.Box 91, H-1521 Hungary
 
                              www.mrcc.hu
 
                      Release date: March 18, 2022

 ************************ 2023-04-16 13:54:35 *************************
 Executing minp...

 Reading input from MINP...
 
 Input file:
 
calc=DF-CCSD(T)
scftype=rhf
verbosity=3
mem=220GB
symm=off
unit=angs
scfiguess=small
scfmaxit=1000
scfalg=locfit1


ccmaxit=400
ccsdalg=dfdirect
ccsdthreads=4
ccsdmkl=thr
ptthreads=4

charge=0
core=3

basis=special
aug-cc-pVDZ
aug-cc-pVDZ
aug-cc-pVDZ
cc-pVDZ
aug-cc-pVDZ
aug-cc-pVDZ
aug-cc-pVDZ
aug-cc-pVDZ
aug-cc-pVDZ

basis_sm=special
def2-SVP
def2-SVP
def2-SVP
def2-SVP
def2-SVP
def2-SVP
def2-SVP
def2-SVP
def2-SVP

dfbasis_scf=special
def2-QZVPP-RI-JK
def2-QZVPP-RI-JK
def2-QZVPP-RI-JK
def2-QZVPP-RI-JK
def2-QZVPP-RI-JK
def2-QZVPP-RI-JK
def2-QZVPP-RI-JK
def2-QZVPP-RI-JK
def2-QZVPP-RI-JK

dfbasis_cor=special
aug-cc-pVDZ-RI
aug-cc-pVDZ-RI
aug-cc-pVDZ-RI
cc-pVDZ-RI
aug-cc-pVDZ-RI
aug-cc-pVDZ-RI
aug-cc-pVDZ-RI
aug-cc-pVDZ-RI
aug-cc-pVDZ-RI

ecp=special
none
none
none
none
none
none
none
none
none

unit=angs
geom=xyz
9
C1 O2 Ti1 O5 ECP39
C    -0.00000430917    1.31509164067    1.42857598049
O    -0.00000574611    2.47911189179    1.59383662211
O    -0.00000267128    0.14922737618    1.23368264549
Ti    0.00000000000    0.00000000000   -1.44256391667
O     0.00000024093    0.01111718398   -3.26027565441
O     1.22732106558   -1.47578819880   -1.15995863404
O    -1.22732086204   -1.47578812926   -1.15995869046
O    -1.22489961421    1.49745915609   -1.15300400298
O     1.22489957656    1.49745925465   -1.15300314847

ghost=serialno
4-9

 
 
 Checking keyword combinations...
 
 Keywords:
 
 active=none
--------------------Output has been truncated-------------------------


--------------------Output has been truncated-------------------------


--------------------Output has been truncated-------------------------


--------------------Output has been truncated-------------------------


--------------------Output has been truncated-------------------------


--------------------Output has been truncated-------------------------


--------------------Output has been truncated-------------------------


--------------------Output has been truncated-------------------------


--------------------Output has been truncated-------------------------


--------------------Output has been truncated-------------------------


 ************************ 2023-04-16 13:55:06 *************************
 Executing ccsd...

 Allocation of 220.0 Gbytes of memory...

 Direct DF-CCSD(T) calculation
 
 Convergence criterion:  1.0E-06
 
 Number of occupied/virtual/auxiliary orbitals:     8   216   820
   1650.80 MB is the minimal memory requirement for (T)
    403.99 MB is the minimal memory requirement for CCSD
 
 Reference energy [au]:            -187.658656959201
 T1 contribution [au]:                0.000000000000
 Same spin MP2 energy [au]:          -0.143624024442
 Opposite spin MP2 energy [au]:      -0.368965601994
 MP2 correlation energy [au]:        -0.512589626436
 Total MP2 energy [au]:            -188.171246585637
 
 
 CPU time [min]:     0.285                   Wall time [min]:     0.027
 
 Starting CCSD iterations...
 
                     Residual norm          Energy
 Iteration  1        0.209475484481     -188.144645262473
 Iteration  2        0.084621174329     -188.161790913592
 Iteration  3        0.027273026594     -188.166459821683
 Iteration  4        0.005805150577     -188.165908933438
 Iteration  5        0.001936460466     -188.165910758603
 Iteration  6        0.000478222903     -188.165930459097
 Iteration  7        0.000178964463     -188.165921601794
 Iteration  8        0.000045550848     -188.165920197012
 Iteration  9        0.000015627859     -188.165920293639
 Iteration 10        0.000003818101     -188.165920144282
 
 CCSD iteration has converged in 10 steps.
     8747.69 MB memory was utilized by CCSD
 
 T1 diagnostic:      1.951E-02            D1 diagnostic:      5.094E-02
 
 T1 contribution [au]:                                  0.000000000000
 Opposite spin CCSD energy [au]:                       -0.385831897426
 Same spin CCSD energy [au]:                           -0.121431287655
 CCSD correlation energy [au]:                         -0.507263185081
 Total CCSD energy [au]:                             -188.165920144282
 
 CPU time [min]:    19.577                   Wall time [min]:     0.569
 
 Calculation of (T) correction...
 
 
     1603.83 MB memory is utilized for (T)

 0%       25%       50%       75%       100%
 |---------|---------|---------|---------| 
 
 (T) correction [au]:                                    -0.022129197722
 CCSD(T) correlation energy [au]:                        -0.529392382803
 Total CCSD(T) energy [au]:                            -188.188049342004
 
 CPU time [min]:    24.508                   Wall time [min]:     0.764
 
 ************************ 2023-04-16 13:55:52 *************************
                      Normal termination of mrcc.
 **********************************************************************
