 vasp.6.3.0 20Jan22 (build Aug 21 2024 11:13:42) complex                         
 executed on        HPECrayEX_GCC date 2024.11.26  19:12:34
 running  512 mpi-ranks, with    1 threads/rank
 distrk:  each k-point on  512 cores,    1 groups
 distr:  one band on NCORE=  16 cores,   32 groups


--------------------------------------------------------------------------------------------------------


 INCAR:
   SYSTEM = TiO2
   ISMEAR = 0
   SIGMA = 0.05
   EDIFF = 1E-4
   ALGO = ALL
   ISTART = 0
   IBRION = -1
   NSW = 0
   ISYM = 0
   ISIF = 2
   EDIFFG = -0.01
   DIPOL = 0.5 0.5 0.5
   IDIPOL = 3
   LDIPOL = .TRUE.
   GGA = PE
   IVDW = 21
   ENCUT = 600
   PREC = Accurate
   LASPH = .TRUE.
   LREAL = .FALSE.
   ISPIN = 1
   NELM = 200
   NELMIN = 8
   NCORE = 16
   KPAR = 1
   LWAVE = .FALSE.
   LCHARG = .FALSE.

 POTCAR:    PAW_PBE C 08Apr2002                   
 POTCAR:    PAW_PBE O 08Apr2002                   
 POTCAR:    PAW_PBE Ti_pv 07Sep2000               
 POTCAR:    PAW_PBE O 08Apr2002                   
 POTCAR:    PAW_PBE C 08Apr2002                   
   SHA256 =  253f7b50bb8d59471dbedb8285d89021f4a42ed1a2c5d38a03a736e69125dd95 C/POTCAR              
   COPYR  = (c) Copyright 08Apr2002 Georg Kresse                                                    
   COPYR  = This file is part of the software VASP. Any use, copying, and all other rights are regul
   COPYR  = If you do not have a valid VASP license, you may not use, copy or distribute this file. 
   VRHFIN =C: s2p2                                                                                  
   LEXCH  = PE                                                                                      
   EATOM  =   147.1560 eV,   10.8157 Ry                                                             
                                                                                                    
   TITEL  = PAW_PBE C 08Apr2002                                                                     
   LULTRA =        F    use ultrasoft PP ?                                                          
   IUNSCR =        1    unscreen: 0-lin 1-nonlin 2-no                                               
   RPACOR =    1.200    partial core radius                                                         
   POMASS =   12.011; ZVAL   =    4.000    mass and valenz                                          
   RCORE  =    1.500    outmost cutoff radius                                                       
   RWIGS  =    1.630; RWIGS  =    0.863    wigner-seitz radius (au A)                               
   ENMAX  =  400.000; ENMIN  =  300.000 eV                                                          
   ICORE  =        2    local potential                                                             
   LCOR   =        T    correct aug charges                                                         
   LPAW   =        T    paw PP                                                                      
   EAUG   =  644.873                                                                                
   DEXC   =    0.000                                                                                
   RMAX   =    1.529    core radius for proj-oper                                                   
   RAUG   =    1.300    factor for augmentation sphere                                              
   RDEP   =    1.501    radius for radial grids                                                     
   RDEPT  =    1.300    core radius for aug-charge                                                  
                                                                                                    
   Atomic configuration                                                                             
    4 entries                                                                                       
     n  l   j            E        occ.                                                              
     1  0  0.50      -273.3789   2.0000                                                             
     2  0  0.50       -13.7508   2.0000                                                             
     2  1  0.50        -5.2854   2.0000                                                             
     3  2  1.50        -5.4423   0.0000                                                             
   Description                                                                                      
     l       E           TYP  RCUT    TYP  RCUT                                                     
     0    -13.7508458     23  1.200                                                                 
     0     -8.2022199     23  1.200                                                                 
     1     -5.2854383     23  1.500                                                                 
     1     34.0145650     23  1.500                                                                 
     2     -5.4423304      7  1.500                                                                 
  local pseudopotential read in
  partial core-charges read in
  partial kinetic energy density read in
  atomic valenz-charges read in
  non local Contribution for L=           0  read in
    real space projection operators read in
  non local Contribution for L=           0  read in
    real space projection operators read in
  non local Contribution for L=           1  read in
    real space projection operators read in
  non local Contribution for L=           1  read in
    real space projection operators read in
    PAW grid and wavefunctions read in

   number of l-projection  operators is LMAX  =           4
   number of lm-projection operators is LMMAX =           8

 POTCAR:    PAW_PBE O 08Apr2002                   
   SHA256 =  818f92134a0a090dccd8ba1447fa70422a3b330e708bb4f08108d8ae51209ddf O/POTCAR              
   COPYR  = (c) Copyright 08Apr2002 Georg Kresse                                                    
   COPYR  = This file is part of the software VASP. Any use, copying, and all other rights are regul
   COPYR  = If you do not have a valid VASP license, you may not use, copy or distribute this file. 
   VRHFIN =O: s2p4                                                                                  
   LEXCH  = PE                                                                                      
   EATOM  =   432.3788 eV,   31.7789 Ry                                                             
                                                                                                    
   TITEL  = PAW_PBE O 08Apr2002                                                                     
   LULTRA =        F    use ultrasoft PP ?                                                          
   IUNSCR =        1    unscreen: 0-lin 1-nonlin 2-no                                               
   RPACOR =    1.200    partial core radius                                                         
   POMASS =   16.000; ZVAL   =    6.000    mass and valenz                                          
   RCORE  =    1.520    outmost cutoff radius                                                       
   RWIGS  =    1.550; RWIGS  =    0.820    wigner-seitz radius (au A)                               
   ENMAX  =  400.000; ENMIN  =  300.000 eV                                                          
   ICORE  =        2    local potential                                                             
   LCOR   =        T    correct aug charges                                                         
   LPAW   =        T    paw PP                                                                      
   EAUG   =  605.392                                                                                
   DEXC   =    0.000                                                                                
   RMAX   =    1.553    core radius for proj-oper                                                   
   RAUG   =    1.300    factor for augmentation sphere                                              
   RDEP   =    1.550    radius for radial grids                                                     
   RDEPT  =    1.329    core radius for aug-charge                                                  
                                                                                                    
   Atomic configuration                                                                             
    4 entries                                                                                       
     n  l   j            E        occ.                                                              
     1  0  0.50      -514.6923   2.0000                                                             
     2  0  0.50       -23.9615   2.0000                                                             
     2  1  0.50        -9.0305   4.0000                                                             
     3  2  1.50        -9.5241   0.0000                                                             
   Description                                                                                      
     l       E           TYP  RCUT    TYP  RCUT                                                     
     0    -23.9615318     23  1.200                                                                 
     0     -9.5240782     23  1.200                                                                 
     1     -9.0304911     23  1.520                                                                 
     1      8.1634956     23  1.520                                                                 
     2     -9.5240782      7  1.500                                                                 
  local pseudopotential read in
  partial core-charges read in
  partial kinetic energy density read in
  kinetic energy density of atom read in
  atomic valenz-charges read in
  non local Contribution for L=           0  read in
    real space projection operators read in
  non local Contribution for L=           0  read in
    real space projection operators read in
  non local Contribution for L=           1  read in
    real space projection operators read in
  non local Contribution for L=           1  read in
    real space projection operators read in
    PAW grid and wavefunctions read in

   number of l-projection  operators is LMAX  =           4
   number of lm-projection operators is LMMAX =           8

 POTCAR:    PAW_PBE Ti_pv 07Sep2000               
   SHA256 =  f757a1b2c6d082f4c628fa3d987464a8763bf92e53844ac0500b0e2ddc9ce5c0 Ti_pv/POTCAR          
   COPYR  = (c) Copyright 07Sep2000 Georg Kresse                                                    
   COPYR  = This file is part of the software VASP. Any use, copying, and all other rights are regul
   COPYR  = If you do not have a valid VASP license, you may not use, copy or distribute this file. 
   VRHFIN =Ti: d3 s1                                                                                
   LEXCH  = PE                                                                                      
   EATOM  =  1042.5995 eV,   76.6289 Ry                                                             
                                                                                                    
   TITEL  = PAW_PBE Ti_pv 07Sep2000                                                                 
   LULTRA =        F    use ultrasoft PP ?                                                          
   IUNSCR =        1    unscreen: 0-lin 1-nonlin 2-no                                               
   RPACOR =    2.200    partial core radius                                                         
   POMASS =   47.880; ZVAL   =   10.000    mass and valenz                                          
   RCORE  =    2.500    outmost cutoff radius                                                       
   RWIGS  =    2.500; RWIGS  =    1.323    wigner-seitz radius (au A)                               
   ENMAX  =  222.335; ENMIN  =  166.751 eV                                                          
   RCLOC  =    1.701    cutoff for local pot                                                        
   LCOR   =        T    correct aug charges                                                         
   LPAW   =        T    paw PP                                                                      
   EAUG   =  482.848                                                                                
   DEXC   =    0.000                                                                                
   RMAX   =    2.564    core radius for proj-oper                                                   
   RAUG   =    1.300    factor for augmentation sphere                                              
   RDEP   =    2.538    radius for radial grids                                                     
   RDEPT  =    1.952    core radius for aug-charge                                                  
                                                                                                    
   Atomic configuration                                                                             
    8 entries                                                                                       
     n  l   j            E        occ.                                                              
     1  0  0.50     -4865.3608   2.0000                                                             
     2  0  0.50      -533.1368   2.0000                                                             
     2  1  1.50      -440.5031   6.0000                                                             
     3  0  0.50       -59.3186   2.0000                                                             
     3  1  1.50       -35.7012   6.0000                                                             
     3  2  2.50        -1.9157   3.0000                                                             
     4  0  0.50        -3.7291   1.0000                                                             
     4  3  2.50        -1.3606   0.0000                                                             
   Description                                                                                      
     l       E           TYP  RCUT    TYP  RCUT                                                     
     1    -35.7012140     23  2.300                                                                 
     1     -1.3605826     23  2.300                                                                 
     2     -1.9156996     23  2.500                                                                 
     2     -0.4063033     23  2.500                                                                 
     0     -3.7290856     23  2.500                                                                 
     0     20.4087390     23  2.500                                                                 
  local pseudopotential read in
  partial core-charges read in
  partial kinetic energy density read in
  atomic valenz-charges read in
  non local Contribution for L=           1  read in
    real space projection operators read in
  non local Contribution for L=           1  read in
    real space projection operators read in
  non local Contribution for L=           2  read in
    real space projection operators read in
  non local Contribution for L=           2  read in
    real space projection operators read in
  non local Contribution for L=           0  read in
    real space projection operators read in
  non local Contribution for L=           0  read in
    real space projection operators read in
    PAW grid and wavefunctions read in

   number of l-projection  operators is LMAX  =           6
   number of lm-projection operators is LMMAX =          18

 POTCAR:    PAW_PBE O 08Apr2002                   
   SHA256 =  818f92134a0a090dccd8ba1447fa70422a3b330e708bb4f08108d8ae51209ddf O/POTCAR              
   COPYR  = (c) Copyright 08Apr2002 Georg Kresse                                                    
   COPYR  = This file is part of the software VASP. Any use, copying, and all other rights are regul
   COPYR  = If you do not have a valid VASP license, you may not use, copy or distribute this file. 
   VRHFIN =O: s2p4                                                                                  
   LEXCH  = PE                                                                                      
   EATOM  =   432.3788 eV,   31.7789 Ry                                                             
                                                                                                    
   TITEL  = PAW_PBE O 08Apr2002                                                                     
   LULTRA =        F    use ultrasoft PP ?                                                          
   IUNSCR =        1    unscreen: 0-lin 1-nonlin 2-no                                               
   RPACOR =    1.200    partial core radius                                                         
   POMASS =   16.000; ZVAL   =    6.000    mass and valenz                                          
   RCORE  =    1.520    outmost cutoff radius                                                       
   RWIGS  =    1.550; RWIGS  =    0.820    wigner-seitz radius (au A)                               
   ENMAX  =  400.000; ENMIN  =  300.000 eV                                                          
   ICORE  =        2    local potential                                                             
   LCOR   =        T    correct aug charges                                                         
   LPAW   =        T    paw PP                                                                      
   EAUG   =  605.392                                                                                
   DEXC   =    0.000                                                                                
   RMAX   =    1.553    core radius for proj-oper                                                   
   RAUG   =    1.300    factor for augmentation sphere                                              
   RDEP   =    1.550    radius for radial grids                                                     
   RDEPT  =    1.329    core radius for aug-charge                                                  
                                                                                                    
   Atomic configuration                                                                             
    4 entries                                                                                       
     n  l   j            E        occ.                                                              
     1  0  0.50      -514.6923   2.0000                                                             
     2  0  0.50       -23.9615   2.0000                                                             
     2  1  0.50        -9.0305   4.0000                                                             
     3  2  1.50        -9.5241   0.0000                                                             
   Description                                                                                      
     l       E           TYP  RCUT    TYP  RCUT                                                     
     0    -23.9615318     23  1.200                                                                 
     0     -9.5240782     23  1.200                                                                 
     1     -9.0304911     23  1.520                                                                 
     1      8.1634956     23  1.520                                                                 
     2     -9.5240782      7  1.500                                                                 
  local pseudopotential read in
  partial core-charges read in
  partial kinetic energy density read in
  kinetic energy density of atom read in
  atomic valenz-charges read in
  non local Contribution for L=           0  read in
    real space projection operators read in
  non local Contribution for L=           0  read in
    real space projection operators read in
  non local Contribution for L=           1  read in
    real space projection operators read in
  non local Contribution for L=           1  read in
    real space projection operators read in
    PAW grid and wavefunctions read in

   number of l-projection  operators is LMAX  =           4
   number of lm-projection operators is LMMAX =           8

 -----------------------------------------------------------------------------
|                                                                             |
|               ----> ADVICE to this user running VASP <----                  |
|                                                                             |
|     You have a (more or less) 'large supercell' and for larger cells it     |
|     might be more efficient to use real-space projection operators.         |
|     Therefore, try LREAL= Auto in the INCAR file.                           |
|     Mind: For very accurate calculation, you might also keep the            |
|     reciprocal projection scheme (i.e. LREAL=.FALSE.).                      |
|                                                                             |
 -----------------------------------------------------------------------------

  PAW_PBE C 08Apr2002                   :
 energy of atom  1       EATOM= -147.1560
 kinetic energy error for atom=    0.0057 (will be added to EATOM!!)
  PAW_PBE O 08Apr2002                   :
 energy of atom  2       EATOM= -432.3788
 kinetic energy error for atom=    0.0168 (will be added to EATOM!!)
  PAW_PBE Ti_pv 07Sep2000               :
 energy of atom  3       EATOM=-1042.5995
 kinetic energy error for atom=    0.0007 (will be added to EATOM!!)
  PAW_PBE O 08Apr2002                   :
 energy of atom  4       EATOM= -432.3788
 kinetic energy error for atom=    0.0168 (will be added to EATOM!!)


 POSCAR:  C  O Ti  O
  positions in direct lattice
  No initial velocities read in
 exchange correlation table for  LEXCH =        8
   RHO(1)=    0.500       N(1)  =     2000
   RHO(2)=  100.500       N(2)  =     4000



--------------------------------------------------------------------------------------------------------


 ion  position               nearest neighbor table
   1  0.500  0.609  0.798-   2 1.16   3 1.17
   2  0.500  0.706  0.805-   1 1.16
   3  0.500  0.512  0.791-   1 1.17  83 2.50
   4  0.750  0.625  0.287-  85 1.95 145 1.95 144 1.95  84 1.95  87 1.97 166 1.97  14 2.96  34 2.96

   5  0.000  0.750  0.287-  86 1.95  87 1.95 106 1.95 107 1.95  88 1.97  35 2.96  15 2.96
   6  0.000  0.625  0.394-  88 1.95  89 1.95 148 1.95 149 1.95  90 1.97  91 1.97  16 2.96  36 2.96

   7  0.750  0.750  0.394-  90 1.95 110 1.95 171 1.95 191 1.95  92 1.97  85 1.97  17 2.96  37 2.96

   8  0.750  0.625  0.500-  92 1.95  93 1.95 152 1.95 153 1.95  95 1.97 174 1.97  18 2.96  38 2.96

   9  0.000  0.750  0.500-  94 1.95  95 1.95 114 1.95 115 1.95  89 1.97  96 1.99  19 2.96  39 2.96

  10  1.000  0.625  0.604-  96 1.90 156 1.90  98 1.95  99 1.95  97 2.01 157 2.01  20 2.96  40 2.96

  11  0.750  0.750  0.610- 100 1.87 179 1.97 199 1.97  98 1.97 118 1.97  93 2.09  21 2.96  41 2.96

  12  0.750  0.625  0.719- 101 1.83 161 1.83 103 2.03 182 2.03 100 2.08 160 2.09  22 2.96  42 2.96

  13  0.000  0.750  0.708-  97 1.81 123 1.94 122 1.94 103 1.94 102 1.94  23 2.96  43 2.96
  14  0.750  0.875  0.287-  85 1.95 105 1.95 104 1.95  84 1.95 107 1.97 186 1.97   4 2.96  24 2.96

  15  0.000  0.000  0.287- 106 1.95 107 1.95 126 1.95 127 1.95 108 1.97  25 2.96   5 2.96
  16  0.000  0.875  0.394-  88 1.95  89 1.95 108 1.95 109 1.95 110 1.97 111 1.97   6 2.96  26 2.96

  17  0.750  0.000  0.394- 110 1.95 130 1.95 191 1.95 211 1.95 112 1.97 105 1.97   7 2.96  27 2.96

  18  0.750  0.875  0.500-  92 1.95  93 1.95 112 1.95 113 1.95 115 1.97 194 1.97   8 2.96  28 2.96

  19  0.000  0.000  0.500- 114 1.95 115 1.95 134 1.95 135 1.95 109 1.97 116 1.99   9 2.96  29 2.96

  20  1.000  0.875  0.604- 116 1.90  96 1.90 118 1.95 119 1.95 117 2.01  97 2.01  30 2.96  10 2.96

  21  0.750  0.000  0.610- 120 1.87 219 1.97 199 1.97 138 1.97 118 1.97 113 2.09  31 2.96  11 2.96

  22  0.750  0.875  0.720- 121 1.83 101 1.83 202 2.02 123 2.03 120 2.09 100 2.09  12 2.96  32 2.96

  23  0.000  0.000  0.708- 117 1.81 142 1.94 143 1.94 123 1.94 122 1.94  13 2.96  33 2.96
  24  0.750  0.125  0.287- 105 1.95 125 1.95 124 1.95 104 1.95 127 1.97 206 1.97  14 2.96  34 2.96

  25  0.000  0.250  0.287- 126 1.95 127 1.95 146 1.95 147 1.95 128 1.97  35 2.96  15 2.96
  26  0.000  0.125  0.394- 108 1.95 109 1.95 128 1.95 129 1.95 130 1.97 131 1.97  16 2.96  36 2.96

  27  0.750  0.250  0.394- 130 1.95 150 1.95 211 1.95 231 1.95 132 1.97 125 1.97  17 2.96  37 2.96

  28  0.750  0.125  0.500- 112 1.95 113 1.95 132 1.95 133 1.95 135 1.97 214 1.97  18 2.96  38 2.96

  29  0.000  0.250  0.500- 134 1.95 135 1.95 154 1.95 155 1.95 129 1.97 136 1.99  19 2.96  39 2.96

  30  1.000  0.125  0.604- 136 1.90 116 1.90 138 1.95 139 1.95 117 2.01 137 2.01  20 2.96  40 2.96

  31  0.750  0.250  0.610- 140 1.87 239 1.97 219 1.97 158 1.97 138 1.97 133 2.09  21 2.96  41 2.96

  32  0.750  0.125  0.720- 121 1.83 141 1.83 222 2.03 143 2.03 140 2.09 120 2.09  22 2.96  42 2.96

  33  0.000  0.250  0.708- 137 1.81 143 1.94 142 1.94 163 1.94 162 1.94  23 2.96  43 2.96
  34  0.750  0.375  0.287- 125 1.95 145 1.95 144 1.95 124 1.95 147 1.97 226 1.97   4 2.96  24 2.96

  35  0.000  0.500  0.287-  86 1.95  87 1.95 146 1.95 147 1.95 148 1.97  25 2.96   5 2.96
  36  0.000  0.375  0.394- 128 1.95 129 1.95 148 1.95 149 1.95 150 1.97 151 1.97   6 2.96  26 2.96

  37  0.750  0.500  0.394-  90 1.95 150 1.95 171 1.95 231 1.95 152 1.97 145 1.97   7 2.96  27 2.96

  38  0.750  0.375  0.500- 132 1.95 133 1.95 152 1.95 153 1.95 155 1.97 234 1.97   8 2.96  28 2.96

  39  0.000  0.500  0.500-  94 1.95  95 1.95 154 1.95 155 1.95 149 1.97 156 1.99   9 2.96  29 2.96

  40  1.000  0.375  0.604- 136 1.90 156 1.90 158 1.95 159 1.95 137 2.01 157 2.01  30 2.96  10 2.96

  41  0.750  0.500  0.610- 160 1.87 239 1.97 179 1.97 158 1.97  98 1.97 153 2.09  31 2.96  11 2.96

  42  0.750  0.375  0.720- 141 1.83 161 1.83 242 2.03 163 2.03 160 2.09 140 2.09  32 2.96  12 2.96

  43  0.000  0.500  0.708- 157 1.81 163 1.94 162 1.94 103 1.94 102 1.94  13 2.96  33 2.96
  44  0.250  0.625  0.287- 165 1.95 225 1.95 224 1.95 164 1.95  86 1.97 167 1.97  54 2.96  74 2.96

  45  0.500  0.750  0.287- 166 1.95 167 1.95 186 1.95 187 1.95 168 1.97  75 2.96  55 2.96
  46  0.500  0.625  0.394- 168 1.95 169 1.95 228 1.95 229 1.95 170 1.97 171 1.97  56 2.96  76 2.96

  47  0.250  0.750  0.394-  91 1.95 111 1.95 170 1.95 190 1.95 172 1.97 165 1.97  57 2.96  77 2.96

  48  0.250  0.625  0.500- 172 1.95 173 1.95 232 1.95 233 1.95  94 1.97 175 1.97  58 2.96  78 2.96

  49  0.500  0.750  0.500- 174 1.95 175 1.95 194 1.95 195 1.95 169 1.97 176 1.99  59 2.96  79 2.96

  50  0.500  0.625  0.605- 236 1.90 176 1.91 178 1.95 179 1.95 237 2.00 177 2.00  80 2.95  60 2.96

  51  0.250  0.750  0.610- 180 1.87 178 1.97 198 1.97  99 1.97 119 1.97 173 2.09  61 2.96  81 2.96

  52  0.250  0.625  0.719- 181 1.83 241 1.83 102 2.03 183 2.03 180 2.08 240 2.09  62 2.96  82 2.96

  53  0.500  0.751  0.708- 177 1.81 182 1.94 183 1.94 203 1.94 202 1.94  63 2.95  83 2.98
  54  0.250  0.875  0.287- 165 1.95 185 1.95 184 1.95 164 1.95 106 1.97 187 1.97  44 2.96  64 2.96

  55  0.500  0.000  0.287- 186 1.95 187 1.95 206 1.95 207 1.95 188 1.97  65 2.96  45 2.96
  56  0.500  0.875  0.394- 168 1.95 169 1.95 188 1.95 189 1.95 190 1.97 191 1.97  46 2.96  66 2.96

  57  0.250  0.000  0.394- 111 1.95 131 1.95 190 1.95 210 1.95 192 1.97 185 1.97  47 2.96  67 2.96

  58  0.250  0.875  0.500- 172 1.95 173 1.95 192 1.95 193 1.95 114 1.97 195 1.97  48 2.96  68 2.96

  59  0.500  0.000  0.500- 194 1.95 195 1.95 214 1.95 215 1.95 189 1.97 196 1.98  49 2.96  69 2.96

  60  0.500  0.875  0.604- 176 1.90 196 1.90 198 1.95 199 1.95 177 2.00 197 2.01  50 2.96  70 2.96

  61  0.250  0.000  0.610- 200 1.87 218 1.97 198 1.97 139 1.97 119 1.97 193 2.09  71 2.96  51 2.96

  62  0.250  0.875  0.720- 201 1.83 181 1.83 203 2.02 122 2.03 200 2.09 180 2.09  52 2.96  72 2.96

  63  0.500  0.000  0.708- 197 1.81 202 1.94 203 1.94 223 1.94 222 1.94  53 2.95  73 2.95
  64  0.250  0.125  0.287- 185 1.95 205 1.95 204 1.95 184 1.95 126 1.97 207 1.97  54 2.96  74 2.96

  65  0.500  0.250  0.287- 206 1.95 207 1.95 226 1.95 227 1.95 208 1.97  75 2.96  55 2.96
  66  0.500  0.125  0.394- 188 1.95 189 1.95 208 1.95 209 1.95 210 1.97 211 1.97  56 2.96  76 2.96

  67  0.250  0.250  0.394- 131 1.95 151 1.95 210 1.95 230 1.95 212 1.97 205 1.97  57 2.96  77 2.96

  68  0.250  0.125  0.500- 192 1.95 193 1.95 212 1.95 213 1.95 134 1.97 215 1.97  58 2.96  78 2.96

  69  0.500  0.250  0.500- 214 1.95 215 1.95 234 1.95 235 1.95 209 1.97 216 1.99  59 2.96  79 2.96

  70  0.500  0.125  0.604- 216 1.90 196 1.90 218 1.95 219 1.95 217 2.00 197 2.01  80 2.96  60 2.96

  71  0.250  0.250  0.610- 220 1.87 238 1.97 218 1.97 159 1.97 139 1.97 213 2.09  61 2.96  81 2.96

  72  0.250  0.125  0.720- 201 1.83 221 1.83 223 2.03 142 2.03 220 2.09 200 2.09  62 2.96  82 2.96

  73  0.500  0.250  0.708- 217 1.81 242 1.94 243 1.94 223 1.94 222 1.94  83 2.95  63 2.95
  74  0.250  0.375  0.287- 205 1.95 225 1.95 224 1.95 204 1.95 146 1.97 227 1.97  44 2.96  64 2.96

  75  0.500  0.500  0.287- 166 1.95 167 1.95 226 1.95 227 1.95 228 1.97  65 2.96  45 2.96
  76  0.500  0.375  0.394- 208 1.95 209 1.95 228 1.95 229 1.95 230 1.97 231 1.97  46 2.96  66 2.96

  77  0.250  0.500  0.394-  91 1.95 151 1.95 170 1.95 230 1.95 232 1.97 225 1.97  47 2.96  67 2.96

  78  0.250  0.375  0.500- 212 1.95 213 1.95 232 1.95 233 1.95 154 1.97 235 1.97  48 2.96  68 2.96

  79  0.500  0.500  0.500- 174 1.95 175 1.95 234 1.95 235 1.95 229 1.97 236 1.99  49 2.96  69 2.96

  80  0.500  0.376  0.605- 236 1.90 216 1.91 238 1.95 239 1.95 237 2.00 217 2.01  50 2.95  70 2.96

  81  0.250  0.500  0.610- 240 1.87 238 1.97 178 1.97 159 1.97  99 1.97 233 2.09  71 2.96  51 2.96

  82  0.250  0.375  0.720- 221 1.83 241 1.83 243 2.03 162 2.03 240 2.09 220 2.09  72 2.96  52 2.96

  83  0.500  0.499  0.709- 237 1.83 243 1.93 242 1.93 183 1.96 182 1.96   3 2.50  73 2.95  53 2.98

  84  0.750  0.750  0.246-   4 1.95  14 1.95
  85  0.750  0.750  0.329-   4 1.95  14 1.95   7 1.97
  86  0.098  0.625  0.287-   5 1.95  35 1.95  44 1.97
  87  0.902  0.625  0.287-   5 1.95  35 1.95   4 1.97
  88  0.000  0.750  0.352-   6 1.95  16 1.95   5 1.97
  89  0.000  0.750  0.435-   6 1.95  16 1.95   9 1.97
  90  0.848  0.625  0.394-   7 1.95  37 1.95   6 1.97
  91  0.152  0.625  0.394-  47 1.95  77 1.95   6 1.97
  92  0.750  0.750  0.458-   8 1.95  18 1.95   7 1.97
  93  0.750  0.750  0.542-   8 1.95  18 1.95  11 2.09
  94  0.098  0.625  0.500-   9 1.95  39 1.95  48 1.97
  95  0.902  0.625  0.500-   9 1.95  39 1.95   8 1.97
  96  1.000  0.750  0.565-  10 1.90  20 1.90   9 1.99
  97  0.000  0.750  0.649-  13 1.81  10 2.01  20 2.01
  98  0.850  0.625  0.607-  10 1.95  11 1.97  41 1.97
  99  0.150  0.625  0.607-  10 1.95  51 1.97  81 1.97
 100  0.751  0.750  0.671-  11 1.87  12 2.08  22 2.09
 101  0.749  0.750  0.755-  12 1.83  22 1.83
 102  0.094  0.625  0.719-  43 1.94  13 1.94  52 2.03
 103  0.906  0.625  0.719-  43 1.94  13 1.94  12 2.03
 104  0.750  0.000  0.246-  14 1.95  24 1.95
 105  0.750  0.000  0.329-  14 1.95  24 1.95  17 1.97
 106  0.098  0.875  0.287-   5 1.95  15 1.95  54 1.97
 107  0.902  0.875  0.287-   5 1.95  15 1.95  14 1.97
 108  0.000  0.000  0.352-  16 1.95  26 1.95  15 1.97
 109  0.000  0.000  0.435-  16 1.95  26 1.95  19 1.97
 110  0.848  0.875  0.394-   7 1.95  17 1.95  16 1.97
 111  0.152  0.875  0.394-  47 1.95  57 1.95  16 1.97
 112  0.750  0.000  0.458-  18 1.95  28 1.95  17 1.97
 113  0.750  0.000  0.542-  18 1.95  28 1.95  21 2.09
 114  0.098  0.875  0.500-   9 1.95  19 1.95  58 1.97
 115  0.902  0.875  0.500-   9 1.95  19 1.95  18 1.97
 116  1.000  0.000  0.565-  20 1.90  30 1.90  19 1.99
 117  0.000  0.000  0.649-  23 1.81  20 2.01  30 2.01
 118  0.850  0.875  0.607-  20 1.95  21 1.97  11 1.97
 119  0.150  0.875  0.607-  20 1.95  61 1.97  51 1.97
 120  0.750  0.000  0.671-  21 1.87  22 2.09  32 2.09
 121  0.750  0.000  0.755-  22 1.83  32 1.83
 122  0.094  0.875  0.718-  13 1.94  23 1.94  62 2.03
 123  0.906  0.875  0.718-  13 1.94  23 1.94  22 2.03
 124  0.750  0.250  0.246-  24 1.95  34 1.95
 125  0.750  0.250  0.329-  24 1.95  34 1.95  27 1.97
 126  0.098  0.125  0.287-  15 1.95  25 1.95  64 1.97
 127  0.902  0.125  0.287-  15 1.95  25 1.95  24 1.97
 128  0.000  0.250  0.352-  26 1.95  36 1.95  25 1.97
 129  0.000  0.250  0.435-  26 1.95  36 1.95  29 1.97
 130  0.848  0.125  0.394-  17 1.95  27 1.95  26 1.97
 131  0.152  0.125  0.394-  57 1.95  67 1.95  26 1.97
 132  0.750  0.250  0.458-  28 1.95  38 1.95  27 1.97
 133  0.750  0.250  0.542-  28 1.95  38 1.95  31 2.09
 134  0.098  0.125  0.500-  19 1.95  29 1.95  68 1.97
 135  0.902  0.125  0.500-  19 1.95  29 1.95  28 1.97
 136  1.000  0.250  0.565-  40 1.90  30 1.90  29 1.99
 137  0.000  0.250  0.649-  33 1.81  40 2.01  30 2.01
 138  0.850  0.125  0.607-  30 1.95  21 1.97  31 1.97
 139  0.150  0.125  0.607-  30 1.95  61 1.97  71 1.97
 140  0.751  0.250  0.671-  31 1.87  32 2.09  42 2.09
 141  0.750  0.250  0.755-  42 1.83  32 1.83
 142  0.094  0.125  0.718-  33 1.94  23 1.94  72 2.03
 143  0.906  0.125  0.718-  33 1.94  23 1.94  32 2.03
 144  0.750  0.500  0.246-   4 1.95  34 1.95
 145  0.750  0.500  0.329-   4 1.95  34 1.95  37 1.97
 146  0.098  0.375  0.287-  25 1.95  35 1.95  74 1.97
 147  0.902  0.375  0.287-  25 1.95  35 1.95  34 1.97
 148  0.000  0.500  0.352-   6 1.95  36 1.95  35 1.97
 149  0.000  0.500  0.435-   6 1.95  36 1.95  39 1.97
 150  0.848  0.375  0.394-  27 1.95  37 1.95  36 1.97
 151  0.152  0.375  0.394-  67 1.95  77 1.95  36 1.97
 152  0.750  0.500  0.458-   8 1.95  38 1.95  37 1.97
 153  0.750  0.500  0.542-   8 1.95  38 1.95  41 2.09
 154  0.098  0.375  0.500-  29 1.95  39 1.95  78 1.97
 155  0.902  0.375  0.500-  29 1.95  39 1.95  38 1.97
 156  1.000  0.500  0.565-  10 1.90  40 1.90  39 1.99
 157  0.000  0.500  0.649-  43 1.81  10 2.01  40 2.01
 158  0.850  0.375  0.607-  40 1.95  31 1.97  41 1.97
 159  0.150  0.375  0.607-  40 1.95  71 1.97  81 1.97
 160  0.751  0.500  0.671-  41 1.87  12 2.09  42 2.09
 161  0.748  0.500  0.755-  42 1.83  12 1.83
 162  0.094  0.375  0.719-  43 1.94  33 1.94  82 2.03
 163  0.906  0.375  0.719-  43 1.94  33 1.94  42 2.03
 164  0.250  0.750  0.246-  44 1.95  54 1.95
 165  0.250  0.750  0.329-  44 1.95  54 1.95  47 1.97
 166  0.598  0.625  0.287-  45 1.95  75 1.95   4 1.97
 167  0.402  0.625  0.287-  45 1.95  75 1.95  44 1.97
 168  0.500  0.750  0.352-  46 1.95  56 1.95  45 1.97
 169  0.500  0.750  0.435-  46 1.95  56 1.95  49 1.97
 170  0.348  0.625  0.394-  47 1.95  77 1.95  46 1.97
 171  0.652  0.625  0.394-   7 1.95  37 1.95  46 1.97
 172  0.250  0.750  0.458-  48 1.95  58 1.95  47 1.97
 173  0.250  0.750  0.542-  48 1.95  58 1.95  51 2.09
 174  0.598  0.625  0.500-  49 1.95  79 1.95   8 1.97
 175  0.402  0.625  0.500-  49 1.95  79 1.95  48 1.97
 176  0.500  0.749  0.565-  60 1.90  50 1.91  49 1.99
 177  0.500  0.751  0.648-  53 1.81  60 2.00  50 2.00
 178  0.350  0.625  0.607-  50 1.95  81 1.97  51 1.97
 179  0.650  0.625  0.607-  50 1.95  41 1.97  11 1.97
 180  0.249  0.750  0.671-  51 1.87  52 2.08  62 2.09
 181  0.251  0.750  0.755-  52 1.83  62 1.83
 182  0.594  0.626  0.717-  53 1.94  83 1.96  12 2.03
 183  0.406  0.626  0.717-  53 1.94  83 1.96  52 2.03
 184  0.250  0.000  0.246-  54 1.95  64 1.95
 185  0.250  0.000  0.329-  54 1.95  64 1.95  57 1.97
 186  0.598  0.875  0.287-  45 1.95  55 1.95  14 1.97
 187  0.402  0.875  0.287-  45 1.95  55 1.95  54 1.97
 188  0.500  0.000  0.352-  56 1.95  66 1.95  55 1.97
 189  0.500  0.000  0.435-  56 1.95  66 1.95  59 1.97
 190  0.348  0.875  0.394-  47 1.95  57 1.95  56 1.97
 191  0.652  0.875  0.394-   7 1.95  17 1.95  56 1.97
 192  0.250  0.000  0.458-  58 1.95  68 1.95  57 1.97
 193  0.250  0.000  0.542-  58 1.95  68 1.95  61 2.09
 194  0.598  0.875  0.500-  49 1.95  59 1.95  18 1.97
 195  0.402  0.875  0.500-  49 1.95  59 1.95  58 1.97
 196  0.500  0.000  0.565-  70 1.90  60 1.90  59 1.98
 197  0.500  0.000  0.648-  63 1.81  70 2.01  60 2.01
 198  0.350  0.875  0.607-  60 1.95  61 1.97  51 1.97
 199  0.650  0.875  0.607-  60 1.95  21 1.97  11 1.97
 200  0.250  0.000  0.671-  61 1.87  62 2.09  72 2.09
 201  0.250  0.000  0.755-  62 1.83  72 1.83
 202  0.594  0.876  0.718-  63 1.94  53 1.94  22 2.02
 203  0.406  0.876  0.718-  63 1.94  53 1.94  62 2.02
 204  0.250  0.250  0.246-  64 1.95  74 1.95
 205  0.250  0.250  0.329-  64 1.95  74 1.95  67 1.97
 206  0.598  0.125  0.287-  55 1.95  65 1.95  24 1.97
 207  0.402  0.125  0.287-  55 1.95  65 1.95  64 1.97
 208  0.500  0.250  0.352-  66 1.95  76 1.95  65 1.97
 209  0.500  0.250  0.435-  66 1.95  76 1.95  69 1.97
 210  0.348  0.125  0.394-  57 1.95  67 1.95  66 1.97
 211  0.652  0.125  0.394-  17 1.95  27 1.95  66 1.97
 212  0.250  0.250  0.458-  68 1.95  78 1.95  67 1.97
 213  0.250  0.250  0.542-  68 1.95  78 1.95  71 2.09
 214  0.598  0.125  0.500-  59 1.95  69 1.95  28 1.97
 215  0.402  0.125  0.500-  59 1.95  69 1.95  68 1.97
 216  0.500  0.251  0.565-  70 1.90  80 1.91  69 1.99
 217  0.500  0.249  0.648-  73 1.81  70 2.00  80 2.01
 218  0.350  0.125  0.607-  70 1.95  61 1.97  71 1.97
 219  0.650  0.125  0.607-  70 1.95  21 1.97  31 1.97
 220  0.249  0.250  0.671-  71 1.87  72 2.09  82 2.09
 221  0.250  0.250  0.755-  82 1.83  72 1.83
 222  0.594  0.125  0.718-  73 1.94  63 1.94  32 2.03
 223  0.406  0.125  0.718-  73 1.94  63 1.94  72 2.03
 224  0.250  0.500  0.246-  44 1.95  74 1.95
 225  0.250  0.500  0.329-  44 1.95  74 1.95  77 1.97
 226  0.598  0.375  0.287-  65 1.95  75 1.95  34 1.97
 227  0.402  0.375  0.287-  65 1.95  75 1.95  74 1.97
 228  0.500  0.500  0.352-  46 1.95  76 1.95  75 1.97
 229  0.500  0.500  0.435-  46 1.95  76 1.95  79 1.97
 230  0.348  0.375  0.394-  67 1.95  77 1.95  76 1.97
 231  0.652  0.375  0.394-  27 1.95  37 1.95  76 1.97
 232  0.250  0.500  0.458-  48 1.95  78 1.95  77 1.97
 233  0.250  0.500  0.542-  48 1.95  78 1.95  81 2.09
 234  0.598  0.375  0.500-  69 1.95  79 1.95  38 1.97
 235  0.402  0.375  0.500-  69 1.95  79 1.95  78 1.97
 236  0.500  0.500  0.565-  80 1.90  50 1.90  79 1.99
 237  0.500  0.500  0.649-  83 1.83  80 2.00  50 2.00
 238  0.350  0.375  0.607-  80 1.95  81 1.97  71 1.97
 239  0.650  0.375  0.607-  80 1.95  41 1.97  31 1.97
 240  0.249  0.500  0.671-  81 1.87  52 2.09  82 2.09
 241  0.252  0.500  0.755-  82 1.83  52 1.83
 242  0.594  0.374  0.717-  83 1.93  73 1.94  42 2.03
 243  0.406  0.374  0.717-  83 1.93  73 1.94  82 2.03


IMPORTANT INFORMATION: All symmetrisations will be switched off!
NOSYMM: (Re-)initialisation of all symmetry stuff for point group C_1.


----------------------------------------------------------------------------------------

                                     Primitive cell                                     

  volume of cell :    4687.7932

  direct lattice vectors                    reciprocal lattice vectors
    12.981765453  0.000000000  0.000000000     0.077031125  0.000000000  0.000000000
     0.000000000 11.829918508  0.000000000     0.000000000  0.084531436  0.000000000
     0.000000000  0.000000000 30.524807391     0.000000000  0.000000000  0.032760239

  length of vectors
    12.981765453 11.829918508 30.524807391     0.077031125  0.084531436  0.032760239

  position of ions in fractional coordinates (direct lattice)
     0.500000057  0.608875465  0.798429936
     0.499999990  0.705839842  0.804879278
     0.500000082  0.511565394  0.790850351
     0.750000000  0.625000000  0.287357127
     0.000000000  0.750000000  0.287357127
     0.000000000  0.625000000  0.393678564
     0.750000000  0.750000000  0.393678564
     0.750000000  0.625000000  0.500000000
     0.000000000  0.750000000  0.500000000
     0.999999892  0.625046232  0.604133719
     0.750039133  0.750062487  0.610048954
     0.750202759  0.625264177  0.719315489
     0.000000113  0.750163752  0.708044665
     0.750000000  0.875000000  0.287357127
     0.000000000  0.000000000  0.287357127
     0.000000000  0.875000000  0.393678564
     0.750000000  0.000000000  0.393678564
     0.750000000  0.875000000  0.500000000
     0.000000000  0.000000000  0.500000000
     0.999999879  0.875060013  0.604155277
     0.749982498  0.000043844  0.610161276
     0.749905212  0.875167936  0.719710161
     0.000000158  0.000057063  0.708071132
     0.750000000  0.125000000  0.287357127
     0.000000000  0.250000000  0.287357127
     0.000000000  0.125000000  0.393678564
     0.750000000  0.250000000  0.393678564
     0.750000000  0.125000000  0.500000000
     0.000000000  0.250000000  0.500000000
     0.999999915  0.125016847  0.604178176
     0.750028885  0.250010306  0.610151861
     0.749962830  0.125097915  0.719692015
     0.000000134  0.250018677  0.708073989
     0.750000000  0.375000000  0.287357127
     0.000000000  0.500000000  0.287357127
     0.000000000  0.375000000  0.393678564
     0.750000000  0.500000000  0.393678564
     0.750000000  0.375000000  0.500000000
     0.000000000  0.500000000  0.500000000
     0.999999916  0.375005219  0.604141387
     0.750082459  0.500008380  0.610085213
     0.750179933  0.375091388  0.719647334
     0.000000052  0.500095168  0.708035311
     0.250000000  0.625000000  0.287357127
     0.500000000  0.750000000  0.287357127
     0.500000000  0.625000000  0.393678564
     0.250000000  0.750000000  0.393678564
     0.250000000  0.625000000  0.500000000
     0.500000000  0.750000000  0.500000000
     0.499999880  0.624532563  0.604621768
     0.249960579  0.750062488  0.610048957
     0.249797290  0.625264138  0.719315499
     0.500000133  0.750835253  0.707828891
     0.250000000  0.875000000  0.287357127
     0.500000000  0.000000000  0.287357127
     0.500000000  0.875000000  0.393678564
     0.250000000  0.000000000  0.393678564
     0.250000000  0.875000000  0.500000000
     0.500000000  0.000000000  0.500000000
     0.499999879  0.874748625  0.603881201
     0.250017272  0.000043838  0.610161283
     0.250095031  0.875167867  0.719710179
     0.500000145  0.000118095  0.707722029
     0.250000000  0.125000000  0.287357127
     0.500000000  0.250000000  0.287357127
     0.500000000  0.125000000  0.393678564
     0.250000000  0.250000000  0.393678564
     0.250000000  0.125000000  0.500000000
     0.500000000  0.250000000  0.500000000
     0.499999904  0.125239288  0.603860852
     0.249970916  0.250010302  0.610151859
     0.250037442  0.125097907  0.719692018
     0.500000155  0.249547898  0.707755594
     0.250000000  0.375000000  0.287357127
     0.500000000  0.500000000  0.287357127
     0.500000000  0.375000000  0.393678564
     0.250000000  0.500000000  0.393678564
     0.250000000  0.375000000  0.500000000
     0.500000000  0.500000000  0.500000000
     0.499999920  0.375547459  0.604516906
     0.249917311  0.500008361  0.610085204
     0.249820196  0.375091397  0.719647316
     0.500000022  0.498770041  0.709113573
     0.750000000  0.750000000  0.245701796
     0.750000000  0.750000000  0.329012459
     0.097946691  0.625000000  0.287357127
     0.902053309  0.625000000  0.287357127
     0.000000000  0.750000000  0.352023232
     0.000000000  0.750000000  0.435333895
     0.847946691  0.625000000  0.393678564
     0.152053309  0.625000000  0.393678564
     0.750000000  0.750000000  0.458344669
     0.750000000  0.750000000  0.541655331
     0.097946691  0.625000000  0.500000000
     0.902053309  0.625000000  0.500000000
     0.999999952  0.750063347  0.565156146
     0.000000083  0.750014727  0.648666993
     0.850126506  0.625077418  0.606749730
     0.149873611  0.625077413  0.606749700
     0.750660153  0.750280302  0.671222014
     0.749320946  0.749812818  0.754880138
     0.093796602  0.625059812  0.718514717
     0.906203776  0.625059842  0.718514840
     0.750000000  0.000000000  0.245701796
     0.750000000  0.000000000  0.329012459
     0.097946691  0.875000000  0.287357127
     0.902053309  0.875000000  0.287357127
     0.000000000  0.000000000  0.352023232
     0.000000000  0.000000000  0.435333895
     0.847946691  0.875000000  0.393678564
     0.152053309  0.875000000  0.393678564
     0.750000000  0.000000000  0.458344669
     0.750000000  0.000000000  0.541655331
     0.097946691  0.875000000  0.500000000
     0.902053309  0.875000000  0.500000000
     0.999999949  0.000058881  0.565163461
     0.000000088  0.000004996  0.648685229
     0.850115278  0.875093127  0.606794649
     0.149884846  0.875093139  0.606794622
     0.750251189  0.000070731  0.671318569
     0.750137661  0.000075512  0.754956032
     0.093815419  0.875009190  0.718468410
     0.906184976  0.875009194  0.718468543
     0.750000000  0.250000000  0.245701796
     0.750000000  0.250000000  0.329012459
     0.097946691  0.125000000  0.287357127
     0.902053309  0.125000000  0.287357127
     0.000000000  0.250000000  0.352023232
     0.000000000  0.250000000  0.435333895
     0.847946691  0.125000000  0.393678564
     0.152053309  0.125000000  0.393678564
     0.750000000  0.250000000  0.458344669
     0.750000000  0.250000000  0.541655331
     0.097946691  0.125000000  0.500000000
     0.902053309  0.125000000  0.500000000
     0.999999955  0.249981839  0.565167348
     0.000000094  0.250115779  0.648692859
     0.850117337  0.124997486  0.606839315
     0.149882792  0.124997475  0.606839281
     0.750538201  0.249930042  0.671296237
     0.749938169  0.250204813  0.754928330
     0.093770998  0.125106468  0.718437147
     0.906229413  0.125106470  0.718437301
     0.750000000  0.500000000  0.245701796
     0.750000000  0.500000000  0.329012459
     0.097946691  0.375000000  0.287357127
     0.902053309  0.375000000  0.287357127
     0.000000000  0.500000000  0.352023232
     0.000000000  0.500000000  0.435333895
     0.847946691  0.375000000  0.393678564
     0.152053309  0.375000000  0.393678564
     0.750000000  0.500000000  0.458344669
     0.750000000  0.500000000  0.541655331
     0.097946691  0.375000000  0.500000000
     0.902053309  0.375000000  0.500000000
     0.999999951  0.500020754  0.565157922
     0.000000075  0.500056683  0.648661195
     0.850125720  0.374973479  0.606769032
     0.149874404  0.374973486  0.606768998
     0.750895421  0.500012876  0.671236101
     0.748444758  0.500435374  0.754843193
     0.093809594  0.375206873  0.718547889
     0.906190757  0.375206846  0.718548009
     0.250000000  0.750000000  0.245701796
     0.250000000  0.750000000  0.329012459
     0.597946691  0.625000000  0.287357127
     0.402053309  0.625000000  0.287357127
     0.500000000  0.750000000  0.352023232
     0.500000000  0.750000000  0.435333895
     0.347946691  0.625000000  0.393678564
     0.652053309  0.625000000  0.393678564
     0.250000000  0.750000000  0.458344669
     0.250000000  0.750000000  0.541655331
     0.597946691  0.625000000  0.500000000
     0.402053309  0.625000000  0.500000000
     0.499999949  0.749498168  0.565158265
     0.500000118  0.750664818  0.648443759
     0.349903626  0.625009574  0.606980513
     0.650096507  0.625009571  0.606980472
     0.249340055  0.750280317  0.671222016
     0.250678996  0.749812788  0.754880145
     0.594149882  0.626024273  0.717466568
     0.405850431  0.626024266  0.717466642
     0.250000000  0.000000000  0.245701796
     0.250000000  0.000000000  0.329012459
     0.597946691  0.875000000  0.287357127
     0.402053309  0.875000000  0.287357127
     0.500000000  0.000000000  0.352023232
     0.500000000  0.000000000  0.435333895
     0.347946691  0.875000000  0.393678564
     0.652053309  0.875000000  0.393678564
     0.250000000  0.000000000  0.458344669
     0.250000000  0.000000000  0.541655331
     0.597946691  0.875000000  0.500000000
     0.402053309  0.875000000  0.500000000
     0.499999954  0.000002800  0.564986534
     0.500000079  0.000138112  0.648384916
     0.349939267  0.875060159  0.606778887
     0.650060873  0.875060184  0.606778853
     0.249749100  0.000070723  0.671318564
     0.249862258  0.000075502  0.754956032
     0.594026699  0.875582128  0.718008754
     0.405973684  0.875582115  0.718008902
     0.250000000  0.250000000  0.245701796
     0.250000000  0.250000000  0.329012459
     0.597946691  0.125000000  0.287357127
     0.402053309  0.125000000  0.287357127
     0.500000000  0.250000000  0.352023232
     0.500000000  0.250000000  0.435333895
     0.347946691  0.125000000  0.393678564
     0.652053309  0.125000000  0.393678564
     0.250000000  0.250000000  0.458344669
     0.250000000  0.250000000  0.541655331
     0.597946691  0.125000000  0.500000000
     0.402053309  0.125000000  0.500000000
     0.499999952  0.250501784  0.565126247
     0.500000115  0.249411496  0.648419144
     0.349934876  0.125022019  0.606782892
     0.650065280  0.125022012  0.606782864
     0.249462014  0.249930043  0.671296223
     0.250061721  0.250204782  0.754928322
     0.593962585  0.124875795  0.718221998
     0.406037833  0.124875812  0.718222144
     0.250000000  0.500000000  0.245701796
     0.250000000  0.500000000  0.329012459
     0.597946691  0.375000000  0.287357127
     0.402053309  0.375000000  0.287357127
     0.500000000  0.500000000  0.352023232
     0.500000000  0.500000000  0.435333895
     0.347946691  0.375000000  0.393678564
     0.652053309  0.375000000  0.393678564
     0.250000000  0.500000000  0.458344669
     0.250000000  0.500000000  0.541655331
     0.597946691  0.375000000  0.500000000
     0.402053309  0.375000000  0.500000000
     0.499999950  0.500068981  0.565300765
     0.500000101  0.499880209  0.649059768
     0.349907244  0.375038341  0.606966671
     0.650092905  0.375038325  0.606966632
     0.249104769  0.500012878  0.671236093
     0.251555187  0.500435346  0.754843201
     0.594249810  0.373939844  0.717484259
     0.405750456  0.373939773  0.717484355

  ion indices of the primitive-cell ions
   primitive index   ion index
                 1           1
                 2           2
                 3           3
                 4           4
                 5           5
                 6           6
                 7           7
                 8           8
                 9           9
                10          10
                11          11
                12          12
                13          13
                14          14
                15          15
                16          16
                17          17
                18          18
                19          19
                20          20
                21          21
                22          22
                23          23
                24          24
                25          25
                26          26
                27          27
                28          28
                29          29
                30          30
                31          31
                32          32
                33          33
                34          34
                35          35
                36          36
                37          37
                38          38
                39          39
                40          40
                41          41
                42          42
                43          43
                44          44
                45          45
                46          46
                47          47
                48          48
                49          49
                50          50
                51          51
                52          52
                53          53
                54          54
                55          55
                56          56
                57          57
                58          58
                59          59
                60          60
                61          61
                62          62
                63          63
                64          64
                65          65
                66          66
                67          67
                68          68
                69          69
                70          70
                71          71
                72          72
                73          73
                74          74
                75          75
                76          76
                77          77
                78          78
                79          79
                80          80
                81          81
                82          82
                83          83
                84          84
                85          85
                86          86
                87          87
                88          88
                89          89
                90          90
                91          91
                92          92
                93          93
                94          94
                95          95
                96          96
                97          97
                98          98
                99          99
               100         100
               101         101
               102         102
               103         103
               104         104
               105         105
               106         106
               107         107
               108         108
               109         109
               110         110
               111         111
               112         112
               113         113
               114         114
               115         115
               116         116
               117         117
               118         118
               119         119
               120         120
               121         121
               122         122
               123         123
               124         124
               125         125
               126         126
               127         127
               128         128
               129         129
               130         130
               131         131
               132         132
               133         133
               134         134
               135         135
               136         136
               137         137
               138         138
               139         139
               140         140
               141         141
               142         142
               143         143
               144         144
               145         145
               146         146
               147         147
               148         148
               149         149
               150         150
               151         151
               152         152
               153         153
               154         154
               155         155
               156         156
               157         157
               158         158
               159         159
               160         160
               161         161
               162         162
               163         163
               164         164
               165         165
               166         166
               167         167
               168         168
               169         169
               170         170
               171         171
               172         172
               173         173
               174         174
               175         175
               176         176
               177         177
               178         178
               179         179
               180         180
               181         181
               182         182
               183         183
               184         184
               185         185
               186         186
               187         187
               188         188
               189         189
               190         190
               191         191
               192         192
               193         193
               194         194
               195         195
               196         196
               197         197
               198         198
               199         199
               200         200
               201         201
               202         202
               203         203
               204         204
               205         205
               206         206
               207         207
               208         208
               209         209
               210         210
               211         211
               212         212
               213         213
               214         214
               215         215
               216         216
               217         217
               218         218
               219         219
               220         220
               221         221
               222         222
               223         223
               224         224
               225         225
               226         226
               227         227
               228         228
               229         229
               230         230
               231         231
               232         232
               233         233
               234         234
               235         235
               236         236
               237         237
               238         238
               239         239
               240         240
               241         241
               242         242
               243         243

----------------------------------------------------------------------------------------



 KPOINTS: pymatgen v2020.8.13 with grid density = 

Automatic generation of k-mesh.
 Grid dimensions read from file:
 generate k-points for:    2    2    1

 Generating k-lattice:

  Cartesian coordinates                     Fractional coordinates (reciprocal lattice)
     0.038515563  0.000000000  0.000000000     0.500000000  0.000000000  0.000000000
     0.000000000  0.042265718  0.000000000     0.000000000  0.500000000  0.000000000
     0.000000000  0.000000000  0.032760239     0.000000000  0.000000000  1.000000000

  Length of vectors
     0.038515563  0.042265718  0.032760239

  Shift w.r.t. Gamma in fractional coordinates (k-lattice)
     0.000000000  0.000000000  0.000000000

 
 Subroutine IBZKPT returns following result:
 ===========================================
 
 Found      4 irreducible k-points:
 
 Following reciprocal coordinates:
            Coordinates               Weight
  0.000000  0.000000  0.000000      1.000000
  0.500000  0.000000  0.000000      1.000000
  0.000000  0.500000  0.000000      1.000000
  0.500000  0.500000  0.000000      1.000000
 
 Following cartesian coordinates:
            Coordinates               Weight
  0.000000  0.000000  0.000000      1.000000
  0.038516  0.000000  0.000000      1.000000
  0.000000  0.042266  0.000000      1.000000
  0.038516  0.042266  0.000000      1.000000
 


--------------------------------------------------------------------------------------------------------




 Dimension of arrays:
   k-points           NKPTS =      4   k-points in BZ     NKDIM =      4   number of bands    NBANDS=   1088
   number of dos      NEDOS =    301   number of ions     NIONS =    243
   non local maximal  LDIM  =      6   non local SUM 2l+1 LMDIM =     18
   total plane-waves  NPLWV = ******
   max r-space proj   IRMAX =      1   max aug-charges    IRDMAX=  21664
   dimension x,y,z NGX =   108 NGY =   96 NGZ =  250
   dimension x,y,z NGXF=   216 NGYF=  192 NGZF=  500
   support grid    NGXF=   216 NGYF=  192 NGZF=  500
   ions per type =               1   2  80 160
   NGX,Y,Z   is equivalent  to a cutoff of  13.83, 13.49, 13.62 a.u.
   NGXF,Y,Z  is equivalent  to a cutoff of  27.66, 26.98, 27.23 a.u.

 SYSTEM =  TiO2                                    
 POSCAR =   C  O Ti  O                             

--------------------------------------------------------------------------------------------------------


  energy-cutoff  :      600.00
  volume of cell :     4687.79
      direct lattice vectors                 reciprocal lattice vectors
    12.981765453  0.000000000  0.000000000     0.077031125  0.000000000  0.000000000
     0.000000000 11.829918508  0.000000000     0.000000000  0.084531436  0.000000000
     0.000000000  0.000000000 30.524807391     0.000000000  0.000000000  0.032760239

  length of vectors
    12.981765453 11.829918508 30.524807391     0.077031125  0.084531436  0.032760239



 k-points in units of 2pi/SCALE and weight: pymatgen v2020.8.13 with grid density = 
   0.00000000  0.00000000  0.00000000       0.250
   0.03851556  0.00000000  0.00000000       0.250
   0.00000000  0.04226572  0.00000000       0.250
   0.03851556  0.04226572  0.00000000       0.250

 k-points in reciprocal lattice and weights: pymatgen v2020.8.13 with grid density = 
   0.00000000  0.00000000  0.00000000       0.250
   0.50000000  0.00000000  0.00000000       0.250
   0.00000000  0.50000000  0.00000000       0.250
   0.50000000  0.50000000  0.00000000       0.250

 position of ions in fractional coordinates (direct lattice) 
   0.50000006  0.60887546  0.79842994
   0.49999999  0.70583984  0.80487928
   0.50000008  0.51156539  0.79085035
   0.75000000  0.62500000  0.28735713
   0.00000000  0.75000000  0.28735713
   0.00000000  0.62500000  0.39367856
   0.75000000  0.75000000  0.39367856
   0.75000000  0.62500000  0.50000000
   0.00000000  0.75000000  0.50000000
   0.99999989  0.62504623  0.60413372
   0.75003913  0.75006249  0.61004895
   0.75020276  0.62526418  0.71931549
   0.00000011  0.75016375  0.70804466
   0.75000000  0.87500000  0.28735713
   0.00000000  0.00000000  0.28735713
   0.00000000  0.87500000  0.39367856
   0.75000000  0.00000000  0.39367856
   0.75000000  0.87500000  0.50000000
   0.00000000  0.00000000  0.50000000
   0.99999988  0.87506001  0.60415528
   0.74998250  0.00004384  0.61016128
   0.74990521  0.87516794  0.71971016
   0.00000016  0.00005706  0.70807113
   0.75000000  0.12500000  0.28735713
   0.00000000  0.25000000  0.28735713
   0.00000000  0.12500000  0.39367856
   0.75000000  0.25000000  0.39367856
   0.75000000  0.12500000  0.50000000
   0.00000000  0.25000000  0.50000000
   0.99999992  0.12501685  0.60417818
   0.75002888  0.25001031  0.61015186
   0.74996283  0.12509791  0.71969201
   0.00000013  0.25001868  0.70807399
   0.75000000  0.37500000  0.28735713
   0.00000000  0.50000000  0.28735713
   0.00000000  0.37500000  0.39367856
   0.75000000  0.50000000  0.39367856
   0.75000000  0.37500000  0.50000000
   0.00000000  0.50000000  0.50000000
   0.99999992  0.37500522  0.60414139
   0.75008246  0.50000838  0.61008521
   0.75017993  0.37509139  0.71964733
   0.00000005  0.50009517  0.70803531
   0.25000000  0.62500000  0.28735713
   0.50000000  0.75000000  0.28735713
   0.50000000  0.62500000  0.39367856
   0.25000000  0.75000000  0.39367856
   0.25000000  0.62500000  0.50000000
   0.50000000  0.75000000  0.50000000
   0.49999988  0.62453256  0.60462177
   0.24996058  0.75006249  0.61004896
   0.24979729  0.62526414  0.71931550
   0.50000013  0.75083525  0.70782889
   0.25000000  0.87500000  0.28735713
   0.50000000  0.00000000  0.28735713
   0.50000000  0.87500000  0.39367856
   0.25000000  0.00000000  0.39367856
   0.25000000  0.87500000  0.50000000
   0.50000000  0.00000000  0.50000000
   0.49999988  0.87474862  0.60388120
   0.25001727  0.00004384  0.61016128
   0.25009503  0.87516787  0.71971018
   0.50000015  0.00011809  0.70772203
   0.25000000  0.12500000  0.28735713
   0.50000000  0.25000000  0.28735713
   0.50000000  0.12500000  0.39367856
   0.25000000  0.25000000  0.39367856
   0.25000000  0.12500000  0.50000000
   0.50000000  0.25000000  0.50000000
   0.49999990  0.12523929  0.60386085
   0.24997092  0.25001030  0.61015186
   0.25003744  0.12509791  0.71969202
   0.50000016  0.24954790  0.70775559
   0.25000000  0.37500000  0.28735713
   0.50000000  0.50000000  0.28735713
   0.50000000  0.37500000  0.39367856
   0.25000000  0.50000000  0.39367856
   0.25000000  0.37500000  0.50000000
   0.50000000  0.50000000  0.50000000
   0.49999992  0.37554746  0.60451691
   0.24991731  0.50000836  0.61008520
   0.24982020  0.37509140  0.71964732
   0.50000002  0.49877004  0.70911357
   0.75000000  0.75000000  0.24570180
   0.75000000  0.75000000  0.32901246
   0.09794669  0.62500000  0.28735713
   0.90205331  0.62500000  0.28735713
   0.00000000  0.75000000  0.35202323
   0.00000000  0.75000000  0.43533390
   0.84794669  0.62500000  0.39367856
   0.15205331  0.62500000  0.39367856
   0.75000000  0.75000000  0.45834467
   0.75000000  0.75000000  0.54165533
   0.09794669  0.62500000  0.50000000
   0.90205331  0.62500000  0.50000000
   0.99999995  0.75006335  0.56515615
   0.00000008  0.75001473  0.64866699
   0.85012651  0.62507742  0.60674973
   0.14987361  0.62507741  0.60674970
   0.75066015  0.75028030  0.67122201
   0.74932095  0.74981282  0.75488014
   0.09379660  0.62505981  0.71851472
   0.90620378  0.62505984  0.71851484
   0.75000000  0.00000000  0.24570180
   0.75000000  0.00000000  0.32901246
   0.09794669  0.87500000  0.28735713
   0.90205331  0.87500000  0.28735713
   0.00000000  0.00000000  0.35202323
   0.00000000  0.00000000  0.43533390
   0.84794669  0.87500000  0.39367856
   0.15205331  0.87500000  0.39367856
   0.75000000  0.00000000  0.45834467
   0.75000000  0.00000000  0.54165533
   0.09794669  0.87500000  0.50000000
   0.90205331  0.87500000  0.50000000
   0.99999995  0.00005888  0.56516346
   0.00000009  0.00000500  0.64868523
   0.85011528  0.87509313  0.60679465
   0.14988485  0.87509314  0.60679462
   0.75025119  0.00007073  0.67131857
   0.75013766  0.00007551  0.75495603
   0.09381542  0.87500919  0.71846841
   0.90618498  0.87500919  0.71846854
   0.75000000  0.25000000  0.24570180
   0.75000000  0.25000000  0.32901246
   0.09794669  0.12500000  0.28735713
   0.90205331  0.12500000  0.28735713
   0.00000000  0.25000000  0.35202323
   0.00000000  0.25000000  0.43533390
   0.84794669  0.12500000  0.39367856
   0.15205331  0.12500000  0.39367856
   0.75000000  0.25000000  0.45834467
   0.75000000  0.25000000  0.54165533
   0.09794669  0.12500000  0.50000000
   0.90205331  0.12500000  0.50000000
   0.99999996  0.24998184  0.56516735
   0.00000009  0.25011578  0.64869286
   0.85011734  0.12499749  0.60683931
   0.14988279  0.12499748  0.60683928
   0.75053820  0.24993004  0.67129624
   0.74993817  0.25020481  0.75492833
   0.09377100  0.12510647  0.71843715
   0.90622941  0.12510647  0.71843730
   0.75000000  0.50000000  0.24570180
   0.75000000  0.50000000  0.32901246
   0.09794669  0.37500000  0.28735713
   0.90205331  0.37500000  0.28735713
   0.00000000  0.50000000  0.35202323
   0.00000000  0.50000000  0.43533390
   0.84794669  0.37500000  0.39367856
   0.15205331  0.37500000  0.39367856
   0.75000000  0.50000000  0.45834467
   0.75000000  0.50000000  0.54165533
   0.09794669  0.37500000  0.50000000
   0.90205331  0.37500000  0.50000000
   0.99999995  0.50002075  0.56515792
   0.00000007  0.50005668  0.64866119
   0.85012572  0.37497348  0.60676903
   0.14987440  0.37497349  0.60676900
   0.75089542  0.50001288  0.67123610
   0.74844476  0.50043537  0.75484319
   0.09380959  0.37520687  0.71854789
   0.90619076  0.37520685  0.71854801
   0.25000000  0.75000000  0.24570180
   0.25000000  0.75000000  0.32901246
   0.59794669  0.62500000  0.28735713
   0.40205331  0.62500000  0.28735713
   0.50000000  0.75000000  0.35202323
   0.50000000  0.75000000  0.43533390
   0.34794669  0.62500000  0.39367856
   0.65205331  0.62500000  0.39367856
   0.25000000  0.75000000  0.45834467
   0.25000000  0.75000000  0.54165533
   0.59794669  0.62500000  0.50000000
   0.40205331  0.62500000  0.50000000
   0.49999995  0.74949817  0.56515827
   0.50000012  0.75066482  0.64844376
   0.34990363  0.62500957  0.60698051
   0.65009651  0.62500957  0.60698047
   0.24934005  0.75028032  0.67122202
   0.25067900  0.74981279  0.75488014
   0.59414988  0.62602427  0.71746657
   0.40585043  0.62602427  0.71746664
   0.25000000  0.00000000  0.24570180
   0.25000000  0.00000000  0.32901246
   0.59794669  0.87500000  0.28735713
   0.40205331  0.87500000  0.28735713
   0.50000000  0.00000000  0.35202323
   0.50000000  0.00000000  0.43533390
   0.34794669  0.87500000  0.39367856
   0.65205331  0.87500000  0.39367856
   0.25000000  0.00000000  0.45834467
   0.25000000  0.00000000  0.54165533
   0.59794669  0.87500000  0.50000000
   0.40205331  0.87500000  0.50000000
   0.49999995  0.00000280  0.56498653
   0.50000008  0.00013811  0.64838492
   0.34993927  0.87506016  0.60677889
   0.65006087  0.87506018  0.60677885
   0.24974910  0.00007072  0.67131856
   0.24986226  0.00007550  0.75495603
   0.59402670  0.87558213  0.71800875
   0.40597368  0.87558211  0.71800890
   0.25000000  0.25000000  0.24570180
   0.25000000  0.25000000  0.32901246
   0.59794669  0.12500000  0.28735713
   0.40205331  0.12500000  0.28735713
   0.50000000  0.25000000  0.35202323
   0.50000000  0.25000000  0.43533390
   0.34794669  0.12500000  0.39367856
   0.65205331  0.12500000  0.39367856
   0.25000000  0.25000000  0.45834467
   0.25000000  0.25000000  0.54165533
   0.59794669  0.12500000  0.50000000
   0.40205331  0.12500000  0.50000000
   0.49999995  0.25050178  0.56512625
   0.50000011  0.24941150  0.64841914
   0.34993488  0.12502202  0.60678289
   0.65006528  0.12502201  0.60678286
   0.24946201  0.24993004  0.67129622
   0.25006172  0.25020478  0.75492832
   0.59396258  0.12487580  0.71822200
   0.40603783  0.12487581  0.71822214
   0.25000000  0.50000000  0.24570180
   0.25000000  0.50000000  0.32901246
   0.59794669  0.37500000  0.28735713
   0.40205331  0.37500000  0.28735713
   0.50000000  0.50000000  0.35202323
   0.50000000  0.50000000  0.43533390
   0.34794669  0.37500000  0.39367856
   0.65205331  0.37500000  0.39367856
   0.25000000  0.50000000  0.45834467
   0.25000000  0.50000000  0.54165533
   0.59794669  0.37500000  0.50000000
   0.40205331  0.37500000  0.50000000
   0.49999995  0.50006898  0.56530076
   0.50000010  0.49988021  0.64905977
   0.34990724  0.37503834  0.60696667
   0.65009291  0.37503832  0.60696663
   0.24910477  0.50001288  0.67123609
   0.25155519  0.50043535  0.75484320
   0.59424981  0.37393984  0.71748426
   0.40575046  0.37393977  0.71748435

 position of ions in cartesian coordinates  (Angst):
   6.49088347  7.20294713 24.37192001
   6.49088260  8.35002781 24.56878494
   6.49088379  6.05177692 24.14055465
   9.73632409  7.39369907  8.77152097
   0.00000000  8.87243888  8.77152097
   0.00000000  7.39369907 12.01696233
   9.73632409  8.87243888 12.01696233
   9.73632409  7.39369907 15.26240370
   0.00000000  8.87243888 15.26240370
  12.98176405  7.39424599 18.44106542
   9.73683211  8.87317810 18.62162682
   9.73895626  7.39682426 21.95696674
   0.00000146  8.87437606 21.61292702
   9.73632409 10.35117869  8.77152097
   0.00000000  0.00000000  8.77152097
   0.00000000 10.35117869 12.01696233
   9.73632409  0.00000000 12.01696233
   9.73632409 10.35117869 15.26240370
   0.00000000  0.00000000 15.26240370
  12.98176388 10.35188864 18.44172347
   9.73609688  0.00051867 18.62505543
   9.73509358 10.35316536 21.96901405
   0.00000205  0.00067505 21.61373494
   9.73632409  1.47873981  8.77152097
   0.00000000  2.95747963  8.77152097
   0.00000000  1.47873981 12.01696233
   9.73632409  2.95747963 12.01696233
   9.73632409  1.47873981 15.26240370
   0.00000000  2.95747963 15.26240370
  12.98176436  1.47893911 18.44242244
   9.73669906  2.95760154 18.62476804
   9.73584156  1.47989814 21.96846013
   0.00000174  2.95770057 21.61382213
   9.73632409  4.43621944  8.77152097
   0.00000000  5.91495925  8.77152097
   0.00000000  4.43621944 12.01696233
   9.73632409  5.91495925 12.01696233
   9.73632409  4.43621944 15.26240370
   0.00000000  5.91495925 15.26240370
  12.98176436  4.43628118 18.44129947
   9.73739455  5.91505839 18.62273363
   9.73865993  4.43730056 21.96709627
   0.00000067  5.91608509 21.61264149
   3.24544136  7.39369907  8.77152097
   6.49088273  8.87243888  8.77152097
   6.49088273  7.39369907 12.01696233
   3.24544136  8.87243888 12.01696233
   3.24544136  7.39369907 15.26240370
   6.49088273  8.87243888 15.26240370
   6.49088117  7.38816932 18.45596301
   3.24492961  8.87317811 18.62162692
   3.24280983  7.39682379 21.95696705
   6.49088445  8.88231986 21.60634058
   3.24544136 10.35117869  8.77152097
   6.49088273  0.00000000  8.77152097
   6.49088273 10.35117869 12.01696233
   3.24544136  0.00000000 12.01696233
   3.24544136 10.35117869 15.26240370
   6.49088273  0.00000000 15.26240370
   6.49088116 10.34820495 18.43335735
   3.24566558  0.00051860 18.62505563
   3.24667503 10.35316455 21.96901460
   6.49088461  0.00139705 21.60307862
   3.24544136  1.47873981  8.77152097
   6.49088273  2.95747963  8.77152097
   6.49088273  1.47873981 12.01696233
   3.24544136  2.95747963 12.01696233
   3.24544136  1.47873981 15.26240370
   6.49088273  2.95747963 15.26240370
   6.49088148  1.48157058 18.43273620
   3.24506380  2.95760150 18.62476797
   3.24592743  1.47989804 21.96846022
   6.49088474  2.95213130 21.60410320
   3.24544136  4.43621944  8.77152097
   6.49088273  5.91495925  8.77152097
   6.49088273  4.43621944 12.01696233
   3.24544136  5.91495925 12.01696233
   3.24544136  4.43621944 15.26240370
   6.49088273  5.91495925 15.26240370
   6.49088168  4.44269583 18.45276213
   3.24436791  5.91505817 18.62273334
   3.24310718  4.43730066 21.96709572
   6.49088301  5.90040894 21.64555524
   9.73632409  8.87243888  7.50000000
   9.73632409  8.87243888 10.04304194
   1.27152097  7.39369907  8.77152097
  11.71024448  7.39369907  8.77152097
   0.00000000  8.87243888 10.74544136
   0.00000000  8.87243888 13.28848330
  11.00784506  7.39369907 12.01696233
   1.97392039  7.39369907 12.01696233
   9.73632409  8.87243888 13.99088273
   9.73632409  8.87243888 16.53392466
   1.27152097  7.39369907 15.26240370
  11.71024448  7.39369907 15.26240370
  12.98176483  8.87318827 17.25128251
   0.00000108  8.87261310 19.80043503
  11.03614290  7.39461491 18.52091863
   1.94562407  7.39461486 18.52091773
   9.74489404  8.87575484 20.48892270
   9.72750877  8.87022453 23.04257081
   1.21764549  7.39440664 21.93252335
  11.76412487  7.39440699 21.93252710
   9.73632409  0.00000000  7.50000000
   9.73632409  0.00000000 10.04304194
   1.27152097 10.35117869  8.77152097
  11.71024448 10.35117869  8.77152097
   0.00000000  0.00000000 10.74544136
   0.00000000  0.00000000 13.28848330
  11.00784506 10.35117869 12.01696233
   1.97392039 10.35117869 12.01696233
   9.73632409  0.00000000 13.99088273
   9.73632409  0.00000000 16.53392466
   1.27152097 10.35117869 15.26240370
  11.71024448 10.35117869 15.26240370
  12.98176479  0.00069655 17.25150578
   0.00000115  0.00005911 19.80099166
  11.03599714 10.35228038 18.52228977
   1.94576992 10.35228053 18.52228895
   9.73958497  0.00083674 20.49187000
   9.73811118  0.00089330 23.04488747
   1.21788977 10.35128741 21.93110983
  11.76388082 10.35128746 21.93111390
   9.73632409  2.95747963  7.50000000
   9.73632409  2.95747963 10.04304194
   1.27152097  1.47873981  8.77152097
  11.71024448  1.47873981  8.77152097
   0.00000000  2.95747963 10.74544136
   0.00000000  2.95747963 13.28848330
  11.00784506  1.47873981 12.01696233
   1.97392039  1.47873981 12.01696233
   9.73632409  2.95747963 13.99088273
   9.73632409  2.95747963 16.53392466
   1.27152097  1.47873981 15.26240370
  11.71024448  1.47873981 15.26240370
  12.98176488  2.95726478 17.25162444
   0.00000122  2.95884928 19.80122459
  11.03602388  1.47871008 18.52365320
   1.94574325  1.47870995 18.52365217
   9.74331089  2.95665204 20.49118834
   9.73552141  2.95990255 23.04404187
   1.21731311  1.47999933 21.93015552
  11.76445768  1.47999935 21.93016023
   9.73632409  5.91495925  7.50000000
   9.73632409  5.91495925 10.04304194
   1.27152097  4.43621944  8.77152097
  11.71024448  4.43621944  8.77152097
   0.00000000  5.91495925 10.74544136
   0.00000000  5.91495925 13.28848330
  11.00784506  4.43621944 12.01696233
   1.97392039  4.43621944 12.01696233
   9.73632409  5.91495925 13.99088273
   9.73632409  5.91495925 16.53392466
   1.27152097  4.43621944 15.26240370
  11.71024448  4.43621944 15.26240370
  12.98176482  5.91520477 17.25133670
   0.00000097  5.91562981 19.80025803
  11.03613270  4.43590570 18.52150784
   1.94563436  4.43590578 18.52150680
   9.74794823  5.91511158 20.48935270
   9.71613430  5.92010969 23.04144307
   1.21781415  4.43866673 21.93353591
  11.76395587  4.43866641 21.93353959
   3.24544136  8.87243888  7.50000000
   3.24544136  8.87243888 10.04304194
   7.76240370  7.39369907  8.77152097
   5.21936176  7.39369907  8.77152097
   6.49088273  8.87243888 10.74544136
   6.49088273  8.87243888 13.28848330
   4.51696233  7.39369907 12.01696233
   8.46480312  7.39369907 12.01696233
   3.24544136  8.87243888 13.99088273
   3.24544136  8.87243888 16.53392466
   7.76240370  7.39369907 15.26240370
   5.21936176  7.39369907 15.26240370
   6.49088207  8.86650225 17.25134719
   6.49088425  8.88030363 19.79362086
   4.54236681  7.39381233 18.52796324
   8.43940037  7.39381230 18.52796199
   3.23687411  8.87575501 20.48892277
   3.25425593  8.87022418 23.04257102
   7.71311441  7.40581614 21.90052880
   5.26865510  7.40581605 21.90053105
   3.24544136  0.00000000  7.50000000
   3.24544136  0.00000000 10.04304194
   7.76240370 10.35117869  8.77152097
   5.21936176 10.35117869  8.77152097
   6.49088273  0.00000000 10.74544136
   6.49088273  0.00000000 13.28848330
   4.51696233 10.35117869 12.01696233
   8.46480312 10.35117869 12.01696233
   3.24544136  0.00000000 13.99088273
   3.24544136  0.00000000 16.53392466
   7.76240370 10.35117869 15.26240370
   5.21936176 10.35117869 15.26240370
   6.49088213  0.00003313 17.24610514
   6.49088375  0.00163386 19.79182467
   4.54282949 10.35189038 18.52180866
   8.43893778 10.35189066 18.52180760
   3.24218424  0.00083665 20.49186985
   3.24365323  0.00089318 23.04488745
   7.71151529 10.35806522 21.91707892
   5.27025515 10.35806506 21.91708344
   3.24544136  2.95747963  7.50000000
   3.24544136  2.95747963 10.04304194
   7.76240370  1.47873981  8.77152097
   5.21936176  1.47873981  8.77152097
   6.49088273  2.95747963 10.74544136
   6.49088273  2.95747963 13.28848330
   4.51696233  1.47873981 12.01696233
   8.46480312  1.47873981 12.01696233
   3.24544136  2.95747963 13.99088273
   3.24544136  2.95747963 16.53392466
   7.76240370  1.47873981 15.26240370
   5.21936176  1.47873981 15.26240370
   6.49088210  2.96341569 17.25036983
   6.49088422  2.95051768 19.79286949
   4.54277248  1.47900030 18.52193091
   8.43899500  1.47900021 18.52193004
   3.23845735  2.95665205 20.49118792
   3.24624262  2.95990219 23.04404163
   7.71068296  1.47727048 21.92358816
   5.27108791  1.47727068 21.92359260
   3.24544136  5.91495925  7.50000000
   3.24544136  5.91495925 10.04304194
   7.76240370  4.43621944  8.77152097
   5.21936176  4.43621944  8.77152097
   6.49088273  5.91495925 10.74544136
   6.49088273  5.91495925 13.28848330
   4.51696233  4.43621944 12.01696233
   8.46480312  4.43621944 12.01696233
   3.24544136  5.91495925 13.99088273
   3.24544136  5.91495925 16.53392466
   7.76240370  4.43621944 15.26240370
[...]
      9.73584      1.47990     21.96846         0.000382     -0.000352     -0.060811
      0.00000      2.95770     21.61382        -0.000055     -0.003689     -0.059371
      9.73632      4.43622      8.77152        -0.000449     -0.000391     -3.500003
      0.00000      5.91496      8.77152        -0.000003     -0.000102      2.725999
      0.00000      4.43622     12.01696         0.000022     -0.000325      0.536649
      9.73632      5.91496     12.01696        -0.001257     -0.000464     -0.729490
      9.73632      4.43622     15.26240        -0.008388     -0.011282      0.629989
      0.00000      5.91496     15.26240         0.000019     -0.002285     -0.700377
     12.98176      4.43628     18.44130         0.000003      0.001649     -0.026053
      9.73739      5.91506     18.62273         0.000797      0.000614      0.047528
      9.73866      4.43730     21.96710         0.009564      0.010780     -0.055197
      0.00000      5.91609     21.61264         0.000016      0.004066     -0.056950
      3.24544      7.39370      8.77152         0.000446     -0.000021     -3.499952
      6.49088      8.87244      8.77152        -0.000004      0.000345      2.727461
      6.49088      7.39370     12.01696        -0.000013      0.003281      0.540148
      3.24544      8.87244     12.01696         0.001467      0.000686     -0.729818
      3.24544      7.39370     15.26240         0.008553     -0.002917      0.620654
      6.49088      8.87244     15.26240        -0.000015     -0.009070     -0.664254
      6.49088      7.38817     18.45596        -0.000025     -0.001342     -0.029500
      3.24493      8.87318     18.62163        -0.001173      0.002424      0.049404
      3.24281      7.39682     21.95697        -0.006526     -0.004309     -0.055873
      6.49088      8.88232     21.60634        -0.000035     -0.004141     -0.098535
      3.24544     10.35118      8.77152         0.000541      0.000465     -3.499903
      6.49088      0.00000      8.77152        -0.000004      0.000103      2.727599
      6.49088     10.35118     12.01696         0.000018      0.002589      0.542667
      3.24544      0.00000     12.01696         0.001823      0.000435     -0.728001
      3.24544     10.35118     15.26240         0.005549      0.015437      0.628568
      6.49088      0.00000     15.26240        -0.000013      0.003087     -0.721768
      6.49088     10.34820     18.43336        -0.000043     -0.002287     -0.023571
      3.24567      0.00052     18.62506        -0.001476     -0.001237      0.045984
      3.24668     10.35316     21.96901        -0.004312     -0.005335     -0.060216
      6.49088      0.00140     21.60308         0.000034     -0.000438     -0.052045
      3.24544      1.47874      8.77152         0.000544     -0.000078     -3.499776
      6.49088      2.95748      8.77152         0.000065     -0.000347      2.727479
      6.49088      1.47874     12.01696        -0.000033     -0.001478      0.543278
      3.24544      2.95748     12.01696         0.001604     -0.000716     -0.727759
      3.24544      1.47874     15.26240         0.005847     -0.001453      0.638110
      6.49088      2.95748     15.26240        -0.000032      0.006826     -0.669605
      6.49088      1.48157     18.43274        -0.000053     -0.002141     -0.026001
      3.24506      2.95760     18.62477        -0.001109     -0.001598      0.045595
      3.24593      1.47990     21.96846        -0.000351     -0.000417     -0.060765
      6.49088      2.95213     21.60410        -0.000024     -0.012062     -0.052864
      3.24544      4.43622      8.77152         0.000457     -0.000452     -3.499812
      6.49088      5.91496      8.77152         0.000013     -0.000122      2.727208
      6.49088      4.43622     12.01696        -0.000016     -0.004467      0.540679
      3.24544      5.91496     12.01696         0.001267     -0.000435     -0.729487
      3.24544      4.43622     15.26240         0.008382     -0.011301      0.629992
      6.49088      5.91496     15.26240        -0.000018     -0.001009     -0.662440
      6.49088      4.44270     18.45276        -0.000007      0.004431     -0.030706
      3.24437      5.91506     18.62273        -0.000743      0.000581      0.047529
      3.24311      4.43730     21.96710        -0.009572      0.010808     -0.055172
      6.49088      5.90041     21.64556        -0.000012      0.001837     -0.152890
      9.73632      8.87244      7.50000         0.000099     -0.000190      1.742790
      9.73632      8.87244     10.04304         0.000229     -0.000191      1.779004
      1.27152      7.39370      8.77152        -1.824566     -0.000038     -0.793573
     11.71024      7.39370      8.77152         1.824518     -0.000041     -0.793588
      0.00000      8.87244     10.74544         0.000021     -0.000140     -1.419342
      0.00000      8.87244     13.28848         0.000004     -0.000178     -0.094380
     11.00785      7.39370     12.01696         0.471063     -0.000028      0.056203
      1.97392      7.39370     12.01696        -0.471067     -0.000017      0.056197
      9.73632      8.87244     13.99088         0.001089     -0.002448     -0.121429
      9.73632      8.87244     16.53392         0.001289     -0.002523      0.090674
      1.27152      7.39370     15.26240        -0.408944      0.000395      0.082514
     11.71024      7.39370     15.26240         0.408990      0.000406      0.082507
     12.98176      8.87319     17.25128         0.000018      0.000648      0.000477
      0.00000      8.87261     19.80044        -0.000003      0.000468      0.105554
     11.03614      7.39461     18.52092         0.026704     -0.000992     -0.006422
      1.94562      7.39461     18.52092        -0.026711     -0.000961     -0.006442
      9.74489      8.87575     20.48892        -0.001227      0.000757     -0.077104
      9.72751      8.87022     23.04257         0.005414      0.000538      0.247014
      1.21765      7.39441     21.93252         0.048078     -0.001487      0.097554
     11.76412      7.39441     21.93253        -0.048092     -0.001493      0.097542
      9.73632      0.00000      7.50000         0.000082     -0.000137      1.742930
      9.73632      0.00000     10.04304         0.000240     -0.000153      1.778455
      1.27152     10.35118      8.77152        -1.824618     -0.000099     -0.793549
     11.71024     10.35118      8.77152         1.824609     -0.000101     -0.793544
      0.00000      0.00000     10.74544         0.000011     -0.000115     -1.419373
      0.00000      0.00000     13.28848         0.000009     -0.000157     -0.094501
     11.00785     10.35118     12.01696         0.471106     -0.000482      0.056139
      1.97392     10.35118     12.01696        -0.471119     -0.000500      0.056153
      9.73632      0.00000     13.99088         0.000859     -0.002846     -0.124745
      9.73632      0.00000     16.53392         0.003406     -0.000483      0.081921
      1.27152     10.35118     15.26240        -0.410479     -0.000942      0.081760
     11.71024     10.35118     15.26240         0.410496     -0.000964      0.081754
     12.98176      0.00070     17.25151         0.000006      0.001633      0.003074
      0.00000      0.00006     19.80099        -0.000001      0.000811      0.107306
     11.03600     10.35228     18.52229         0.027003      0.000611     -0.005880
      1.94577     10.35228     18.52229        -0.026981      0.000590     -0.005875
      9.73958      0.00084     20.49187        -0.000581      0.000734     -0.077981
      9.73811      0.00089     23.04489        -0.001211      0.001199      0.258162
      1.21789     10.35129     21.93111         0.049776      0.000725      0.096260
     11.76388     10.35129     21.93111        -0.049812      0.000739      0.096248
      9.73632      2.95748      7.50000         0.000073      0.000100      1.742832
      9.73632      2.95748     10.04304         0.000240      0.000160      1.778473
      1.27152      1.47874      8.77152        -1.824631     -0.000004     -0.793584
     11.71024      1.47874      8.77152         1.824639      0.000005     -0.793582
      0.00000      2.95748     10.74544         0.000016      0.000138     -1.419314
      0.00000      2.95748     13.28848         0.000021      0.000281     -0.094129
     11.00785      1.47874     12.01696         0.471206      0.000011      0.056046
      1.97392      1.47874     12.01696        -0.471193      0.000030      0.056053
      9.73632      2.95748     13.99088         0.001060      0.002705     -0.125189
      9.73632      2.95748     16.53392         0.002050      0.003871      0.087162
      1.27152      1.47874     15.26240        -0.412766      0.000626      0.080916
     11.71024      1.47874     15.26240         0.412779      0.000617      0.080920
     12.98176      2.95726     17.25162         0.000030     -0.000818      0.001427
      0.00000      2.95885     19.80122         0.000012     -0.000364      0.109338
     11.03602      1.47871     18.52365         0.027658      0.000102     -0.006340
      1.94574      1.47871     18.52365        -0.027659      0.000108     -0.006347
      9.74331      2.95665     20.49119        -0.001214     -0.000503     -0.076357
      9.73552      2.95990     23.04404        -0.002980      0.000576      0.256416
      1.21731      1.48000     21.93016         0.052219      0.001694      0.095990
     11.76446      1.48000     21.93016        -0.052229      0.001672      0.095970
      9.73632      5.91496      7.50000         0.000091      0.000086      1.742727
      9.73632      5.91496     10.04304         0.000207      0.000096      1.778982
      1.27152      4.43622      8.77152        -1.824599      0.000043     -0.793566
     11.71024      4.43622      8.77152         1.824598      0.000083     -0.793565
      0.00000      5.91496     10.74544        -0.000010      0.000094     -1.419260
      0.00000      5.91496     13.28848         0.000018      0.000279     -0.094033
     11.00785      4.43622     12.01696         0.471158      0.000447      0.056090
      1.97392      4.43622     12.01696        -0.471157      0.000418      0.056112
      9.73632      5.91496     13.99088         0.001604      0.002818     -0.122115
      9.73632      5.91496     16.53392        -0.000225      0.002708      0.093604
      1.27152      4.43622     15.26240        -0.411428      0.001372      0.082218
     11.71024      4.43622     15.26240         0.411474      0.001371      0.082214
     12.98176      5.91520     17.25134         0.000022     -0.001017     -0.000803
      0.00000      5.91563     19.80026         0.000005     -0.000931      0.107344
     11.03613      4.43591     18.52151         0.026937      0.000453     -0.006025
      1.94563      4.43591     18.52151        -0.026944      0.000424     -0.006008
      9.74795      5.91511     20.48935        -0.002635     -0.001533     -0.078422
      9.71613      5.92011     23.04144         0.014259     -0.003554      0.241530
      1.21781      4.43867     21.93354         0.050158     -0.000739      0.097124
     11.76396      4.43867     21.93354        -0.050169     -0.000746      0.097099
      3.24544      8.87244      7.50000        -0.000091     -0.000186      1.742769
      3.24544      8.87244     10.04304        -0.000224     -0.000222      1.778990
      7.76240      7.39370      8.77152        -1.824082     -0.000154     -0.793796
      5.21936      7.39370      8.77152         1.824059     -0.000116     -0.793783
      6.49088      8.87244     10.74544        -0.000002     -0.000937     -1.421915
      6.49088      8.87244     13.28848        -0.000008     -0.002021     -0.103273
      4.51696      7.39370     12.01696         0.469097     -0.000161      0.055976
      8.46480      7.39370     12.01696        -0.469095     -0.000169      0.055969
      3.24544      8.87244     13.99088        -0.001078     -0.002447     -0.121432
      3.24544      8.87244     16.53392        -0.001285     -0.002528      0.090691
      7.76240      7.39370     15.26240        -0.402373     -0.008586      0.078049
      5.21936      7.39370     15.26240         0.402336     -0.008587      0.078031
      6.49088      8.86650     17.25135        -0.000013     -0.001372      0.005550
      6.49088      8.88030     19.79362        -0.000011     -0.007049      0.101305
      4.54237      7.39381     18.52796         0.034515      0.000885     -0.005026
      8.43940      7.39381     18.52796        -0.034516      0.000873     -0.004995
      3.23687      8.87576     20.48892         0.001235      0.000781     -0.077103
      3.25426      8.87022     23.04257        -0.005414      0.000534      0.246996
      7.71311      7.40582     21.90053         0.066643      0.002396      0.032163
      5.26866      7.40582     21.90053        -0.066656      0.002402      0.032135
      3.24544      0.00000      7.50000        -0.000069     -0.000196      1.742880
      3.24544      0.00000     10.04304        -0.000261     -0.000128      1.778460
      7.76240     10.35118      8.77152        -1.824103     -0.000177     -0.793774
      5.21936     10.35118      8.77152         1.824082     -0.000188     -0.793782
      6.49088      0.00000     10.74544        -0.000005     -0.000270     -1.422754
      6.49088      0.00000     13.28848        -0.000005     -0.000461     -0.111421
      4.51696     10.35118     12.01696         0.468354     -0.000584      0.055799
      8.46480     10.35118     12.01696        -0.468358     -0.000567      0.055796
      3.24544      0.00000     13.99088        -0.000853     -0.002833     -0.124731
      3.24544      0.00000     16.53392        -0.003397     -0.000463      0.081937
      7.76240     10.35118     15.26240        -0.401485     -0.006476      0.080202
      5.21936     10.35118     15.26240         0.401471     -0.006468      0.080187
      6.49088      0.00003     17.24611        -0.000005      0.001420      0.010832
      6.49088      0.00163     19.79182        -0.000018     -0.000392      0.097311
      4.54283     10.35189     18.52181         0.030534     -0.000943     -0.004499
      8.43894     10.35189     18.52181        -0.030559     -0.000941     -0.004508
      3.24218      0.00084     20.49187         0.000571      0.000726     -0.077988
      3.24365      0.00089     23.04489         0.001210      0.001197      0.258183
      7.71152     10.35807     21.91708         0.052695      0.008337      0.082588
      5.27026     10.35807     21.91708        -0.052717      0.008340      0.082573
      3.24544      2.95748      7.50000        -0.000086      0.000175      1.742759
      3.24544      2.95748     10.04304        -0.000239      0.000165      1.778498
      7.76240      1.47874      8.77152        -1.824103      0.000078     -0.793808
      5.21936      1.47874      8.77152         1.824113      0.000059     -0.793779
      6.49088      2.95748     10.74544         0.000021      0.000901     -1.422199
      6.49088      2.95748     13.28848        -0.000015      0.002080     -0.106174
      4.51696      1.47874     12.01696         0.468307      0.000077      0.055678
      8.46480      1.47874     12.01696        -0.468303      0.000068      0.055670
      3.24544      2.95748     13.99088        -0.001059      0.002712     -0.125184
      3.24544      2.95748     16.53392        -0.002032      0.003875      0.087131
      7.76240      1.47874     15.26240        -0.403074      0.003733      0.078862
      5.21936      1.47874     15.26240         0.403048      0.003753      0.078841
      6.49088      2.96342     17.25037        -0.000003      0.000431      0.007445
      6.49088      2.95052     19.79287        -0.000005      0.003672      0.102223
      4.54277      1.47900     18.52193         0.029945      0.001098     -0.005089
      8.43899      1.47900     18.52193        -0.029941      0.001094     -0.005081
      3.23846      2.95665     20.49119         0.001216     -0.000485     -0.076364
      3.24624      2.95990     23.04404         0.002999      0.000582      0.256378
      7.71068      1.47727     21.92359         0.053680      0.001772      0.096521
      5.27109      1.47727     21.92359        -0.053687      0.001768      0.096521
      3.24544      5.91496      7.50000        -0.000097      0.000107      1.742689
      3.24544      5.91496     10.04304        -0.000209      0.000125      1.778970
      7.76240      4.43622      8.77152        -1.824115      0.000156     -0.793779
      5.21936      4.43622      8.77152         1.824119      0.000177     -0.793772
      6.49088      5.91496     10.74544        -0.000001      0.000215     -1.421104
      6.49088      5.91496     13.28848        -0.000007      0.000519     -0.090229
      4.51696      4.43622     12.01696         0.469048      0.000610      0.055855
      8.46480      4.43622     12.01696        -0.469051      0.000635      0.055840
      3.24544      5.91496     13.99088        -0.001610      0.002811     -0.122103
      3.24544      5.91496     16.53392         0.000227      0.002710      0.093555
      7.76240      4.43622     15.26240        -0.404172      0.012158      0.077854
      5.21936      4.43622     15.26240         0.404119      0.012155      0.077857
      6.49088      5.91578     17.25570        -0.000002     -0.000772     -0.000758
      6.49088      5.91354     19.81242         0.000001      0.002357      0.101109
      4.54241      4.43667     18.52754         0.032834     -0.000858     -0.004516
      8.43935      4.43667     18.52754        -0.032866     -0.000857     -0.004494
      3.23382      5.91511     20.48935         0.002612     -0.001529     -0.078438
      3.26563      5.92011     23.04144        -0.014250     -0.003547      0.241546
      7.71441      4.42368     21.90107         0.053857     -0.003031      0.069954
      5.26736      4.42368     21.90107        -0.053846     -0.003027      0.069919
 -----------------------------------------------------------------------------------
    total drift:                                0.000125      0.003937     -0.075090


--------------------------------------------------------------------------------------------------------



  FREE ENERGIE OF THE ION-ELECTRON SYSTEM (eV)
  ---------------------------------------------------
  free  energy   TOTEN  =     -2177.91098965 eV

  energy  without entropy=    -2177.91098965  energy(sigma->0) =    -2177.91098965



--------------------------------------------------------------------------------------------------------


    POTLOK:  cpu time      0.3263: real time      0.3269


--------------------------------------------------------------------------------------------------------


     LOOP+:  cpu time    908.0178: real time    908.5640
    4ORBIT:  cpu time      0.0000: real time      0.0000

 total amount of memory used by VASP MPI-rank0   177666. kBytes
=======================================================================

   base      :      30000. kBytes
   nonl-proj :      60632. kBytes
   fftplans  :       7947. kBytes
   grid      :      13664. kBytes
   one-center:        248. kBytes
   wavefun   :      65175. kBytes

  
  
 General timing and accounting informations for this job:
 ========================================================
  
                  Total CPU time used (sec):      994.988
                            User time (sec):      983.790
                          System time (sec):       11.198
                         Elapsed time (sec):     1009.283
  
                   Maximum memory used (kb):      537184.
                   Average memory used (kb):          N/A
  
                          Minor page faults:      1065199
                          Major page faults:          705
                 Voluntary context switches:        10593
