 vasp.6.3.0 20Jan22 (build Aug 21 2024 11:13:42) complex                         
 executed on        HPECrayEX_GCC date 2024.08.23  20:28:17
 running  512 mpi-ranks, with    1 threads/rank
 distrk:  each k-point on  512 cores,    1 groups
 distr:  one band on NCORE=   8 cores,   64 groups


--------------------------------------------------------------------------------------------------------


 INCAR:
   SYSTEM = MgO-rocksalt
   ISMEAR = 0
   SIGMA = 0.05
   EDIFF = 1E-6
   ALGO = ALL
   ISTART = 0
   IBRION = -1
   NSW = 0
   ISYM = 0
   DIPOL = 0.5 0.5 0.5
   IDIPOL = 4
   LDIPOL = .TRUE.
   GGA = PE
   IVDW = 1
   VDW_C6 = 1.75 0.14
   VDW_R0 = 1.452 1.001
   ENCUT = 600
   PREC = Accurate
   LASPH = .TRUE.
   LREAL = .FALSE.
   ISPIN = 1
   NELM = 200
   NELMIN = 8
   NCORE = 8
   KPAR = 1
   LWAVE = .FALSE.
   LCHARG = .FALSE.

 POTCAR:    PAW_PBE C 08Apr2002                   
 POTCAR:    PAW_PBE H 15Jun2001                   
 POTCAR:    PAW_PBE C 08Apr2002                   
   SHA256 =  253f7b50bb8d59471dbedb8285d89021f4a42ed1a2c5d38a03a736e69125dd95 C/POTCAR              
   COPYR  = (c) Copyright 08Apr2002 Georg Kresse                                                    
   COPYR  = This file is part of the software VASP. Any use, copying, and all other rights are regul
   COPYR  = If you do not have a valid VASP license, you may not use, copy or distribute this file. 
   VRHFIN =C: s2p2                                                                                  
   LEXCH  = PE                                                                                      
   EATOM  =   147.1560 eV,   10.8157 Ry                                                             
                                                                                                    
   TITEL  = PAW_PBE C 08Apr2002                                                                     
   LULTRA =        F    use ultrasoft PP ?                                                          
   IUNSCR =        1    unscreen: 0-lin 1-nonlin 2-no                                               
   RPACOR =    1.200    partial core radius                                                         
   POMASS =   12.011; ZVAL   =    4.000    mass and valenz                                          
   RCORE  =    1.500    outmost cutoff radius                                                       
   RWIGS  =    1.630; RWIGS  =    0.863    wigner-seitz radius (au A)                               
   ENMAX  =  400.000; ENMIN  =  300.000 eV                                                          
   ICORE  =        2    local potential                                                             
   LCOR   =        T    correct aug charges                                                         
   LPAW   =        T    paw PP                                                                      
   EAUG   =  644.873                                                                                
   DEXC   =    0.000                                                                                
   RMAX   =    1.529    core radius for proj-oper                                                   
   RAUG   =    1.300    factor for augmentation sphere                                              
   RDEP   =    1.501    radius for radial grids                                                     
   RDEPT  =    1.300    core radius for aug-charge                                                  
                                                                                                    
   Atomic configuration                                                                             
    4 entries                                                                                       
     n  l   j            E        occ.                                                              
     1  0  0.50      -273.3789   2.0000                                                             
     2  0  0.50       -13.7508   2.0000                                                             
     2  1  0.50        -5.2854   2.0000                                                             
     3  2  1.50        -5.4423   0.0000                                                             
   Description                                                                                      
     l       E           TYP  RCUT    TYP  RCUT                                                     
     0    -13.7508458     23  1.200                                                                 
     0     -8.2022199     23  1.200                                                                 
     1     -5.2854383     23  1.500                                                                 
     1     34.0145650     23  1.500                                                                 
     2     -5.4423304      7  1.500                                                                 
  local pseudopotential read in
  partial core-charges read in
  partial kinetic energy density read in
  atomic valenz-charges read in
  non local Contribution for L=           0  read in
    real space projection operators read in
  non local Contribution for L=           0  read in
    real space projection operators read in
  non local Contribution for L=           1  read in
    real space projection operators read in
  non local Contribution for L=           1  read in
    real space projection operators read in
    PAW grid and wavefunctions read in

   number of l-projection  operators is LMAX  =           4
   number of lm-projection operators is LMMAX =           8

 POTCAR:    PAW_PBE H 15Jun2001                   
   SHA256 =  030f79b5d3ab3cf0e668861823c8fb652ff669f3e15e46930bd03bfd63a607b6 H/POTCAR              
   COPYR  = (c) Copyright 15Jun2001 Georg Kresse                                                    
   COPYR  = This file is part of the software VASP. Any use, copying, and all other rights are regul
   COPYR  = If you do not have a valid VASP license, you may not use, copy or distribute this file. 
   VRHFIN =H: ultrasoft test                                                                        
   LEXCH  = PE                                                                                      
   EATOM  =    12.4884 eV,    0.9179 Ry                                                             
                                                                                                    
   TITEL  = PAW_PBE H 15Jun2001                                                                     
   LULTRA =        F    use ultrasoft PP ?                                                          
   IUNSCR =        0    unscreen: 0-lin 1-nonlin 2-no                                               
   RPACOR =    0.000    partial core radius                                                         
   POMASS =    1.000; ZVAL   =    1.000    mass and valenz                                          
   RCORE  =    1.100    outmost cutoff radius                                                       
   RWIGS  =    0.700; RWIGS  =    0.370    wigner-seitz radius (au A)                               
   ENMAX  =  250.000; ENMIN  =  200.000 eV                                                          
   RCLOC  =    0.701    cutoff for local pot                                                        
   LCOR   =        T    correct aug charges                                                         
   LPAW   =        T    paw PP                                                                      
   EAUG   =  400.000                                                                                
   RMAX   =    1.123    core radius for proj-oper                                                   
   RAUG   =    1.200    factor for augmentation sphere                                              
   RDEP   =    1.112    radius for radial grids                                                     
   RDEPT  =    0.926    core radius for aug-charge                                                  
                                                                                                    
   Atomic configuration                                                                             
    2 entries                                                                                       
     n  l   j            E        occ.                                                              
     1  0  0.50        -6.4927   1.0000                                                             
     2  1  0.50        -3.4015   0.0000                                                             
   Description                                                                                      
     l       E           TYP  RCUT    TYP  RCUT                                                     
     0     -6.4927494     23  1.100                                                                 
     0      6.8029130     23  1.100                                                                 
     1     -4.0817478     23  1.100                                                                 
  local pseudopotential read in
  atomic valenz-charges read in
  non local Contribution for L=           0  read in
    real space projection operators read in
  non local Contribution for L=           0  read in
    real space projection operators read in
  non local Contribution for L=           1  read in
    real space projection operators read in
    PAW grid and wavefunctions read in

   number of l-projection  operators is LMAX  =           3
   number of lm-projection operators is LMMAX =           5

  PAW_PBE C 08Apr2002                   :
 energy of atom  1       EATOM= -147.1560
 kinetic energy error for atom=    0.0057 (will be added to EATOM!!)
  PAW_PBE H 15Jun2001                   :
 energy of atom  2       EATOM=  -12.4884
 kinetic energy error for atom=    0.0004 (will be added to EATOM!!)


 POSCAR:  C  H
  positions in direct lattice
  No initial velocities read in
 exchange correlation table for  LEXCH =        8
   RHO(1)=    0.500       N(1)  =     2000
   RHO(2)=  100.500       N(2)  =     4000



--------------------------------------------------------------------------------------------------------


 ion  position               nearest neighbor table
   1  0.500  0.500  0.500-   3 1.09   2 1.09   5 1.09   4 1.09
   2  0.447  0.500  0.538-   1 1.09
   3  0.553  0.500  0.538-   1 1.09
   4  0.500  0.554  0.462-   1 1.09
   5  0.500  0.446  0.462-   1 1.09


IMPORTANT INFORMATION: All symmetrisations will be switched off!
NOSYMM: (Re-)initialisation of all symmetry stuff for point group C_1.


----------------------------------------------------------------------------------------

                                     Primitive cell                                     

  volume of cell :    4579.9659

  direct lattice vectors                    reciprocal lattice vectors
    16.784355081  0.000000000  0.000000000     0.059579292  0.000000000  0.000000000
     0.000000000 16.797669831  0.000000000     0.000000000  0.059532067  0.000000000
     0.000000000  0.000000000 16.244582064     0.000000000  0.000000000  0.061558986

  length of vectors
    16.784355081 16.797669831 16.244582064     0.059579292  0.059532067  0.061558986

  position of ions in fractional coordinates (direct lattice)
     0.500000136  0.499999867  0.499865666
     0.446844693  0.499999959  0.538307605
     0.553155307  0.499999955  0.538307539
     0.500000037  0.553509500  0.461692395
     0.500000034  0.446490500  0.461692447

  ion indices of the primitive-cell ions
   primitive index   ion index
                 1           1
                 2           2
                 3           3
                 4           4
                 5           5

----------------------------------------------------------------------------------------



 KPOINTS: pymatgen v2020.8.13 with grid density = 

Automatic generation of k-mesh.
 Grid dimensions read from file:
 generate k-points for:    1    1    1

 Generating k-lattice:

  Cartesian coordinates                     Fractional coordinates (reciprocal lattice)
     0.059579292  0.000000000  0.000000000     1.000000000  0.000000000  0.000000000
     0.000000000  0.059532067  0.000000000     0.000000000  1.000000000  0.000000000
     0.000000000  0.000000000  0.061558986     0.000000000  0.000000000  1.000000000

  Length of vectors
     0.059579292  0.059532067  0.061558986

  Shift w.r.t. Gamma in fractional coordinates (k-lattice)
     0.000000000  0.000000000  0.000000000

 
 Subroutine IBZKPT returns following result:
 ===========================================
 
 Found      1 irreducible k-points:
 
 Following reciprocal coordinates:
            Coordinates               Weight
  0.000000  0.000000  0.000000      1.000000
 
 Following cartesian coordinates:
            Coordinates               Weight
  0.000000  0.000000  0.000000      1.000000
 


--------------------------------------------------------------------------------------------------------




 Dimension of arrays:
   k-points           NKPTS =      1   k-points in BZ     NKDIM =      1   number of bands    NBANDS=     64
   number of dos      NEDOS =    301   number of ions     NIONS =      5
   non local maximal  LDIM  =      4   non local SUM 2l+1 LMDIM =      8
   total plane-waves  NPLWV = ******
   max r-space proj   IRMAX =      1   max aug-charges    IRDMAX=   7269
   dimension x,y,z NGX =   140 NGY =  140 NGZ =  140
   dimension x,y,z NGXF=   280 NGYF=  280 NGZF=  280
   support grid    NGXF=   280 NGYF=  280 NGZF=  280
   ions per type =               1   4
   NGX,Y,Z   is equivalent  to a cutoff of  13.87, 13.86, 14.33 a.u.
   NGXF,Y,Z  is equivalent  to a cutoff of  27.73, 27.71, 28.66 a.u.

 SYSTEM =  MgO-rocksalt                            
 POSCAR =   C  H                                   

--------------------------------------------------------------------------------------------------------


  energy-cutoff  :      600.00
  volume of cell :     4579.97
      direct lattice vectors                 reciprocal lattice vectors
    16.784355081  0.000000000  0.000000000     0.059579292  0.000000000  0.000000000
     0.000000000 16.797669831  0.000000000     0.000000000  0.059532067  0.000000000
     0.000000000  0.000000000 16.244582064     0.000000000  0.000000000  0.061558986

  length of vectors
    16.784355081 16.797669831 16.244582064     0.059579292  0.059532067  0.061558986



 k-points in units of 2pi/SCALE and weight: pymatgen v2020.8.13 with grid density = 
   0.00000000  0.00000000  0.00000000       1.000

 k-points in reciprocal lattice and weights: pymatgen v2020.8.13 with grid density = 
   0.00000000  0.00000000  0.00000000       1.000

 position of ions in fractional coordinates (direct lattice) 
   0.50000014  0.49999987  0.49986567
   0.44684469  0.49999996  0.53830760
   0.55315531  0.49999995  0.53830754
   0.50000004  0.55350950  0.46169240
   0.50000003  0.44649050  0.46169245

 position of ions in cartesian coordinates  (Angst):
   8.39217982  8.39883269  8.12010883
   7.50000000  8.39883423  8.74458206
   9.28435508  8.39883416  8.74458100
   8.39217817  9.29766983  7.50000000
   8.39217811  7.50000000  7.50000085



--------------------------------------------------------------------------------------------------------

--------------------------------------- Iteration      FINAL  ---------------------------------------


--------------------OUTCAR has been truncated-------------------------


--------------------OUTCAR has been truncated-------------------------


--------------------OUTCAR has been truncated-------------------------


--------------------OUTCAR has been truncated-------------------------


--------------------OUTCAR has been truncated-------------------------


--------------------OUTCAR has been truncated-------------------------


--------------------OUTCAR has been truncated-------------------------


--------------------OUTCAR has been truncated-------------------------


--------------------OUTCAR has been truncated-------------------------


--------------------OUTCAR has been truncated-------------------------


  DFT-D2 method for vdW energy calculation
  -------------------------------------------------------------------

  Parameters of vdW forcefield:
         C6(Jnm^6/mol)     R0(A)
   -----------------------------
   C        1.750          1.452
   H        0.140          1.001

  vdW correction parametrized for the method pbe       

  IVDW =   1
  VDW_RADIUS =    50.000 A
  VDW_S6 =     0.750
  VDW_SR =     1.000
  VDW_D =    20.000
  LVDW_EWALD = F

  Number of pair interactions contributing to vdW energy:    1658
  Edisp (eV):   -0.02040
    FORVDW:  cpu time      0.0019: real time      0.0020

  FORCE on cell =-STRESS in cart. coord.  units (eV):
  Direction    XX          YY          ZZ          XY          YZ          ZX
  --------------------------------------------------------------------------------------
  Alpha Z     0.05289     0.05289     0.05289
  Ewald      60.27090    60.74956    60.32722    -0.00000     0.00021     0.00022
  Hartree   111.32690   111.50687   113.20830    -0.00000     0.00000     0.00000
  E(xc)     -27.29357   -27.28898   -27.30624    -0.00000     0.00000     0.00000
  Local    -229.80634  -230.44228  -232.21936     0.00000    -0.00013    -0.00014
  n-local   -15.97658   -15.95202   -15.96826     0.00000    -0.00001    -0.00001
  augment     0.12453     0.12489     0.12802     0.00000    -0.00000    -0.00000
  Kinetic   101.53596   101.28230   102.13612     0.00000    -0.00001    -0.00001
  Fock        0.00000     0.00000     0.00000     0.00000     0.00000     0.00000
  vdW         0.06785     0.07059     0.06491    -0.00000    -0.00000    -0.00000
  -------------------------------------------------------------------------------------
  Total       0.30256     0.10383     0.42362     0.00000     0.00006     0.00007
  in kB       0.10584     0.03632     0.14819     0.00000     0.00002     0.00002
  external pressure =        0.10 kB  Pullay stress =        0.00 kB


 VOLUME and BASIS-vectors are now :
 -----------------------------------------------------------------------------
  energy-cutoff  :      600.00
  volume of cell :     4579.97
      direct lattice vectors                 reciprocal lattice vectors
    16.784355081  0.000000000  0.000000000     0.059579292  0.000000000  0.000000000
     0.000000000 16.797669831  0.000000000     0.000000000  0.059532067  0.000000000
     0.000000000  0.000000000 16.244582064     0.000000000  0.000000000  0.061558986

  length of vectors
    16.784355081 16.797669831 16.244582064     0.059579292  0.059532067  0.061558986


 FORCES acting on ions:
    Electron-Ion                     Ewald-Force                    Non-Local-Force
 -----------------------------------------------------------------------------------------------
   0.712E-04 -.722E-04 0.749E+00   -.124E-03 0.122E-03 -.840E+00   -.742E-04 0.696E-04 0.333E-01
   0.440E+02 -.655E-04 -.308E+02   -.488E+02 0.703E-04 0.342E+02   0.461E+01 -.953E-05 -.321E+01
   -.440E+02 -.620E-04 -.308E+02   0.488E+02 0.666E-04 0.342E+02   -.461E+01 -.914E-05 -.321E+01
   0.699E-04 -.441E+02 0.305E+02   -.749E-04 0.487E+02 -.338E+02   0.101E-04 -.460E+01 0.315E+01
   0.729E-04 0.441E+02 0.305E+02   -.782E-04 -.487E+02 -.338E+02   0.104E-04 0.460E+01 0.315E+01
 -----------------------------------------------------------------------------------------------
   0.103E-03 -.973E-04 0.925E-01   -.145E-14 0.000E+00 0.711E-14   -.103E-03 0.974E-04 -.926E-01


 POSITION                                       TOTAL-FORCE (eV/Angst)
 -----------------------------------------------------------------------------------
      8.39218      8.39883      8.12011        -0.000127      0.000119     -0.056852
      7.50000      8.39883      8.74458        -0.195939     -0.000005      0.203142
      9.28436      8.39883      8.74458         0.196056     -0.000005      0.203216
      8.39218      9.29767      7.50000         0.000005      0.083930     -0.174718
      8.39218      7.50000      7.50000         0.000005     -0.084040     -0.174788
 -----------------------------------------------------------------------------------
    total drift:                               -0.000000      0.000000     -0.000025


--------------------------------------------------------------------------------------------------------



  FREE ENERGIE OF THE ION-ELECTRON SYSTEM (eV)
  ---------------------------------------------------
  free  energy   TOTEN  =       -24.06458160 eV

  energy  without entropy=      -24.06458160  energy(sigma->0) =      -24.06458160



--------------------------------------------------------------------------------------------------------


    POTLOK:  cpu time      0.1607: real time      0.1611


--------------------------------------------------------------------------------------------------------


     LOOP+:  cpu time     20.3625: real time     20.4240
    4ORBIT:  cpu time      0.0000: real time      0.0000

 total amount of memory used by VASP MPI-rank0    66413. kBytes
=======================================================================

   base      :      30000. kBytes
   nonl-proj :       3980. kBytes
   fftplans  :      12944. kBytes
   grid      :      18565. kBytes
   one-center:          3. kBytes
   wavefun   :        921. kBytes

  
  
 General timing and accounting informations for this job:
 ========================================================
  
                  Total CPU time used (sec):       50.698
                            User time (sec):       49.444
                          System time (sec):        1.255
                         Elapsed time (sec):       63.879
  
                   Maximum memory used (kb):      215280.
                   Average memory used (kb):          N/A
  
                          Minor page faults:        29061
                          Major page faults:         1135
                 Voluntary context switches:        10832
