 vasp.6.3.0 20Jan22 (build Aug 21 2024 11:13:42) complex                         
 executed on        HPECrayEX_GCC date 2024.11.28  02:38:54
 running  512 mpi-ranks, with    1 threads/rank
 distrk:  each k-point on  512 cores,    1 groups
 distr:  one band on NCORE=  16 cores,   32 groups


--------------------------------------------------------------------------------------------------------


 INCAR:
   SYSTEM = TiO2
   ISMEAR = 0
   SIGMA = 0.05
   EDIFF = 1E-4
   ALGO = Normal
   IBRION = -1
   NSW = 0
   ISYM = 0
   ISIF = 2
   EDIFFG = -0.01
   DIPOL = 0.5 0.5 0.5
   IDIPOL = 3
   LDIPOL = .TRUE.
   LHFCALC = .TRUE.
   HFSCREEN = 0.2
   GGA = PE
   IVDW = 13
   VDW_S8 = 1.19528249
   VDW_A1 = 0.38663183
   VDW_A2 = 5.19133469
   ENCUT = 520
   PREC = Normal
   PRECFOCK = Fast
   LASPH = .TRUE.
   LREAL = .FALSE.
   ISPIN = 1
   NKREDX = 2
   NKREDY = 2
   NELM = 200
   NELMIN = 8
   NCORE = 16
   KPAR = 1
   LWAVE = .FALSE.
   LCHARG = .FALSE.

 POTCAR:    PAW_PBE Ti 08Apr2002                  
 POTCAR:    PAW_PBE O 08Apr2002                   
 POTCAR:    PAW_PBE Ti 08Apr2002                  
   SHA256 =  f8e8f1d080d9e9b45e792f1068744b07aba8441d1e7ce11486a5d4c0f5a1479e Ti/POTCAR             
   COPYR  = (c) Copyright 08Apr2002 Georg Kresse                                                    
   COPYR  = This file is part of the software VASP. Any use, copying, and all other rights are regul
   COPYR  = If you do not have a valid VASP license, you may not use, copy or distribute this file. 
   VRHFIN =Ti: d3 s1                                                                                
   LEXCH  = PE                                                                                      
   EATOM  =    94.7928 eV,    6.9671 Ry                                                             
                                                                                                    
   TITEL  = PAW_PBE Ti 08Apr2002                                                                    
   LULTRA =        F    use ultrasoft PP ?                                                          
   IUNSCR =        1    unscreen: 0-lin 1-nonlin 2-no                                               
   RPACOR =    2.200    partial core radius                                                         
   POMASS =   47.880; ZVAL   =    4.000    mass and valenz                                          
   RCORE  =    2.800    outmost cutoff radius                                                       
   RWIGS  =    2.500; RWIGS  =    1.323    wigner-seitz radius (au A)                               
   ENMAX  =  178.330; ENMIN  =  133.747 eV                                                          
   RCLOC  =    2.215    cutoff for local pot                                                        
   LCOR   =        T    correct aug charges                                                         
   LPAW   =        T    paw PP                                                                      
   EAUG   =  328.883                                                                                
   DEXC   =    0.000                                                                                
   RMAX   =    2.868    core radius for proj-oper                                                   
   RAUG   =    1.300    factor for augmentation sphere                                              
   RDEP   =    2.885    radius for radial grids                                                     
   RDEPT  =    2.320    core radius for aug-charge                                                  
                                                                                                    
   Atomic configuration                                                                             
    9 entries                                                                                       
     n  l   j            E        occ.                                                              
     1  0  0.50     -4865.3608   2.0000                                                             
     2  0  0.50      -533.1367   2.0000                                                             
     2  1  1.50      -440.5031   6.0000                                                             
     3  0  0.50       -59.3186   2.0000                                                             
     3  1  1.50       -35.7012   6.0000                                                             
     3  2  2.50        -1.9157   3.0000                                                             
     4  0  0.50        -3.7291   1.0000                                                             
     4  1  1.50        -4.0817   0.0000                                                             
     4  3  2.50        -1.3606   0.0000                                                             
   Description                                                                                      
     l       E           TYP  RCUT    TYP  RCUT                                                     
     2     -1.9156924     23  2.800                                                                 
     2     -0.4062961     23  2.800                                                                 
     0     -3.7290832     23  2.800                                                                 
     0     20.4087390     23  2.800                                                                 
     1     -5.4423304     23  2.800                                                                 
  local pseudopotential read in
  partial core-charges read in
  partial kinetic energy density read in
  atomic valenz-charges read in
  non local Contribution for L=           2  read in
    real space projection operators read in
  non local Contribution for L=           2  read in
    real space projection operators read in
  non local Contribution for L=           0  read in
    real space projection operators read in
  non local Contribution for L=           0  read in
    real space projection operators read in
  non local Contribution for L=           1  read in
    real space projection operators read in
    PAW grid and wavefunctions read in

   number of l-projection  operators is LMAX  =           5
   number of lm-projection operators is LMMAX =          15

 POTCAR:    PAW_PBE O 08Apr2002                   
   SHA256 =  818f92134a0a090dccd8ba1447fa70422a3b330e708bb4f08108d8ae51209ddf O/POTCAR              
   COPYR  = (c) Copyright 08Apr2002 Georg Kresse                                                    
   COPYR  = This file is part of the software VASP. Any use, copying, and all other rights are regul
   COPYR  = If you do not have a valid VASP license, you may not use, copy or distribute this file. 
   VRHFIN =O: s2p4                                                                                  
   LEXCH  = PE                                                                                      
   EATOM  =   432.3788 eV,   31.7789 Ry                                                             
                                                                                                    
   TITEL  = PAW_PBE O 08Apr2002                                                                     
   LULTRA =        F    use ultrasoft PP ?                                                          
   IUNSCR =        1    unscreen: 0-lin 1-nonlin 2-no                                               
   RPACOR =    1.200    partial core radius                                                         
   POMASS =   16.000; ZVAL   =    6.000    mass and valenz                                          
   RCORE  =    1.520    outmost cutoff radius                                                       
   RWIGS  =    1.550; RWIGS  =    0.820    wigner-seitz radius (au A)                               
   ENMAX  =  400.000; ENMIN  =  300.000 eV                                                          
   ICORE  =        2    local potential                                                             
   LCOR   =        T    correct aug charges                                                         
   LPAW   =        T    paw PP                                                                      
   EAUG   =  605.392                                                                                
   DEXC   =    0.000                                                                                
   RMAX   =    1.553    core radius for proj-oper                                                   
   RAUG   =    1.300    factor for augmentation sphere                                              
   RDEP   =    1.550    radius for radial grids                                                     
   RDEPT  =    1.329    core radius for aug-charge                                                  
                                                                                                    
   Atomic configuration                                                                             
    4 entries                                                                                       
     n  l   j            E        occ.                                                              
     1  0  0.50      -514.6923   2.0000                                                             
     2  0  0.50       -23.9615   2.0000                                                             
     2  1  0.50        -9.0305   4.0000                                                             
     3  2  1.50        -9.5241   0.0000                                                             
   Description                                                                                      
     l       E           TYP  RCUT    TYP  RCUT                                                     
     0    -23.9615318     23  1.200                                                                 
     0     -9.5240782     23  1.200                                                                 
     1     -9.0304911     23  1.520                                                                 
     1      8.1634956     23  1.520                                                                 
     2     -9.5240782      7  1.500                                                                 
  local pseudopotential read in
  partial core-charges read in
  partial kinetic energy density read in
  kinetic energy density of atom read in
  atomic valenz-charges read in
  non local Contribution for L=           0  read in
    real space projection operators read in
  non local Contribution for L=           0  read in
    real space projection operators read in
  non local Contribution for L=           1  read in
    real space projection operators read in
  non local Contribution for L=           1  read in
    real space projection operators read in
    PAW grid and wavefunctions read in

   number of l-projection  operators is LMAX  =           4
   number of lm-projection operators is LMMAX =           8

 -----------------------------------------------------------------------------
|                                                                             |
|               ----> ADVICE to this user running VASP <----                  |
|                                                                             |
|     You have a (more or less) 'large supercell' and for larger cells it     |
|     might be more efficient to use real-space projection operators.         |
|     Therefore, try LREAL= Auto in the INCAR file.                           |
|     Mind: For very accurate calculation, you might also keep the            |
|     reciprocal projection scheme (i.e. LREAL=.FALSE.).                      |
|                                                                             |
 -----------------------------------------------------------------------------

  PAW_PBE Ti 08Apr2002                  :
 energy of atom  1       EATOM=  -94.7928
 kinetic energy error for atom=    0.0002 (will be added to EATOM!!)
  PAW_PBE O 08Apr2002                   :
 energy of atom  2       EATOM= -432.3788
 kinetic energy error for atom=    0.0208 (will be added to EATOM!!)


 POSCAR: Ti  O
  positions in direct lattice
  No initial velocities read in
 WARNING: Using user supplied parameters
     VDW_S8 = 1.195
     VDW_A1 = 0.387
     VDW_A2 = 5.191
     because the xc functional is not supported. Required parameters not
     defined in the INCAR file will be replaced with PBE defaults ones.

 exchange correlation table for  LEXCH =        8
   RHO(1)=    0.500       N(1)  =     2000
   RHO(2)=  100.500       N(2)  =     4000



--------------------------------------------------------------------------------------------------------


 ion  position               nearest neighbor table
   1  0.750  0.625  0.287-  81 1.95 141 1.95  82 1.95 142 1.95 163 1.98  84 1.98  11 2.96  31 2.96

   2  0.000  0.750  0.287-  84 1.95 104 1.95 103 1.95  83 1.95  85 1.98  32 2.96  12 2.96
   3  0.000  0.625  0.394-  85 1.95 145 1.95  86 1.95 146 1.95  87 1.98  88 1.98  13 2.96  33 2.96

   4  0.750  0.750  0.394- 168 1.95 188 1.95  87 1.95 107 1.95  89 1.98  82 1.98  14 2.96  34 2.96

   5  0.750  0.625  0.500-  89 1.95  90 1.95 149 1.95 150 1.95  92 1.98 171 1.98  15 2.96  35 2.96

   6  0.000  0.750  0.500-  91 1.95  92 1.95 111 1.95 112 1.95  86 1.98  93 2.00  16 2.96  36 2.96

   7  0.007  0.625  0.604-  96 1.87  93 1.90 153 1.90  94 2.02 154 2.02  95 2.03  17 2.96  37 2.96

   8  0.756  0.750  0.610-  97 1.87  95 1.93 115 1.93 176 2.01 196 2.02  90 2.09  18 2.96  38 2.96

   9  0.751  0.626  0.719-  98 1.83 158 1.87 179 2.00 100 2.02  97 2.08 157 2.09  19 2.95  39 2.99

  10  0.000  0.750  0.708-  94 1.81 119 1.94 120 1.94  99 1.95 100 1.96  20 2.95  40 2.96
  11  0.750  0.875  0.287-  81 1.95 101 1.95  82 1.95 102 1.95 183 1.98 104 1.98   1 2.96  21 2.96

  12  0.000  0.000  0.287- 104 1.95 124 1.95 123 1.95 103 1.95 105 1.98  22 2.96   2 2.96
  13  0.000  0.875  0.394-  85 1.95 105 1.95  86 1.95 106 1.95 107 1.98 108 1.98   3 2.96  23 2.96

  14  0.750  0.000  0.394- 188 1.95 208 1.95 107 1.95 127 1.95 109 1.98 102 1.98   4 2.96  24 2.96

  15  0.750  0.875  0.500-  89 1.95  90 1.95 109 1.95 110 1.95 112 1.98 191 1.98   5 2.96  25 2.96

  16  0.000  0.000  0.500- 111 1.95 112 1.95 131 1.95 132 1.95 106 1.98 113 2.00   6 2.96  26 2.96

  17  0.007  0.875  0.604- 116 1.87  93 1.90 113 1.90 114 2.02  94 2.02 115 2.04  27 2.96   7 2.96

  18  0.756  0.000  0.611- 117 1.87 115 1.92 135 1.93 216 2.01 196 2.02 110 2.10  28 2.96   8 2.96

  19  0.750  0.875  0.720- 118 1.84  98 1.84 199 2.02 120 2.04  97 2.09 117 2.09   9 2.95  29 2.95

  20  0.000  1.000  0.708- 114 1.81 120 1.95 140 1.95 139 1.95 119 1.95  10 2.95  30 2.95
  21  0.750  0.125  0.287- 101 1.95 121 1.95 102 1.95 122 1.95 203 1.98 124 1.98  11 2.96  31 2.96

  22  0.000  0.250  0.287- 124 1.95 144 1.95 143 1.95 123 1.95 125 1.98  32 2.96  12 2.96
  23  0.000  0.125  0.394- 105 1.95 125 1.95 106 1.95 126 1.95 127 1.98 128 1.98  13 2.96  33 2.96

  24  0.750  0.250  0.394- 208 1.95 228 1.95 127 1.95 147 1.95 129 1.98 122 1.98  14 2.96  34 2.96

  25  0.750  0.125  0.500- 109 1.95 110 1.95 129 1.95 130 1.95 132 1.98 211 1.98  15 2.96  35 2.96

  26  0.000  0.250  0.500- 131 1.95 132 1.95 151 1.95 152 1.95 126 1.98 133 2.00  16 2.96  36 2.96

  27  0.007  0.125  0.604- 136 1.86 133 1.90 113 1.90 114 2.02 134 2.02 135 2.04  17 2.96  37 2.96

  28  0.756  0.250  0.610- 137 1.87 155 1.93 135 1.93 216 2.01 236 2.01 130 2.09  18 2.96  38 2.96

  29  0.750  0.124  0.720- 118 1.83 138 1.84 219 2.02 140 2.04 117 2.09 137 2.10  39 2.95  19 2.95

  30  0.000  0.250  0.708- 134 1.81 139 1.94 140 1.94 159 1.95 160 1.96  20 2.95  40 2.96
  31  0.750  0.375  0.287- 121 1.95 141 1.95 122 1.95 142 1.95 223 1.98 144 1.98   1 2.96  21 2.96

  32  0.000  0.500  0.287-  84 1.95 144 1.95 143 1.95  83 1.95 145 1.98  22 2.96   2 2.96
  33  0.000  0.375  0.394- 125 1.95 145 1.95 126 1.95 146 1.95 147 1.98 148 1.98   3 2.96  23 2.96

  34  0.750  0.500  0.394- 168 1.95 228 1.95  87 1.95 147 1.95 142 1.98 149 1.98   4 2.96  24 2.96

  35  0.750  0.375  0.500- 129 1.95 130 1.95 149 1.95 150 1.95 152 1.98 231 1.98   5 2.96  25 2.96

  36  0.000  0.500  0.500-  91 1.95  92 1.95 151 1.95 152 1.95 146 1.98 153 2.00   6 2.96  26 2.96

  37  0.007  0.375  0.604- 156 1.87 153 1.90 133 1.90 134 2.02 154 2.02 155 2.03  27 2.96   7 2.96

  38  0.756  0.500  0.610- 157 1.86 155 1.93  95 1.93 236 2.02 176 2.02 150 2.10   8 2.96  28 2.96

  39  0.752  0.373  0.719- 138 1.83 158 1.87 160 2.01 239 2.02 137 2.06 157 2.10  29 2.95   9 2.99

  40  0.001  0.500  0.708- 154 1.81 159 1.94  99 1.94 100 1.95 160 1.95  10 2.96  30 2.96
  41  0.250  0.625  0.287- 161 1.95 221 1.95 162 1.95 222 1.95  83 1.98 164 1.98  51 2.96  71 2.96

  42  0.500  0.750  0.287- 164 1.95 184 1.95 183 1.95 163 1.95 165 1.98  72 2.96  52 2.96
  43  0.500  0.625  0.394- 165 1.95 225 1.95 166 1.95 226 1.95 167 1.98 168 1.98  53 2.96  73 2.96

  44  0.250  0.750  0.394-  88 1.95 108 1.95 167 1.95 187 1.95 169 1.98 162 1.98  54 2.96  74 2.96

  45  0.250  0.625  0.500- 169 1.95 170 1.95 229 1.95 230 1.95  91 1.98 172 1.98  55 2.96  75 2.96

  46  0.500  0.750  0.500- 171 1.95 172 1.95 191 1.95 192 1.95 166 1.98 173 1.99  56 2.96  76 2.96

  47  0.507  0.623  0.605- 176 1.87 233 1.90 173 1.93 234 1.98 174 2.01 175 2.04  77 2.90  57 2.97

  48  0.256  0.750  0.610- 177 1.87 175 1.92 195 1.92  96 2.02 116 2.02 170 2.10  78 2.96  58 2.96

  49  0.251  0.625  0.720- 178 1.83 238 1.84  99 2.03 180 2.05 177 2.09 237 2.09  59 2.96  79 2.96

  50  0.501  0.750  0.707- 174 1.80 179 1.91 180 1.94 199 1.95 200 1.96  60 2.96  80 2.97
  51  0.250  0.875  0.287- 161 1.95 181 1.95 162 1.95 182 1.95 103 1.98 184 1.98  41 2.96  61 2.96

  52  0.500  0.000  0.287- 184 1.95 204 1.95 203 1.95 183 1.95 185 1.98  62 2.96  42 2.96
  53  0.500  0.875  0.394- 165 1.95 185 1.95 166 1.95 186 1.95 187 1.98 188 1.98  43 2.96  63 2.96

  54  0.250  0.000  0.394- 108 1.95 128 1.95 187 1.95 207 1.95 189 1.98 182 1.98  44 2.96  64 2.96

  55  0.250  0.875  0.500- 169 1.95 170 1.95 189 1.95 190 1.95 111 1.98 192 1.98  45 2.96  65 2.96

  56  0.500  0.000  0.500- 191 1.95 192 1.95 211 1.95 212 1.95 186 1.98 193 1.98  46 2.96  66 2.96

  57  0.507  0.874  0.603- 196 1.87 173 1.88 193 1.90 174 2.00 194 2.03 195 2.04  47 2.97  67 2.98

  58  0.256  0.000  0.611- 197 1.86 195 1.92 215 1.92 136 2.02 116 2.02 190 2.11  48 2.96  68 2.96

  59  0.251  0.875  0.720- 198 1.83 178 1.84 200 2.02 119 2.04 197 2.10 177 2.10  49 2.96  69 2.96

  60  0.500  1.000  0.707- 194 1.80 200 1.94 220 1.94 219 1.96 199 1.96  70 2.95  50 2.96
  61  0.250  0.125  0.287- 181 1.95 201 1.95 182 1.95 202 1.95 123 1.98 204 1.98  51 2.96  71 2.96

  62  0.500  0.250  0.287- 204 1.95 224 1.95 223 1.95 203 1.95 205 1.98  72 2.96  52 2.96
  63  0.500  0.125  0.394- 185 1.95 205 1.95 186 1.95 206 1.95 207 1.98 208 1.98  53 2.96  73 2.96

  64  0.250  0.250  0.394- 128 1.95 148 1.95 207 1.95 227 1.95 209 1.98 202 1.98  54 2.96  74 2.96

  65  0.250  0.125  0.500- 189 1.95 190 1.95 209 1.95 210 1.95 131 1.98 212 1.98  55 2.96  75 2.96

  66  0.500  0.250  0.500- 211 1.95 212 1.95 231 1.95 232 1.95 206 1.98 213 1.99  56 2.96  76 2.96

  67  0.507  0.126  0.603- 216 1.88 213 1.88 193 1.90 214 2.00 194 2.03 215 2.04  77 2.97  57 2.98

  68  0.256  0.250  0.611- 217 1.86 235 1.92 215 1.92 156 2.02 136 2.02 210 2.11  78 2.96  58 2.96

  69  0.251  0.125  0.720- 198 1.83 218 1.84 220 2.02 139 2.04 217 2.10 197 2.10  59 2.96  79 2.96

  70  0.501  0.250  0.707- 214 1.80 239 1.92 240 1.94 219 1.95 220 1.96  60 2.95  80 2.96
  71  0.250  0.375  0.287- 201 1.95 221 1.95 202 1.95 222 1.95 143 1.98 224 1.98  41 2.96  61 2.96

  72  0.500  0.500  0.287- 164 1.95 224 1.95 223 1.95 163 1.95 225 1.98  62 2.96  42 2.96
  73  0.500  0.375  0.394- 205 1.95 225 1.95 206 1.95 226 1.95 227 1.98 228 1.98  43 2.96  63 2.96

  74  0.250  0.500  0.394-  88 1.95 148 1.95 167 1.95 227 1.95 222 1.98 229 1.98  44 2.96  64 2.96

  75  0.250  0.375  0.500- 209 1.95 210 1.95 229 1.95 230 1.95 151 1.98 232 1.98  45 2.96  65 2.96

  76  0.500  0.500  0.500- 171 1.95 172 1.95 231 1.95 232 1.95 226 1.98 233 2.00  46 2.96  66 2.96

  77  0.507  0.377  0.606- 236 1.87 233 1.90 213 1.93 234 1.98 214 2.01 235 2.04  47 2.90  67 2.97

  78  0.256  0.500  0.611- 237 1.86 175 1.92 235 1.92 156 2.02  96 2.02 230 2.11  48 2.96  68 2.96

  79  0.251  0.375  0.720- 218 1.83 238 1.84 159 2.03 240 2.03 217 2.10 237 2.10  69 2.96  49 2.96

  80  0.501  0.499  0.712- 234 1.91 240 1.93 180 1.94 239 1.96 179 1.99  70 2.96  50 2.97
  81  0.750  0.750  0.245-   1 1.95  11 1.95
  82  0.750  0.750  0.329-   1 1.95  11 1.95   4 1.98
  83  0.098  0.625  0.287-   2 1.95  32 1.95  41 1.98
  84  0.902  0.625  0.287-   2 1.95  32 1.95   1 1.98
  85  0.000  0.750  0.352-   3 1.95  13 1.95   2 1.98
  86  0.000  0.750  0.435-   3 1.95  13 1.95   6 1.98
  87  0.848  0.625  0.394-   4 1.95  34 1.95   3 1.98
  88  0.152  0.625  0.394-  44 1.95  74 1.95   3 1.98
  89  0.750  0.750  0.458-   5 1.95  15 1.95   4 1.98
  90  0.750  0.750  0.542-   5 1.95  15 1.95   8 2.09
  91  0.098  0.625  0.500-   6 1.95  36 1.95  45 1.98
  92  0.902  0.625  0.500-   6 1.95  36 1.95   5 1.98
  93  0.001  0.750  0.565-  17 1.90   7 1.90   6 2.00
  94  0.000  0.750  0.649-  10 1.81   7 2.02  17 2.02
  95  0.851  0.625  0.607-   8 1.93  38 1.93   7 2.03
  96  0.151  0.625  0.607-   7 1.87  78 2.02  48 2.02
  97  0.754  0.751  0.671-   8 1.87   9 2.08  19 2.09
  98  0.749  0.749  0.756-   9 1.83  19 1.84
  99  0.095  0.625  0.719-  40 1.94  10 1.95  49 2.03
 100  0.906  0.624  0.720-  40 1.95  10 1.96   9 2.02
 101  0.750  0.000  0.245-  11 1.95  21 1.95
 102  0.750  0.000  0.329-  11 1.95  21 1.95  14 1.98
 103  0.098  0.875  0.287-   2 1.95  12 1.95  51 1.98
 104  0.902  0.875  0.287-   2 1.95  12 1.95  11 1.98
 105  0.000  0.000  0.352-  13 1.95  23 1.95  12 1.98
 106  0.000  0.000  0.435-  13 1.95  23 1.95  16 1.98
 107  0.848  0.875  0.394-   4 1.95  14 1.95  13 1.98
 108  0.152  0.875  0.394-  44 1.95  54 1.95  13 1.98
 109  0.750  0.000  0.458-  15 1.95  25 1.95  14 1.98
 110  0.750  0.000  0.542-  15 1.95  25 1.95  18 2.10
 111  0.098  0.875  0.500-   6 1.95  16 1.95  55 1.98
 112  0.902  0.875  0.500-   6 1.95  16 1.95  15 1.98
 113  0.001  0.000  0.565-  27 1.90  17 1.90  16 2.00
 114  0.000  1.000  0.649-  20 1.81  17 2.02  27 2.02
 115  0.851  0.876  0.607-  18 1.92   8 1.93  17 2.04
 116  0.151  0.875  0.607-  17 1.87  48 2.02  58 2.02
 117  0.751  0.000  0.672-  18 1.87  29 2.09  19 2.09
 118  0.750  1.000  0.756-  29 1.83  19 1.84
 119  0.095  0.875  0.719-  10 1.94  20 1.95  59 2.04
 120  0.906  0.875  0.719-  10 1.94  20 1.95  19 2.04
 121  0.750  0.250  0.245-  21 1.95  31 1.95
 122  0.750  0.250  0.329-  21 1.95  31 1.95  24 1.98
 123  0.098  0.125  0.287-  12 1.95  22 1.95  61 1.98
 124  0.902  0.125  0.287-  12 1.95  22 1.95  21 1.98
 125  0.000  0.250  0.352-  23 1.95  33 1.95  22 1.98
 126  0.000  0.250  0.435-  23 1.95  33 1.95  26 1.98
 127  0.848  0.125  0.394-  14 1.95  24 1.95  23 1.98
 128  0.152  0.125  0.394-  54 1.95  64 1.95  23 1.98
 129  0.750  0.250  0.458-  25 1.95  35 1.95  24 1.98
 130  0.750  0.250  0.542-  25 1.95  35 1.95  28 2.09
 131  0.098  0.125  0.500-  16 1.95  26 1.95  65 1.98
 132  0.902  0.125  0.500-  16 1.95  26 1.95  25 1.98
 133  0.001  0.250  0.565-  27 1.90  37 1.90  26 2.00
 134  0.000  0.250  0.649-  30 1.81  37 2.02  27 2.02
 135  0.851  0.125  0.607-  18 1.93  28 1.93  27 2.04
 136  0.151  0.125  0.607-  27 1.86  58 2.02  68 2.02
 137  0.753  0.250  0.671-  28 1.87  39 2.06  29 2.10
 138  0.749  0.251  0.755-  39 1.83  29 1.84
 139  0.094  0.125  0.719-  30 1.94  20 1.95  69 2.04
 140  0.906  0.125  0.719-  30 1.94  20 1.95  29 2.04
 141  0.750  0.500  0.245-   1 1.95  31 1.95
 142  0.750  0.500  0.329-   1 1.95  31 1.95  34 1.98
 143  0.098  0.375  0.287-  22 1.95  32 1.95  71 1.98
 144  0.902  0.375  0.287-  22 1.95  32 1.95  31 1.98
 145  0.000  0.500  0.352-   3 1.95  33 1.95  32 1.98
 146  0.000  0.500  0.435-   3 1.95  33 1.95  36 1.98
 147  0.848  0.375  0.394-  24 1.95  34 1.95  33 1.98
 148  0.152  0.375  0.394-  64 1.95  74 1.95  33 1.98
 149  0.750  0.500  0.458-   5 1.95  35 1.95  34 1.98
 150  0.750  0.500  0.542-   5 1.95  35 1.95  38 2.10
 151  0.098  0.375  0.500-  26 1.95  36 1.95  75 1.98
 152  0.902  0.375  0.500-  26 1.95  36 1.95  35 1.98
 153  0.001  0.500  0.565-  37 1.90   7 1.90  36 2.00
 154  0.000  0.500  0.649-  40 1.81   7 2.02  37 2.02
 155  0.851  0.375  0.607-  28 1.93  38 1.93  37 2.03
 156  0.151  0.375  0.607-  37 1.87  78 2.02  68 2.02
 157  0.756  0.500  0.671-  38 1.86   9 2.09  39 2.10
 158  0.740  0.500  0.756-   9 1.87  39 1.87
 159  0.095  0.375  0.719-  40 1.94  30 1.95  79 2.03
 160  0.906  0.376  0.720-  40 1.95  30 1.96  39 2.01
 161  0.250  0.750  0.245-  41 1.95  51 1.95
 162  0.250  0.750  0.329-  41 1.95  51 1.95  44 1.98
 163  0.598  0.625  0.287-  42 1.95  72 1.95   1 1.98
 164  0.402  0.625  0.287-  42 1.95  72 1.95  41 1.98
 165  0.500  0.750  0.352-  43 1.95  53 1.95  42 1.98
 166  0.500  0.750  0.435-  43 1.95  53 1.95  46 1.98
 167  0.348  0.625  0.394-  44 1.95  74 1.95  43 1.98
 168  0.652  0.625  0.394-   4 1.95  34 1.95  43 1.98
 169  0.250  0.750  0.458-  45 1.95  55 1.95  44 1.98
 170  0.250  0.750  0.542-  45 1.95  55 1.95  48 2.10
 171  0.598  0.625  0.500-  46 1.95  76 1.95   5 1.98
 172  0.402  0.625  0.500-  46 1.95  76 1.95  45 1.98
 173  0.501  0.749  0.565-  57 1.88  47 1.93  46 1.99
 174  0.498  0.752  0.648-  50 1.80  57 2.00  47 2.01
 175  0.350  0.625  0.607-  48 1.92  78 1.92  47 2.04
 176  0.651  0.625  0.608-  47 1.87   8 2.01  38 2.02
 177  0.252  0.750  0.672-  48 1.87  49 2.09  59 2.10
 178  0.251  0.750  0.756-  49 1.83  59 1.84
 179  0.597  0.630  0.714-  50 1.91  80 1.99   9 2.00
 180  0.408  0.626  0.719-  80 1.94  50 1.94  49 2.05
 181  0.250  0.000  0.245-  51 1.95  61 1.95
 182  0.250  0.000  0.329-  51 1.95  61 1.95  54 1.98
 183  0.598  0.875  0.287-  42 1.95  52 1.95  11 1.98
 184  0.402  0.875  0.287-  42 1.95  52 1.95  51 1.98
 185  0.500  0.000  0.352-  53 1.95  63 1.95  52 1.98
 186  0.500  0.000  0.435-  53 1.95  63 1.95  56 1.98
 187  0.348  0.875  0.394-  44 1.95  54 1.95  53 1.98
 188  0.652  0.875  0.394-   4 1.95  14 1.95  53 1.98
 189  0.250  0.000  0.458-  55 1.95  65 1.95  54 1.98
 190  0.250  0.000  0.542-  55 1.95  65 1.95  58 2.11
 191  0.598  0.875  0.500-  46 1.95  56 1.95  15 1.98
 192  0.402  0.875  0.500-  46 1.95  56 1.95  55 1.98
 193  0.501  0.000  0.565-  57 1.90  67 1.90  56 1.98
 194  0.500  1.000  0.648-  60 1.80  57 2.03  67 2.03
 195  0.350  0.875  0.607-  58 1.92  48 1.92  57 2.04
 196  0.651  0.875  0.607-  57 1.87   8 2.02  18 2.02
 197  0.251  1.000  0.672-  58 1.86  59 2.10  69 2.10
 198  0.250  0.000  0.756-  59 1.83  69 1.83
 199  0.595  0.875  0.718-  50 1.95  60 1.96  19 2.02
 200  0.406  0.876  0.718-  60 1.94  50 1.96  59 2.02
 201  0.250  0.250  0.245-  61 1.95  71 1.95
 202  0.250  0.250  0.329-  61 1.95  71 1.95  64 1.98
 203  0.598  0.125  0.287-  52 1.95  62 1.95  21 1.98
 204  0.402  0.125  0.287-  52 1.95  62 1.95  61 1.98
 205  0.500  0.250  0.352-  63 1.95  73 1.95  62 1.98
 206  0.500  0.250  0.435-  63 1.95  73 1.95  66 1.98
 207  0.348  0.125  0.394-  54 1.95  64 1.95  63 1.98
 208  0.652  0.125  0.394-  14 1.95  24 1.95  63 1.98
 209  0.250  0.250  0.458-  65 1.95  75 1.95  64 1.98
 210  0.250  0.250  0.542-  65 1.95  75 1.95  68 2.11
 211  0.598  0.125  0.500-  56 1.95  66 1.95  25 1.98
 212  0.402  0.125  0.500-  56 1.95  66 1.95  65 1.98
 213  0.501  0.251  0.565-  67 1.88  77 1.93  66 1.99
 214  0.499  0.248  0.648-  70 1.80  67 2.00  77 2.01
 215  0.350  0.125  0.607-  58 1.92  68 1.92  67 2.04
 216  0.651  0.125  0.607-  67 1.88  28 2.01  18 2.01
 217  0.251  0.250  0.672-  68 1.86  79 2.10  69 2.10
 218  0.251  0.250  0.756-  79 1.83  69 1.84
 219  0.595  0.125  0.718-  70 1.95  60 1.96  29 2.02
 220  0.406  0.124  0.718-  60 1.94  70 1.96  69 2.02
 221  0.250  0.500  0.245-  41 1.95  71 1.95
 222  0.250  0.500  0.329-  41 1.95  71 1.95  74 1.98
 223  0.598  0.375  0.287-  62 1.95  72 1.95  31 1.98
 224  0.402  0.375  0.287-  62 1.95  72 1.95  71 1.98
 225  0.500  0.500  0.352-  43 1.95  73 1.95  72 1.98
 226  0.500  0.500  0.435-  43 1.95  73 1.95  76 1.98
 227  0.348  0.375  0.394-  64 1.95  74 1.95  73 1.98
 228  0.652  0.375  0.394-  24 1.95  34 1.95  73 1.98
 229  0.250  0.500  0.458-  45 1.95  75 1.95  74 1.98
 230  0.250  0.500  0.542-  45 1.95  75 1.95  78 2.11
 231  0.598  0.375  0.500-  66 1.95  76 1.95  35 1.98
 232  0.402  0.375  0.500-  66 1.95  76 1.95  75 1.98
 233  0.501  0.500  0.566-  47 1.90  77 1.90  76 2.00
 234  0.500  0.500  0.650-  80 1.91  47 1.98  77 1.98
 235  0.350  0.375  0.607-  68 1.92  78 1.92  77 2.04
 236  0.651  0.375  0.608-  77 1.87  28 2.01  38 2.02
 237  0.250  0.500  0.672-  78 1.86  49 2.09  79 2.10
 238  0.252  0.500  0.756-  79 1.84  49 1.84
 239  0.597  0.371  0.714-  70 1.92  80 1.96  39 2.02
 240  0.407  0.374  0.718-  80 1.93  70 1.94  79 2.03


IMPORTANT INFORMATION: All symmetrisations will be switched off!
NOSYMM: (Re-)initialisation of all symmetry stuff for point group C_1.


----------------------------------------------------------------------------------------

                                     Primitive cell                                     

  volume of cell :    4700.2642

  direct lattice vectors                    reciprocal lattice vectors
    13.003962940  0.000000000  0.000000000     0.076899635  0.000000000  0.000000000
     0.000000000 11.830322230  0.000000000     0.000000000  0.084528551  0.000000000
     0.000000000  0.000000000 30.552726600     0.000000000  0.000000000  0.032730303

  length of vectors
    13.003962940 11.830322230 30.552726600     0.076899635  0.084528551  0.032730303

  position of ions in fractional coordinates (direct lattice)
     0.750000000  0.625000000  0.287188176
     0.000000000  0.750000000  0.287188176
     0.000000000  0.625000000  0.393594088
     0.750000000  0.750000000  0.393594088
     0.750000000  0.625000000  0.500000000
     0.000000000  0.750000000  0.500000000
     0.007165231  0.625060772  0.604040859
     0.756333670  0.750121339  0.610208775
     0.750930298  0.625768250  0.719100628
     0.000168615  0.750324118  0.708174463
     0.750000000  0.875000000  0.287188176
     0.000000000  0.000000000  0.287188176
     0.000000000  0.875000000  0.393594088
     0.750000000  0.000000000  0.393594088
     0.750000000  0.875000000  0.500000000
     0.000000000  0.000000000  0.500000000
     0.007360963  0.875038380  0.604107829
     0.755924618  0.000030496  0.610519433
     0.749846863  0.874911743  0.720165492
     0.000485975  0.999934327  0.708143591
     0.750000000  0.125000000  0.287188176
     0.000000000  0.250000000  0.287188176
     0.000000000  0.125000000  0.393594088
     0.750000000  0.250000000  0.393594088
     0.750000000  0.125000000  0.500000000
     0.000000000  0.250000000  0.500000000
     0.007484604  0.124967508  0.604103343
     0.756255206  0.249865040  0.610146915
     0.749807439  0.124186989  0.720169955
     0.000403934  0.249602608  0.708167166
     0.750000000  0.375000000  0.287188176
     0.000000000  0.500000000  0.287188176
     0.000000000  0.375000000  0.393594088
     0.750000000  0.500000000  0.393594088
     0.750000000  0.375000000  0.500000000
     0.000000000  0.500000000  0.500000000
     0.007193764  0.374991859  0.604032947
     0.756494178  0.499997612  0.610366772
     0.751623630  0.373198997  0.719132256
     0.001000375  0.500095441  0.708107094
     0.250000000  0.625000000  0.287188176
     0.500000000  0.750000000  0.287188176
     0.500000000  0.625000000  0.393594088
     0.250000000  0.750000000  0.393594088
     0.250000000  0.625000000  0.500000000
     0.500000000  0.750000000  0.500000000
     0.507378090  0.622672616  0.605370498
     0.256337598  0.749966696  0.610465432
     0.250513805  0.625267790  0.720057081
     0.500947288  0.750095336  0.706874742
     0.250000000  0.875000000  0.287188176
     0.500000000  0.000000000  0.287188176
     0.500000000  0.875000000  0.393594088
     0.250000000  0.000000000  0.393594088
     0.250000000  0.875000000  0.500000000
     0.500000000  0.000000000  0.500000000
     0.507285533  0.874020949  0.603020885
     0.256221130  0.000006580  0.610574329
     0.251254855  0.875106466  0.720254320
     0.499704678  0.999934146  0.707106924
     0.250000000  0.125000000  0.287188176
     0.500000000  0.250000000  0.287188176
     0.500000000  0.125000000  0.393594088
     0.250000000  0.250000000  0.393594088
     0.250000000  0.125000000  0.500000000
     0.500000000  0.250000000  0.500000000
     0.507230575  0.126138828  0.603124513
     0.256272105  0.250110785  0.610559235
     0.251074082  0.124977060  0.720223082
     0.500864011  0.249690783  0.707239733
     0.250000000  0.375000000  0.287188176
     0.500000000  0.500000000  0.287188176
     0.500000000  0.375000000  0.393594088
     0.250000000  0.500000000  0.393594088
     0.250000000  0.375000000  0.500000000
     0.500000000  0.500000000  0.500000000
     0.507346769  0.377352656  0.605540938
     0.255890961  0.500050120  0.610606060
     0.250512332  0.374958300  0.720193565
     0.500919965  0.499409035  0.712037756
     0.750000000  0.750000000  0.245477273
     0.750000000  0.750000000  0.328899080
     0.097999497  0.625000000  0.287188176
     0.902000503  0.625000000  0.287188176
     0.000000000  0.750000000  0.351883185
     0.000000000  0.750000000  0.435304992
     0.847999497  0.625000000  0.393594088
     0.152000503  0.625000000  0.393594088
     0.750000000  0.750000000  0.458289097
     0.750000000  0.750000000  0.541710903
     0.097999497  0.625000000  0.500000000
     0.902000503  0.625000000  0.500000000
     0.000773775  0.750138917  0.565324883
     0.000010847  0.749845219  0.649064981
     0.851035874  0.625283713  0.606546701
     0.150626612  0.625197680  0.607044377
     0.754119429  0.750877798  0.671406569
     0.748700675  0.748886827  0.755555044
     0.094782561  0.625087328  0.718778836
     0.906450937  0.624259872  0.719690552
     0.750000000  0.000000000  0.245477273
     0.750000000  0.000000000  0.328899080
     0.097999497  0.875000000  0.287188176
     0.902000503  0.875000000  0.287188176
     0.000000000  0.000000000  0.351883185
     0.000000000  0.000000000  0.435304992
     0.847999497  0.875000000  0.393594088
     0.152000503  0.875000000  0.393594088
     0.750000000  0.000000000  0.458289097
     0.750000000  0.000000000  0.541710903
     0.097999497  0.875000000  0.500000000
     0.902000503  0.875000000  0.500000000
     0.000824724  0.000016597  0.565342444
     0.000406876  0.999993198  0.649036886
     0.850819245  0.875505349  0.606846140
     0.150630374  0.874870071  0.607122440
     0.751152608  0.000028826  0.671702615
     0.750337004  0.999753773  0.755865711
     0.094590580  0.874525023  0.718543993
     0.906466016  0.875009998  0.719173074
     0.750000000  0.250000000  0.245477273
     0.750000000  0.250000000  0.328899080
     0.097999497  0.125000000  0.287188176
     0.902000503  0.125000000  0.287188176
     0.000000000  0.250000000  0.351883185
     0.000000000  0.250000000  0.435304992
     0.847999497  0.125000000  0.393594088
     0.152000503  0.125000000  0.393594088
     0.750000000  0.250000000  0.458289097
     0.750000000  0.250000000  0.541710903
     0.097999497  0.125000000  0.500000000
     0.902000503  0.125000000  0.500000000
     0.000752135  0.249885914  0.565331318
     0.000204861  0.250180570  0.649073114
     0.850779039  0.124725653  0.606940370
     0.150617610  0.125032825  0.607045896
     0.753319725  0.249739472  0.671432581
     0.749469617  0.250601715  0.755490967
     0.094476575  0.125296970  0.718665216
     0.906421456  0.124956983  0.718976793
     0.750000000  0.500000000  0.245477273
     0.750000000  0.500000000  0.328899080
     0.097999497  0.375000000  0.287188176
     0.902000503  0.375000000  0.287188176
     0.000000000  0.500000000  0.351883185
     0.000000000  0.500000000  0.435304992
     0.847999497  0.375000000  0.393594088
     0.152000503  0.375000000  0.393594088
     0.750000000  0.500000000  0.458289097
     0.750000000  0.500000000  0.541710903
     0.097999497  0.375000000  0.500000000
     0.902000503  0.375000000  0.500000000
     0.000852250  0.500020335  0.565304010
     0.000248850  0.500037396  0.649007155
     0.851018348  0.374709186  0.606576172
     0.150628300  0.374974644  0.607019031
     0.755662531  0.500061759  0.671269465
     0.739771334  0.499802732  0.755605092
     0.094706721  0.375078943  0.718779799
     0.906490998  0.375683620  0.719672728
     0.250000000  0.750000000  0.245477273
     0.250000000  0.750000000  0.328899080
     0.597999497  0.625000000  0.287188176
     0.402000503  0.625000000  0.287188176
     0.500000000  0.750000000  0.351883185
     0.500000000  0.750000000  0.435304992
     0.347999497  0.625000000  0.393594088
     0.652000503  0.625000000  0.393594088
     0.250000000  0.750000000  0.458289097
     0.250000000  0.750000000  0.541710903
     0.597999497  0.625000000  0.500000000
     0.402000503  0.625000000  0.500000000
     0.500962568  0.748727825  0.565135269
     0.498252248  0.751601336  0.647985020
     0.350209744  0.624922424  0.606965290
     0.651444608  0.625294914  0.607559515
     0.251502087  0.749748187  0.671572167
     0.251128345  0.749812390  0.755817120
     0.597385902  0.629792180  0.713543116
     0.407763308  0.625610647  0.719224289
     0.250000000  0.000000000  0.245477273
     0.250000000  0.000000000  0.328899080
     0.597999497  0.875000000  0.287188176
     0.402000503  0.875000000  0.287188176
     0.500000000  0.000000000  0.351883185
     0.500000000  0.000000000  0.435304992
     0.347999497  0.875000000  0.393594088
     0.652000503  0.875000000  0.393594088
     0.250000000  0.000000000  0.458289097
     0.250000000  0.000000000  0.541710903
     0.597999497  0.875000000  0.500000000
     0.402000503  0.875000000  0.500000000
     0.500548466  0.000148402  0.564851985
     0.500477781  0.999949453  0.648246571
     0.350320775  0.875232761  0.606677051
     0.651106423  0.874865607  0.606949395
     0.250611392  0.999951388  0.671524146
     0.249958722  0.000003593  0.755785401
     0.594742983  0.874884745  0.718100810
     0.406295891  0.875955612  0.718451329
     0.250000000  0.250000000  0.245477273
     0.250000000  0.250000000  0.328899080
     0.597999497  0.125000000  0.287188176
     0.402000503  0.125000000  0.287188176
     0.500000000  0.250000000  0.351883185
     0.500000000  0.250000000  0.435304992
     0.347999497  0.125000000  0.393594088
     0.652000503  0.125000000  0.393594088
     0.250000000  0.250000000  0.458289097
     0.250000000  0.250000000  0.541710903
     0.597999497  0.125000000  0.500000000
     0.402000503  0.125000000  0.500000000
     0.500877884  0.251402245  0.565241839
     0.499276184  0.248408624  0.648277799
     0.350401394  0.124911601  0.606821010
     0.651155500  0.125161046  0.606910431
     0.250540711  0.249956375  0.671524978
     0.250911096  0.250190817  0.755736594
     0.594789332  0.124736122  0.718140302
     0.406209484  0.124270658  0.718318087
     0.250000000  0.500000000  0.245477273
     0.250000000  0.500000000  0.328899080
     0.597999497  0.375000000  0.287188176
     0.402000503  0.375000000  0.287188176
     0.500000000  0.500000000  0.351883185
     0.500000000  0.500000000  0.435304992
     0.347999497  0.375000000  0.393594088
     0.652000503  0.375000000  0.393594088
     0.250000000  0.500000000  0.458289097
     0.250000000  0.500000000  0.541710903
     0.597999497  0.375000000  0.500000000
     0.402000503  0.375000000  0.500000000
     0.501048841  0.499872022  0.565519471
     0.500087814  0.500356220  0.649502876
     0.350280707  0.375046434  0.607178894
     0.651408992  0.374972991  0.607548991
     0.250421216  0.500335800  0.671582383
     0.252282219  0.500201623  0.755732540
     0.596867917  0.371466802  0.714480780
     0.406722587  0.374024030  0.717846825

  ion indices of the primitive-cell ions
   primitive index   ion index
                 1           1
                 2           2
                 3           3
                 4           4
                 5           5
                 6           6
                 7           7
                 8           8
                 9           9
                10          10
                11          11
                12          12
                13          13
                14          14
                15          15
                16          16
                17          17
                18          18
                19          19
                20          20
                21          21
                22          22
                23          23
                24          24
                25          25
                26          26
                27          27
                28          28
                29          29
                30          30
                31          31
                32          32
                33          33
                34          34
                35          35
                36          36
                37          37
                38          38
                39          39
                40          40
                41          41
                42          42
                43          43
                44          44
                45          45
                46          46
                47          47
                48          48
                49          49
                50          50
                51          51
                52          52
                53          53
                54          54
                55          55
                56          56
                57          57
                58          58
                59          59
                60          60
                61          61
                62          62
                63          63
                64          64
                65          65
                66          66
                67          67
                68          68
                69          69
                70          70
                71          71
                72          72
                73          73
                74          74
                75          75
                76          76
                77          77
                78          78
                79          79
                80          80
                81          81
                82          82
                83          83
                84          84
                85          85
                86          86
                87          87
                88          88
                89          89
                90          90
                91          91
                92          92
                93          93
                94          94
                95          95
                96          96
                97          97
                98          98
                99          99
               100         100
               101         101
               102         102
               103         103
               104         104
               105         105
               106         106
               107         107
               108         108
               109         109
               110         110
               111         111
               112         112
               113         113
               114         114
               115         115
               116         116
               117         117
               118         118
               119         119
               120         120
               121         121
               122         122
               123         123
               124         124
               125         125
               126         126
               127         127
               128         128
               129         129
               130         130
               131         131
               132         132
               133         133
               134         134
               135         135
               136         136
               137         137
               138         138
               139         139
               140         140
               141         141
               142         142
               143         143
               144         144
               145         145
               146         146
               147         147
               148         148
               149         149
               150         150
               151         151
               152         152
               153         153
               154         154
               155         155
               156         156
               157         157
               158         158
               159         159
               160         160
               161         161
               162         162
               163         163
               164         164
               165         165
               166         166
               167         167
               168         168
               169         169
               170         170
               171         171
               172         172
               173         173
               174         174
               175         175
               176         176
               177         177
               178         178
               179         179
               180         180
               181         181
               182         182
               183         183
               184         184
               185         185
               186         186
               187         187
               188         188
               189         189
               190         190
               191         191
               192         192
               193         193
               194         194
               195         195
               196         196
               197         197
               198         198
               199         199
               200         200
               201         201
               202         202
               203         203
               204         204
               205         205
               206         206
               207         207
               208         208
               209         209
               210         210
               211         211
               212         212
               213         213
               214         214
               215         215
               216         216
               217         217
               218         218
               219         219
               220         220
               221         221
               222         222
               223         223
               224         224
               225         225
               226         226
               227         227
               228         228
               229         229
               230         230
               231         231
               232         232
               233         233
               234         234
               235         235
               236         236
               237         237
               238         238
               239         239
               240         240

----------------------------------------------------------------------------------------



 KPOINTS: pymatgen v2020.8.13 with grid density = 

Automatic generation of k-mesh.
 Grid dimensions read from file:
 generate k-points for:    2    2    1

 Generating k-lattice:

  Cartesian coordinates                     Fractional coordinates (reciprocal lattice)
     0.038449817  0.000000000  0.000000000     0.500000000  0.000000000  0.000000000
     0.000000000  0.042264276  0.000000000     0.000000000  0.500000000  0.000000000
     0.000000000  0.000000000  0.032730303     0.000000000  0.000000000  1.000000000

  Length of vectors
     0.038449817  0.042264276  0.032730303

  Shift w.r.t. Gamma in fractional coordinates (k-lattice)
     0.000000000  0.000000000  0.000000000

 
 Subroutine IBZKPT returns following result:
 ===========================================
 
 Found      4 irreducible k-points:
 
 Following reciprocal coordinates:
            Coordinates               Weight
  0.000000  0.000000  0.000000      1.000000
  0.500000  0.000000  0.000000      1.000000
  0.000000  0.500000  0.000000      1.000000
  0.500000  0.500000  0.000000      1.000000
 
 Following cartesian coordinates:
            Coordinates               Weight
  0.000000  0.000000  0.000000      1.000000
  0.038450  0.000000  0.000000      1.000000
  0.000000  0.042264  0.000000      1.000000
  0.038450  0.042264  0.000000      1.000000
 
 
 Subroutine IBZKPT_HF returns following result:
 ==============================================
 
 Found      4 k-points in 1st BZ
 the following      4 k-points will be used (e.g. in the exchange kernel)
 Following reciprocal coordinates:   # in IRBZ
  0.000000  0.000000  0.000000    0.25000000   1 t-inv F
  0.500000  0.000000  0.000000    0.25000000   2 t-inv F
  0.000000  0.500000  0.000000    0.25000000   3 t-inv F
  0.500000  0.500000  0.000000    0.25000000   4 t-inv F


--------------------------------------------------------------------------------------------------------




 Dimension of arrays:
   k-points           NKPTS =      4   k-points in BZ     NKDIM =      4   number of bands    NBANDS=    768
   number of dos      NEDOS =    301   number of ions     NIONS =    240
   non local maximal  LDIM  =      5   non local SUM 2l+1 LMDIM =     15
   total plane-waves  NPLWV = ******
   max r-space proj   IRMAX =      1   max aug-charges    IRDMAX=  15009
   dimension x,y,z NGX =    80 NGY =   70 NGZ =  180
   dimension x,y,z NGXF=   160 NGYF=  140 NGZF=  360
   support grid    NGXF=   160 NGYF=  140 NGZF=  360
   ions per type =              80 160
   NGX,Y,Z   is equivalent  to a cutoff of  10.23,  9.84,  9.79 a.u.
   NGXF,Y,Z  is equivalent  to a cutoff of  20.45, 19.67, 19.59 a.u.

 SYSTEM =  TiO2                                    
 POSCAR =  Ti  O                                   

    13.003962940 11.830322230 30.552726600     0.076899635  0.084528551  0.032730303



 old parameters found on file WAVECAR:
  energy-cutoff  :      520.00
  volume of cell :     4700.26
      direct lattice vectors                 reciprocal lattice vectors
    13.003962940  0.000000000  0.000000000     0.076899635  0.000000000  0.000000000
     0.000000000 11.830322230  0.000000000     0.000000000  0.084528551  0.000000000
     0.000000000  0.000000000 30.552726600     0.000000000  0.000000000  0.032730303

  length of vectors


 k-points in units of 2pi/SCALE and weight: pymatgen v2020.8.13 with grid density = 
   0.00000000  0.00000000  0.00000000       0.250
   0.03844982  0.00000000  0.00000000       0.250
   0.00000000  0.04226428  0.00000000       0.250
   0.03844982  0.04226428  0.00000000       0.250

 k-points in reciprocal lattice and weights: pymatgen v2020.8.13 with grid density = 
   0.00000000  0.00000000  0.00000000       0.250
   0.50000000  0.00000000  0.00000000       0.250
   0.00000000  0.50000000  0.00000000       0.250
   0.50000000  0.50000000  0.00000000       0.250

 position of ions in fractional coordinates (direct lattice) 
   0.75000000  0.62500000  0.28718818
   0.00000000  0.75000000  0.28718818
   0.00000000  0.62500000  0.39359409
   0.75000000  0.75000000  0.39359409
   0.75000000  0.62500000  0.50000000
   0.00000000  0.75000000  0.50000000
   0.00716523  0.62506077  0.60404086
   0.75633367  0.75012134  0.61020877
   0.75093030  0.62576825  0.71910063
   0.00016861  0.75032412  0.70817446
   0.75000000  0.87500000  0.28718818
   0.00000000  0.00000000  0.28718818
   0.00000000  0.87500000  0.39359409
   0.75000000  0.00000000  0.39359409
   0.75000000  0.87500000  0.50000000
   0.00000000  0.00000000  0.50000000
   0.00736096  0.87503838  0.60410783
   0.75592462  0.00003050  0.61051943
   0.74984686  0.87491174  0.72016549
   0.00048597  0.99993433  0.70814359
   0.75000000  0.12500000  0.28718818
   0.00000000  0.25000000  0.28718818
   0.00000000  0.12500000  0.39359409
   0.75000000  0.25000000  0.39359409
   0.75000000  0.12500000  0.50000000
   0.00000000  0.25000000  0.50000000
   0.00748460  0.12496751  0.60410334
   0.75625521  0.24986504  0.61014691
   0.74980744  0.12418699  0.72016995
   0.00040393  0.24960261  0.70816717
   0.75000000  0.37500000  0.28718818
   0.00000000  0.50000000  0.28718818
   0.00000000  0.37500000  0.39359409
   0.75000000  0.50000000  0.39359409
   0.75000000  0.37500000  0.50000000
   0.00000000  0.50000000  0.50000000
   0.00719376  0.37499186  0.60403295
   0.75649418  0.49999761  0.61036677
   0.75162363  0.37319900  0.71913226
   0.00100038  0.50009544  0.70810709
   0.25000000  0.62500000  0.28718818
   0.50000000  0.75000000  0.28718818
   0.50000000  0.62500000  0.39359409
   0.25000000  0.75000000  0.39359409
   0.25000000  0.62500000  0.50000000
   0.50000000  0.75000000  0.50000000
   0.50737809  0.62267262  0.60537050
   0.25633760  0.74996670  0.61046543
   0.25051380  0.62526779  0.72005708
   0.50094729  0.75009534  0.70687474
   0.25000000  0.87500000  0.28718818
   0.50000000  0.00000000  0.28718818
   0.50000000  0.87500000  0.39359409
   0.25000000  0.00000000  0.39359409
   0.25000000  0.87500000  0.50000000
   0.50000000  0.00000000  0.50000000
   0.50728553  0.87402095  0.60302089
   0.25622113  0.00000658  0.61057433
   0.25125485  0.87510647  0.72025432
   0.49970468  0.99993415  0.70710692
   0.25000000  0.12500000  0.28718818
   0.50000000  0.25000000  0.28718818
   0.50000000  0.12500000  0.39359409
   0.25000000  0.25000000  0.39359409
   0.25000000  0.12500000  0.50000000
   0.50000000  0.25000000  0.50000000
   0.50723058  0.12613883  0.60312451
   0.25627210  0.25011079  0.61055924
   0.25107408  0.12497706  0.72022308
   0.50086401  0.24969078  0.70723973
   0.25000000  0.37500000  0.28718818
   0.50000000  0.50000000  0.28718818
   0.50000000  0.37500000  0.39359409
   0.25000000  0.50000000  0.39359409
   0.25000000  0.37500000  0.50000000
   0.50000000  0.50000000  0.50000000
   0.50734677  0.37735266  0.60554094
   0.25589096  0.50005012  0.61060606
   0.25051233  0.37495830  0.72019356
   0.50091996  0.49940903  0.71203776
   0.75000000  0.75000000  0.24547727
   0.75000000  0.75000000  0.32889908
   0.09799950  0.62500000  0.28718818
   0.90200050  0.62500000  0.28718818
   0.00000000  0.75000000  0.35188318
   0.00000000  0.75000000  0.43530499
   0.84799950  0.62500000  0.39359409
   0.15200050  0.62500000  0.39359409
   0.75000000  0.75000000  0.45828910
   0.75000000  0.75000000  0.54171090
   0.09799950  0.62500000  0.50000000
   0.90200050  0.62500000  0.50000000
   0.00077377  0.75013892  0.56532488
   0.00001085  0.74984522  0.64906498
   0.85103587  0.62528371  0.60654670
   0.15062661  0.62519768  0.60704438
   0.75411943  0.75087780  0.67140657
   0.74870068  0.74888683  0.75555504
   0.09478256  0.62508733  0.71877884
   0.90645094  0.62425987  0.71969055
   0.75000000  0.00000000  0.24547727
   0.75000000  0.00000000  0.32889908
   0.09799950  0.87500000  0.28718818
   0.90200050  0.87500000  0.28718818
   0.00000000  0.00000000  0.35188318
   0.00000000  0.00000000  0.43530499
   0.84799950  0.87500000  0.39359409
   0.15200050  0.87500000  0.39359409
   0.75000000  0.00000000  0.45828910
   0.75000000  0.00000000  0.54171090
   0.09799950  0.87500000  0.50000000
   0.90200050  0.87500000  0.50000000
   0.00082472  0.00001660  0.56534244
   0.00040688  0.99999320  0.64903689
   0.85081924  0.87550535  0.60684614
   0.15063037  0.87487007  0.60712244
   0.75115261  0.00002883  0.67170262
   0.75033700  0.99975377  0.75586571
   0.09459058  0.87452502  0.71854399
   0.90646602  0.87501000  0.71917307
   0.75000000  0.25000000  0.24547727
   0.75000000  0.25000000  0.32889908
   0.09799950  0.12500000  0.28718818
   0.90200050  0.12500000  0.28718818
   0.00000000  0.25000000  0.35188318
   0.00000000  0.25000000  0.43530499
   0.84799950  0.12500000  0.39359409
   0.15200050  0.12500000  0.39359409
   0.75000000  0.25000000  0.45828910
   0.75000000  0.25000000  0.54171090
   0.09799950  0.12500000  0.50000000
   0.90200050  0.12500000  0.50000000
   0.00075213  0.24988591  0.56533132
   0.00020486  0.25018057  0.64907311
   0.85077904  0.12472565  0.60694037
   0.15061761  0.12503283  0.60704590
   0.75331972  0.24973947  0.67143258
   0.74946962  0.25060171  0.75549097
   0.09447658  0.12529697  0.71866522
   0.90642146  0.12495698  0.71897679
   0.75000000  0.50000000  0.24547727
   0.75000000  0.50000000  0.32889908
   0.09799950  0.37500000  0.28718818
   0.90200050  0.37500000  0.28718818
   0.00000000  0.50000000  0.35188318
   0.00000000  0.50000000  0.43530499
   0.84799950  0.37500000  0.39359409
   0.15200050  0.37500000  0.39359409
   0.75000000  0.50000000  0.45828910
   0.75000000  0.50000000  0.54171090
   0.09799950  0.37500000  0.50000000
   0.90200050  0.37500000  0.50000000
   0.00085225  0.50002033  0.56530401
   0.00024885  0.50003740  0.64900715
   0.85101835  0.37470919  0.60657617
   0.15062830  0.37497464  0.60701903
   0.75566253  0.50006176  0.67126946
   0.73977133  0.49980273  0.75560509
   0.09470672  0.37507894  0.71877980
   0.90649100  0.37568362  0.71967273
   0.25000000  0.75000000  0.24547727
   0.25000000  0.75000000  0.32889908
   0.59799950  0.62500000  0.28718818
   0.40200050  0.62500000  0.28718818
   0.50000000  0.75000000  0.35188318
   0.50000000  0.75000000  0.43530499
   0.34799950  0.62500000  0.39359409
   0.65200050  0.62500000  0.39359409
   0.25000000  0.75000000  0.45828910
   0.25000000  0.75000000  0.54171090
   0.59799950  0.62500000  0.50000000
   0.40200050  0.62500000  0.50000000
   0.50096257  0.74872783  0.56513527
   0.49825225  0.75160134  0.64798502
   0.35020974  0.62492242  0.60696529
   0.65144461  0.62529491  0.60755951
   0.25150209  0.74974819  0.67157217
   0.25112834  0.74981239  0.75581712
   0.59738590  0.62979218  0.71354312
   0.40776331  0.62561065  0.71922429
   0.25000000  0.00000000  0.24547727
   0.25000000  0.00000000  0.32889908
   0.59799950  0.87500000  0.28718818
   0.40200050  0.87500000  0.28718818
   0.50000000  0.00000000  0.35188318
   0.50000000  0.00000000  0.43530499
   0.34799950  0.87500000  0.39359409
   0.65200050  0.87500000  0.39359409
   0.25000000  0.00000000  0.45828910
   0.25000000  0.00000000  0.54171090
   0.59799950  0.87500000  0.50000000
   0.40200050  0.87500000  0.50000000
   0.50054847  0.00014840  0.56485199
   0.50047778  0.99994945  0.64824657
   0.35032078  0.87523276  0.60667705
   0.65110642  0.87486561  0.60694939
   0.25061139  0.99995139  0.67152415
   0.24995872  0.00000359  0.75578540
   0.59474298  0.87488475  0.71810081
   0.40629589  0.87595561  0.71845133
   0.25000000  0.25000000  0.24547727
   0.25000000  0.25000000  0.32889908
   0.59799950  0.12500000  0.28718818
   0.40200050  0.12500000  0.28718818
   0.50000000  0.25000000  0.35188318
   0.50000000  0.25000000  0.43530499
   0.34799950  0.12500000  0.39359409
   0.65200050  0.12500000  0.39359409
   0.25000000  0.25000000  0.45828910
   0.25000000  0.25000000  0.54171090
   0.59799950  0.12500000  0.50000000
   0.40200050  0.12500000  0.50000000
   0.50087788  0.25140225  0.56524184
   0.49927618  0.24840862  0.64827780
   0.35040139  0.12491160  0.60682101
   0.65115550  0.12516105  0.60691043
   0.25054071  0.24995637  0.67152498
   0.25091110  0.25019082  0.75573659
   0.59478933  0.12473612  0.71814030
   0.40620948  0.12427066  0.71831809
   0.25000000  0.50000000  0.24547727
   0.25000000  0.50000000  0.32889908
   0.59799950  0.37500000  0.28718818
   0.40200050  0.37500000  0.28718818
   0.50000000  0.50000000  0.35188318
   0.50000000  0.50000000  0.43530499
   0.34799950  0.37500000  0.39359409
   0.65200050  0.37500000  0.39359409
   0.25000000  0.50000000  0.45828910
   0.25000000  0.50000000  0.54171090
   0.59799950  0.37500000  0.50000000
   0.40200050  0.37500000  0.50000000
   0.50104884  0.49987202  0.56551947
   0.50008781  0.50035622  0.64950288
   0.35028071  0.37504643  0.60717889
   0.65140899  0.37497299  0.60754899
   0.25042122  0.50033580  0.67158238
   0.25228222  0.50020162  0.75573254
   0.59686792  0.37146680  0.71448078
   0.40672259  0.37402403  0.71784683

 position of ions in cartesian coordinates  (Angst):
   9.75297220  7.39395139  8.77438183
   0.00000000  8.87274167  8.77438183
   0.00000000  7.39395139 12.02537257
   9.75297220  8.87274167 12.02537257
   9.75297220  7.39395139 15.27636330
   0.00000000  8.87274167 15.27636330
   0.09317640  7.39467035 18.45509523
   9.83533502  8.87417715 18.64354186
   9.76506976  7.40304004 21.97048490
   0.00219266  8.87657609 21.63666076
   9.75297220 10.35153195  8.77438183
   0.00000000  0.00000000  8.77438183
   0.00000000 10.35153195 12.02537257
   9.75297220  0.00000000 12.02537257
   9.75297220 10.35153195 15.27636330
   0.00000000  0.00000000 15.27636330
   0.09572169 10.35198600 18.45714135
   9.83001572  0.00036078 18.65303332
   9.75098081 10.35048784 22.00301939
   0.00631959 11.82954529 21.63571753
   9.75297220  1.47879028  8.77438183
   0.00000000  2.95758056  8.77438183
   0.00000000  1.47879028 12.02537257
   9.75297220  2.95758056 12.02537257
   9.75297220  1.47879028 15.27636330
   0.00000000  2.95758056 15.27636330
   0.09732952  1.47840589 18.45700429
   9.83431467  2.95598394 18.64165187
   9.75046815  1.46917209 22.00315574
   0.00525274  2.95287928 21.63643781
   9.75297220  4.43637084  8.77438183
   0.00000000  5.91516111  8.77438183
   0.00000000  4.43637084 12.02537257
   9.75297220  5.91516111 12.02537257
   9.75297220  4.43637084 15.27636330
   0.00000000  5.91516111 15.27636330
   0.09354744  4.43627452 18.45485350
   9.83742225  5.91513286 18.64836912
   9.77408583  4.41506439 21.97145121
   0.01300884  5.91629021 21.63460245
   3.25099073  7.39395139  8.77438183
   6.50198147  8.87274167  8.77438183
   6.50198147  7.39395139 12.02537257
   3.25099073  8.87274167 12.02537257
   3.25099073  7.39395139 15.27636330
   6.50198147  8.87274167 15.27636330
   6.59792588  7.36641770 18.49571932
   3.33340462  8.87234768 18.65138344
   3.25767223  7.39711944 21.99970714
   6.51429997  8.87386952 21.59695074
   3.25099073 10.35153195  8.77438183
   6.50198147  0.00000000  8.77438183
   6.50198147 10.35153195 12.02537257
   3.25099073  0.00000000 12.02537257
   3.25099073 10.35153195 15.27636330
   6.50198147  0.00000000 15.27636330
   6.59672227 10.33994946 18.42393224
   3.33189008  0.00007784 18.65471053
   3.26730882 10.35279148 22.00573332
   6.49814111 11.82954316 21.60404452
   3.25099073  1.47879028  8.77438183
   6.50198147  2.95758056  8.77438183
   6.50198147  1.47879028 12.02537257
   3.25099073  2.95758056 12.02537257
   3.25099073  1.47879028 15.27636330
   6.50198147  2.95758056 15.27636330
   6.59600760  1.49226298 18.42709836
   3.33255295  2.95889118 18.65424939
   3.26495806  1.47851890 22.00477891
   6.51321703  2.95392242 21.60810221
   3.25099073  4.43637084  8.77438183
   6.50198147  5.91516111  8.77438183
   6.50198147  4.43637084 12.02537257
   3.25099073  5.91516111 12.02537257
   3.25099073  4.43637084 15.27636330
   6.50198147  5.91516111 15.27636330
   6.59751858  4.46420351 18.50092673
   3.32759657  5.91575405 18.65568000
   3.25765308  4.43587752 22.00387709
   6.51394466  5.90816980 21.75469489
   9.75297220  8.87274167  7.50000000
   9.75297220  8.87274167 10.04876366
   1.27438183  7.39395139  8.77438183
  11.72958111  7.39395139  8.77438183
   0.00000000  8.87274167 10.75099073
   0.00000000  8.87274167 13.29975440
  11.02735404  7.39395139 12.02537257
   1.97660890  7.39395139 12.02537257
   9.75297220  8.87274167 14.00198147
   9.75297220  8.87274167 16.55074513
   1.27438183  7.39395139 15.27636330
  11.72958111  7.39395139 15.27636330
   0.01006213  8.87438510 17.27221658
   0.00014105  8.87091057 19.83070490
  11.06683897  7.39730781 18.53165552
   1.95874287  7.39629001 18.54686088
   9.80654111  8.88312630 20.51330133
   9.73607583  8.85957248 23.08426670
   1.23254892  7.39498451 21.96065326
  11.78745439  7.38519544 21.98850866
   9.75297220  0.00000000  7.50000000
   9.75297220  0.00000000 10.04876366
   1.27438183 10.35153195  8.77438183
  11.72958111 10.35153195  8.77438183
   0.00000000  0.00000000 10.75099073
   0.00000000  0.00000000 13.29975440
  11.02735404 10.35153195 12.02537257
   1.97660890 10.35153195 12.02537257
   9.75297220  0.00000000 14.00198147
   9.75297220  0.00000000 16.55074513
   1.27438183 10.35153195 15.27636330
  11.72958111 10.35153195 15.27636330
   0.01072468  0.00019635 17.27275313
   0.00529100 11.83024177 19.82984652
  11.06402192 10.35751039 18.54080419
   1.95879179 10.34999485 18.54924591
   9.76796068  0.00034103 20.52234636
   9.75735459 11.82740929 23.09375840
   1.23005240 10.34591283 21.95347817
  11.78765048 10.35165023 21.97269830
   9.75297220  2.95758056  7.50000000
   9.75297220  2.95758056 10.04876366
   1.27438183  1.47879028  8.77438183
  11.72958111  1.47879028  8.77438183
   0.00000000  2.95758056 10.75099073
   0.00000000  2.95758056 13.29975440
  11.02735404  1.47879028 12.02537257
   1.97660890  1.47879028 12.02537257
   9.75297220  2.95758056 14.00198147
   9.75297220  2.95758056 16.55074513
   1.27438183  1.47879028 15.27636330
  11.72958111  1.47879028 15.27636330
   0.00978073  2.95623089 17.27241319
   0.00266401  2.95971675 19.83095338
  11.06349909  1.47554467 18.54368319
   1.95862582  1.47917861 18.54690728
   9.79614179  2.95449843 20.51409606
   9.74607512  2.96469903 23.08230897
   1.22856989  1.48230353 21.95718186
  11.78707102  1.47828137 21.96670138
   9.75297220  5.91516111  7.50000000
   9.75297220  5.91516111 10.04876366
   1.27438183  4.43637084  8.77438183
  11.72958111  4.43637084  8.77438183
   0.00000000  5.91516111 10.75099073
   0.00000000  5.91516111 13.29975440
  11.02735404  4.43637084 12.02537257
   1.97660890  4.43637084 12.02537257
   9.75297220  5.91516111 14.00198147
   9.75297220  5.91516111 16.55074513
   1.27438183  4.43637084 15.27636330
  11.72958111  4.43637084 15.27636330
   0.01108263  5.91540168 17.27157886
   0.00323604  5.91560352 19.82893816
  11.06661105  4.43293042 18.53255595
   1.95876484  4.43607087 18.54608649
   9.82660755  5.91589175 20.50911243
   9.61995901  5.91282737 23.08579579
   1.23156269  4.43730476 21.96068268
  11.78797535  4.44445828 21.98796411
   3.25099073  8.87274167  7.50000000
   3.25099073  8.87274167 10.04876366
   7.77636330  7.39395139  8.77438183
   5.22759964  7.39395139  8.77438183
   6.50198147  8.87274167 10.75099073
   6.50198147  8.87274167 13.29975440
   4.52537257  7.39395139 12.02537257
   8.47859037  7.39395139 12.02537257
   3.25099073  8.87274167 14.00198147
   3.25099073  8.87274167 16.55074513
   7.77636330  7.39395139 15.27636330
   5.22759964  7.39395139 15.27636330
   6.51449867  8.85769144 17.26642337
   6.47925377  8.89168600 19.79770917
   4.55411454  7.39303364 18.54444457
   8.47136154  7.39744032 18.56259974
   3.27052382  8.86976265 20.51836082
   3.26566369  8.87052219 23.09227381
   7.76838413  7.45064443 21.80068775
   5.30253894  7.40117554 21.97426307
   3.25099073  0.00000000  7.50000000
   3.25099073  0.00000000 10.04876366
   7.77636330 10.35153195  8.77438183
   5.22759964 10.35153195  8.77438183
   6.50198147  0.00000000 10.75099073
   6.50198147  0.00000000 13.29975440
   4.52537257 10.35153195 12.02537257
   8.47859037 10.35153195 12.02537257
   3.25099073  0.00000000 14.00198147
   3.25099073  0.00000000 16.55074513
   7.77636330 10.35153195 15.27636330
   5.22759964 10.35153195 15.27636330
   6.50911370  0.00175564 17.25776828
   6.50819452 11.82972424 19.80570026
   4.55555838 10.35428559 18.53563807
   8.46696380 10.34994204 18.54395892
   3.25894125 11.82974714 20.51689364
   3.25045396  0.00004251 23.09130472
   7.73401571 10.35016845 21.93993771
   5.28345671 10.36283715 21.95064704
   3.25099073  2.95758056  7.50000000
   3.25099073  2.95758056 10.04876366
   7.77636330  1.47879028  8.77438183
   5.22759964  1.47879028  8.77438183
   6.50198147  2.95758056 10.75099073
   6.50198147  2.95758056 13.29975440
   4.52537257  1.47879028 12.02537257
   8.47859037  1.47879028 12.02537257
   3.25099073  2.95758056 14.00198147
   3.25099073  2.95758056 16.55074513
   7.77636330  1.47879028 15.27636330
   5.22759964  1.47879028 15.27636330
   6.51339744  2.97416957 17.26967938
   6.49256899  2.93875406 19.80665435
   4.55660674  1.47774449 18.54003640
   8.46760199  1.48069551 18.54276847
   3.25802212  2.95706446 20.51691906
   3.26283859  2.95983798 23.08981353
   7.73461843  1.47566851 21.94114430
   5.28233308  1.47016193 21.94657614
   3.25099073  5.91516111  7.50000000
   3.25099073  5.91516111 10.04876366
   7.77636330  4.43637084  8.77438183
   5.22759964  4.43637084  8.77438183
   6.50198147  5.91516111 10.75099073
   6.50198147  5.91516111 13.29975440
   4.52537257  4.43637084 12.02537257
   8.47859037  4.43637084 12.02537257
   3.25099073  5.91516111 14.00198147
   3.25099073  5.91516111 16.55074513
   7.77636330  4.43637084 15.27636330
   5.22759964  4.43637084 15.27636330
   6.51562055  5.91364710 17.27816178
   6.50312340  5.91937532 19.84408381
   4.55503733  4.43692017 18.55097075
   8.47089839  4.43605131 18.56227822
   3.25646821  5.91913374 20.51867293
   3.28066862  5.91754639 23.08968966
   7.76164827  4.39457196 21.82933594
   5.28900545  4.42482479 21.93217779



--------------------------------------------------------------------------------------------------------

--------------------------------------- Iteration      FINAL  ---------------------------------------


--------------------OUTCAR has been truncated-------------------------


--------------------OUTCAR has been truncated-------------------------


--------------------OUTCAR has been truncated-------------------------


--------------------OUTCAR has been truncated-------------------------


--------------------OUTCAR has been truncated-------------------------


--------------------OUTCAR has been truncated-------------------------


--------------------OUTCAR has been truncated-------------------------


--------------------OUTCAR has been truncated-------------------------


--------------------OUTCAR has been truncated-------------------------


--------------------OUTCAR has been truncated-------------------------


    FORHAR:  cpu time      0.0266: real time      0.0266
    MIXING:  cpu time      0.0006: real time      0.0006
    OFIELD:  cpu time      0.0004: real time      0.0004
    FORVDW:  cpu time     54.4605: real time     54.4874

  FORCE on cell =-STRESS in cart. coord.  units (eV):
  Direction    XX          YY          ZZ          XY          YZ          ZX
  --------------------------------------------------------------------------------------
  Alpha Z  2928.57060  2928.57060  2928.57060
  Ewald  515564.05938520787.06461************    -1.75586     0.06650   -12.47074
  Hartree536472.97519537886.40927************     0.18108     0.00935    -4.58617
  E(xc)   -4635.37296 -4682.80411 -4635.36204     0.04829     0.02039     0.16972
  Local  ************************************     1.40567    -0.09349    17.23225
  n-local -2895.33327 -2796.72683 -2952.68749    -0.13793     0.06484    -0.40262
  augment  1338.30420  1318.37129  1342.74013    -0.00108    -0.02341    -0.02450
  Kinetic 23336.34528 22797.04477 23386.52118     0.12221    -0.05492     0.98995
  Fock    -2123.44643 -2147.59011 -2125.41167     0.02319     0.03050     0.08498
  vdW       -49.27928   -49.23443   -42.91442     0.00279    -0.00172     0.00535
  -------------------------------------------------------------------------------------
  Total     -46.05533  -125.71520   -93.24002    -0.11165     0.01806     0.99821
  in kB     -15.69886   -42.85249   -31.78269    -0.03806     0.00615     0.34026
  external pressure =      -30.11 kB  Pullay stress =        0.00 kB


 VOLUME and BASIS-vectors are now :
 -----------------------------------------------------------------------------
  energy-cutoff  :      520.00
  volume of cell :     4700.26
      direct lattice vectors                 reciprocal lattice vectors
    13.003962940  0.000000000  0.000000000     0.076899635  0.000000000  0.000000000
     0.000000000 11.830322230  0.000000000     0.000000000  0.084528551  0.000000000
     0.000000000  0.000000000 30.552726600     0.000000000  0.000000000  0.032730303

  length of vectors
    13.003962940 11.830322230 30.552726600     0.076899635  0.084528551  0.032730303


 FORCES acting on ions
    electron-ion (+dipol)            ewald-force                    non-local-force                 convergence-correction
 -----------------------------------------------------------------------------------------------
   -.304E-03 0.663E-02 0.110E+04   -.137E-02 -.647E-02 -.110E+04   -.173E-03 0.966E-04 -.120E+01   -.587E-06 0.153E-04 0.104E+00
   -.515E-02 0.487E-02 0.117E+04   0.569E-02 -.486E-02 -.117E+04   0.147E-03 0.250E-04 -.178E+01   0.200E-04 0.211E-04 0.103E+00
   -.174E-01 0.147E-01 0.561E+03   0.201E-01 -.146E-01 -.561E+03   0.731E-03 0.108E-03 0.171E+00   0.583E-04 -.524E-04 0.269E-01
   -.223E-01 0.367E-01 0.558E+03   0.177E-01 -.361E-01 -.558E+03   -.677E-03 0.353E-03 -.166E+00   -.593E-04 0.447E-04 0.276E-01
   0.232E-01 0.153E+00 -.460E+01   -.393E-01 -.163E+00 0.513E+01   -.324E-02 -.524E-02 0.181E+00   -.223E-03 0.165E-04 -.453E-01
   0.432E+00 0.120E-01 -.424E+01   -.435E+00 -.763E-02 0.356E+01   -.499E-02 -.106E-02 -.729E-01   0.145E-03 -.130E-04 -.476E-01
   0.592E+01 0.111E+00 -.556E+03   -.631E+01 -.105E+00 0.556E+03   0.946E-01 -.465E-02 0.254E-01   0.106E-02 -.749E-04 -.101E+00
   0.437E+01 -.502E+00 -.568E+03   -.452E+01 0.541E+00 0.568E+03   0.181E-01 -.732E-03 0.566E-01   -.136E-02 -.260E-04 -.106E+00
   -.560E+01 0.510E+01 -.109E+04   0.568E+01 -.560E+01 0.109E+04   0.185E+00 -.185E+00 0.201E+00   -.176E-02 0.892E-04 -.122E+00
   0.266E-01 0.194E+01 -.111E+04   -.549E-01 -.199E+01 0.111E+04   -.523E-01 -.245E-01 0.711E+00   0.838E-03 0.483E-04 -.123E+00
   -.441E-02 0.393E-02 0.110E+04   0.255E-02 -.390E-02 -.110E+04   -.185E-03 0.133E-04 -.120E+01   -.373E-04 -.118E-05 0.104E+00
   -.484E-02 -.156E-02 0.117E+04   0.536E-02 0.155E-02 -.117E+04   0.167E-03 -.161E-04 -.178E+01   0.622E-04 -.820E-05 0.103E+00
   -.108E-01 0.385E-02 0.561E+03   0.135E-01 -.417E-02 -.561E+03   0.740E-03 -.277E-04 0.171E+00   0.923E-04 0.490E-04 0.269E-01
   -.482E-01 -.930E-02 0.558E+03   0.433E-01 0.903E-02 -.558E+03   -.869E-03 -.296E-03 -.166E+00   -.954E-04 -.830E-04 0.276E-01
   -.373E+00 0.408E-01 -.449E+01   0.366E+00 -.239E-01 0.503E+01   0.638E-03 0.100E-01 0.182E+00   -.166E-03 0.369E-04 -.453E-01
   0.524E+00 -.214E-01 -.437E+01   -.527E+00 0.208E-01 0.369E+01   -.499E-02 -.529E-03 -.724E-01   0.182E-03 0.409E-04 -.476E-01
   0.672E+01 0.139E+00 -.556E+03   -.712E+01 -.136E+00 0.556E+03   0.942E-01 -.748E-02 0.288E-01   0.989E-03 -.409E-04 -.101E+00
   0.431E+01 -.110E+00 -.571E+03   -.449E+01 0.107E+00 0.571E+03   0.370E-02 -.182E-02 0.540E-01   -.123E-02 0.362E-05 -.106E+00
   -.228E+00 -.336E+00 -.109E+04   0.281E+00 0.234E+00 0.109E+04   0.376E-01 -.395E-01 0.310E-02   -.999E-03 -.373E-03 -.122E+00
   -.728E+00 0.992E-01 -.111E+04   0.677E+00 -.110E+00 0.111E+04   0.137E-01 -.528E-02 0.738E+00   0.779E-03 0.119E-03 -.122E+00
   -.390E-02 -.671E-02 0.110E+04   0.208E-02 0.642E-02 -.110E+04   -.186E-03 -.121E-03 -.120E+01   -.264E-04 0.478E-05 0.104E+00
   -.536E-02 -.493E-02 0.117E+04   0.591E-02 0.486E-02 -.117E+04   0.167E-03 -.663E-05 -.178E+01   0.626E-04 0.340E-04 0.103E+00
   -.115E-01 -.139E-01 0.561E+03   0.145E-01 0.140E-01 -.561E+03   0.802E-03 -.698E-04 0.171E+00   0.139E-03 -.284E-04 0.270E-01
   -.156E-01 -.367E-01 0.558E+03   0.114E-01 0.360E-01 -.558E+03   -.641E-03 -.337E-03 -.166E+00   -.752E-04 0.120E-03 0.276E-01
   -.362E+00 -.101E+00 -.453E+01   0.354E+00 0.739E-01 0.506E+01   0.149E-02 -.145E-01 0.179E+00   -.171E-03 -.412E-04 -.452E-01
   0.435E+00 -.907E-02 -.429E+01   -.435E+00 0.506E-02 0.361E+01   -.412E-02 0.783E-03 -.725E-01   0.195E-03 -.298E-04 -.476E-01
   0.711E+01 -.191E+00 -.556E+03   -.752E+01 0.186E+00 0.556E+03   0.936E-01 0.486E-02 0.314E-01   0.105E-02 0.929E-04 -.101E+00
   0.429E+01 0.361E+00 -.568E+03   -.444E+01 -.383E+00 0.568E+03   0.201E-01 -.565E-02 0.460E-01   -.134E-02 0.412E-04 -.106E+00
   0.647E-01 -.802E+00 -.109E+04   0.182E-01 0.897E+00 0.109E+04   0.369E-01 0.947E-02 -.110E-01   -.108E-02 0.595E-03 -.122E+00
   0.235E+00 -.201E+01 -.111E+04   -.281E+00 0.207E+01 0.111E+04   -.425E-01 0.224E-01 0.711E+00   0.890E-03 -.138E-03 -.122E+00
   0.186E-03 -.386E-02 0.110E+04   -.185E-02 0.395E-02 -.110E+04   -.167E-03 0.124E-04 -.120E+01   0.310E-04 -.174E-04 0.104E+00
   -.564E-02 0.161E-02 0.117E+04   0.621E-02 -.155E-02 -.117E+04   0.143E-03 -.138E-05 -.178E+01   -.159E-05 -.461E-04 0.103E+00
   -.184E-01 -.461E-02 0.561E+03   0.214E-01 0.482E-02 -.561E+03   0.791E-03 0.842E-05 0.171E+00   0.299E-04 0.312E-04 0.270E-01
   0.105E-01 0.936E-02 0.558E+03   -.141E-01 -.890E-02 -.558E+03   -.652E-03 0.211E-03 -.166E+00   -.260E-04 -.792E-04 0.276E-01
   0.440E-01 -.915E-01 -.464E+01   -.608E-01 0.111E+00 0.516E+01   -.306E-02 0.103E-01 0.178E+00   -.235E-03 -.106E-04 -.453E-01
   0.411E+00 0.314E-01 -.416E+01   -.412E+00 -.305E-01 0.348E+01   -.536E-02 0.582E-04 -.763E-01   0.155E-03 0.358E-05 -.476E-01
   0.610E+01 -.221E-01 -.556E+03   -.650E+01 0.194E-01 0.556E+03   0.919E-01 0.493E-02 0.264E-01   0.104E-02 0.213E-04 -.101E+00
   0.519E+01 0.243E-01 -.567E+03   -.527E+01 -.204E-01 0.567E+03   -.192E-01 0.196E-02 0.687E-01   -.147E-02 -.249E-04 -.106E+00
   -.451E+01 -.607E+01 -.109E+04   0.461E+01 0.670E+01 0.109E+04   0.129E+00 0.177E+00 0.178E+00   -.201E-02 -.282E-03 -.122E+00
   -.817E-01 0.404E-01 -.111E+04   -.565E-01 -.334E-01 0.111E+04   0.732E-02 0.639E-02 0.675E+00   0.103E-02 -.280E-04 -.123E+00
   -.113E-02 0.730E-02 0.110E+04   0.268E-02 -.729E-02 -.110E+04   0.224E-03 0.519E-04 -.120E+01   0.736E-04 0.313E-04 0.104E+00
   0.648E-02 0.113E-01 0.117E+04   -.701E-02 -.109E-01 -.117E+04   -.157E-03 0.137E-03 -.178E+01   -.345E-04 -.230E-04 0.103E+00
   0.486E-01 0.764E-01 0.561E+03   -.509E-01 -.656E-01 -.561E+03   -.113E-02 0.316E-02 0.175E+00   -.437E-04 0.529E-04 0.270E-01
   -.788E-02 0.463E-01 0.558E+03   0.119E-01 -.455E-01 -.558E+03   0.132E-02 0.407E-03 -.164E+00   0.735E-05 0.322E-04 0.277E-01
   -.349E+00 0.205E+00 -.493E+01   0.374E+00 -.211E+00 0.548E+01   0.777E-02 -.363E-02 0.187E+00   0.164E-03 0.486E-05 -.451E-01
   0.787E+00 0.237E+00 -.375E+01   -.800E+00 -.296E+00 0.315E+01   -.111E-01 0.132E-01 -.831E-01   -.104E-03 -.116E-03 -.474E-01
   0.711E+01 -.145E+01 -.559E+03   -.743E+01 0.185E+01 0.560E+03   0.119E+00 -.182E-01 -.265E-01   0.228E-03 -.284E-03 -.101E+00
   0.487E+01 -.119E+00 -.570E+03   -.514E+01 0.143E+00 0.570E+03   -.764E-03 0.128E-01 0.319E-01   -.307E-03 -.123E-03 -.105E+00
[...]
      0.00525      2.95288     21.63644        -0.079815      0.048260      0.186506
      9.75297      4.43637      8.77438        -0.002116      0.000095     -3.882739
      0.00000      5.91516      8.77438         0.000440      0.000022      3.277268
      0.00000      4.43637     12.02537         0.003667      0.000267      0.563530
      9.75297      5.91516     12.02537        -0.004769      0.000619     -0.848459
      9.75297      4.43637     15.27636        -0.020758      0.031227      0.680252
      0.00000      5.91516     15.27636        -0.005241      0.001103     -0.849242
      0.09355      4.43627     18.45485        -0.081822      0.002260      0.142159
      9.83742      5.91513     18.64837         0.023406      0.004750      0.098356
      9.77409      4.41506     21.97145         0.194600      0.707038      0.429086
      0.01301      5.91629     21.63460        -0.128200      0.016179      0.223813
      3.25099      7.39395      8.77438         0.001575      0.000110     -3.880918
      6.50198      8.87274      8.77438        -0.001040      0.000528      3.281456
      6.50198      7.39395     12.02537        -0.003812      0.014686      0.577000
      3.25099      8.87274     12.02537         0.005155      0.001268     -0.837370
      3.25099      7.39395     15.27636         0.032378     -0.010816      0.720939
      6.50198      8.87274     15.27636        -0.023128     -0.047032     -0.756844
      6.59793      7.36642     18.49572         0.005103      0.308303     -0.172427
      3.33340      8.87235     18.65138        -0.145337      0.031385     -0.038361
      3.25767      7.39712     21.99971        -0.258774      0.076011     -0.059007
      6.51430      8.87387     21.59695         0.035360      0.465005      0.199272
      3.25099     10.35153      8.77438         0.001822      0.000309     -3.880708
      6.50198      0.00000      8.77438        -0.001050     -0.000117      3.282138
      6.50198     10.35153     12.02537        -0.004155      0.001987      0.583457
      3.25099      0.00000     12.02537         0.005892     -0.000081     -0.836241
      3.25099     10.35153     15.27636         0.025369      0.017697      0.724702
      6.50198      0.00000     15.27636        -0.030679     -0.000578     -0.944053
      6.59672     10.33995     18.42393        -0.017275      0.077842      0.101231
      3.33189      0.00008     18.65471        -0.127983     -0.006278     -0.028099
      3.26731     10.35279     22.00573        -0.072046     -0.010427     -0.118917
      6.49814     11.82954     21.60404         0.059789     -0.059778      0.189929
      3.25099      1.47879      8.77438         0.001776     -0.000158     -3.880614
      6.50198      2.95758      8.77438        -0.001117     -0.000507      3.281100
      6.50198      1.47879     12.02537        -0.004542     -0.005186      0.581556
      3.25099      2.95758     12.02537         0.004822     -0.001258     -0.835607
      3.25099      1.47879     15.27636         0.024752     -0.006529      0.732635
      6.50198      2.95758     15.27636        -0.026355      0.049352     -0.743963
      6.59601      1.49226     18.42710        -0.014876     -0.092748      0.089715
      3.33255      2.95889     18.65425        -0.149920     -0.033881     -0.059298
      3.26496      1.47852     22.00478        -0.094878     -0.078127     -0.149991
      6.51322      2.95392     21.60810         0.099442     -0.538640     -0.003800
      3.25099      4.43637      8.77438         0.001531     -0.000246     -3.880832
      6.50198      5.91516      8.77438        -0.001107      0.000114      3.280342
      6.50198      4.43637     12.02537        -0.004189     -0.011476      0.575266
      3.25099      5.91516     12.02537         0.004075      0.000065     -0.836210
      3.25099      4.43637     15.27636         0.032377     -0.000464      0.728218
      6.50198      5.91516     15.27636        -0.020852     -0.001421     -0.823587
      6.59752      4.46420     18.50093         0.006547     -0.289695     -0.188525
      3.32760      5.91575     18.65568        -0.167756      0.007040     -0.062922
      3.25765      4.43588     22.00388        -0.368490      0.011595     -0.131008
      6.51394      5.90817     21.75469         0.281480      0.183391     -2.173298
      9.75297      8.87274      7.50000         0.000169     -0.000096      2.510961
      9.75297      8.87274     10.04876         0.000400     -0.000157      1.825940
      1.27438      7.39395      8.77438        -2.299601     -0.000061     -0.826521
     11.72958      7.39395      8.77438         2.297891     -0.000051     -0.826371
      0.00000      8.87274     10.75099        -0.000778      0.000005     -1.350827
      0.00000      8.87274     13.29975         0.000516      0.000166     -0.251524
     11.02735      7.39395     12.02537         0.330043     -0.000383      0.058884
      1.97661      7.39395     12.02537        -0.334651     -0.000089      0.057385
      9.75297      8.87274     14.00198        -0.000836     -0.002009      0.075812
      9.75297      8.87274     16.55075         0.020494      0.002051     -0.134746
      1.27438      7.39395     15.27636        -0.687527      0.001793      0.105408
     11.72958      7.39395     15.27636         0.682017      0.000901      0.121982
      0.01006      8.87439     17.27222         0.011310     -0.000338      0.072435
      0.00014      8.87091     19.83070         0.021647      0.004374     -0.350604
     11.06684      7.39731     18.53166        -0.069175      0.000663      0.013815
      1.95874      7.39629     18.54686         0.187155     -0.007556      0.024677
      9.80654      8.88313     20.51330        -0.044162      0.031225     -0.002825
      9.73608      8.85957     23.08427         0.023292      0.195030     -0.389535
      1.23255      7.39498     21.96065        -0.095793      0.002595     -0.061192
     11.78745      7.38520     21.98851         0.306301      0.037496     -0.121218
      9.75297      0.00000      7.50000         0.000179      0.000094      2.510981
      9.75297      0.00000     10.04876         0.000488      0.000141      1.825866
      1.27438     10.35153      8.77438        -2.299672      0.000014     -0.826521
     11.72958     10.35153      8.77438         2.297913      0.000033     -0.826378
      0.00000      0.00000     10.75099        -0.000787      0.000085     -1.350743
      0.00000      0.00000     13.29975         0.000420      0.000202     -0.250378
     11.02735     10.35153     12.02537         0.330185      0.000068      0.058911
      1.97661     10.35153     12.02537        -0.334847     -0.000317      0.057471
      9.75297      0.00000     14.00198        -0.001011      0.003273      0.076959
      9.75297      0.00000     16.55075         0.011677      0.005501     -0.152662
      1.27438     10.35153     15.27636        -0.687034      0.000084      0.103472
     11.72958     10.35153     15.27636         0.682404     -0.000247      0.120247
      0.01072      0.00020     17.27275         0.011281      0.000746      0.071902
      0.00529     11.83024     19.82985         0.016351      0.001410     -0.334240
     11.06402     10.35751     18.54080        -0.070866     -0.007884      0.015840
      1.95879     10.34999     18.54925         0.179907     -0.005932      0.022914
      9.76796      0.00034     20.52235        -0.002547      0.009371      0.057116
      9.75735     11.82741     23.09376        -0.015215      0.024299     -0.297199
      1.23005     10.34591     21.95348        -0.136614      0.019195     -0.055876
     11.78765     10.35165     21.97270         0.218324      0.015091     -0.078382
      9.75297      2.95758      7.50000         0.000159      0.000112      2.511023
      9.75297      2.95758     10.04876         0.000361      0.000168      1.826652
      1.27438      1.47879      8.77438        -2.299679      0.000005     -0.826524
     11.72958      1.47879      8.77438         2.297867      0.000013     -0.826354
      0.00000      2.95758     10.75099        -0.000796      0.000014     -1.350673
      0.00000      2.95758     13.29975         0.000232     -0.000084     -0.250547
     11.02735      1.47879     12.02537         0.330010      0.000474      0.059003
      1.97661      1.47879     12.02537        -0.335031      0.000167      0.057387
      9.75297      2.95758     14.00198        -0.000746      0.002049      0.080057
      9.75297      2.95758     16.55075         0.017975      0.003578     -0.117459
      1.27438      1.47879     15.27636        -0.689713      0.000750      0.103070
     11.72958      1.47879     15.27636         0.679479      0.002143      0.121334
      0.00978      2.95623     17.27241         0.011561      0.002009      0.073587
      0.00266      2.95972     19.83095         0.020856     -0.003691     -0.345039
     11.06350      1.47554     18.54368        -0.072759      0.006936      0.014875
      1.95863      1.47918     18.54691         0.182437      0.008828      0.024960
      9.79614      2.95450     20.51410        -0.040519     -0.040077      0.008763
      9.74608      2.96470     23.08231        -0.015020     -0.191913     -0.317246
      1.22857      1.48230     21.95718        -0.121214     -0.007701     -0.053247
     11.78707      1.47828     21.96670         0.211025     -0.008687     -0.071205
      9.75297      5.91516      7.50000         0.000145     -0.000093      2.511005
      9.75297      5.91516     10.04876         0.000339     -0.000115      1.826161
      1.27438      4.43637      8.77438        -2.299614      0.000054     -0.826517
     11.72958      4.43637      8.77438         2.297840      0.000028     -0.826351
      0.00000      5.91516     10.75099        -0.000791     -0.000081     -1.350806
      0.00000      5.91516     13.29975         0.000464     -0.000100     -0.251755
     11.02735      4.43637     12.02537         0.329882     -0.000117      0.059003
      1.97661      4.43637     12.02537        -0.334842      0.000271      0.057315
      9.75297      5.91516     14.00198         0.001526     -0.002764      0.076388
      9.75297      5.91516     16.55075         0.007197     -0.001690     -0.154195
      1.27438      4.43637     15.27636        -0.690447     -0.001744      0.105317
     11.72958      4.43637     15.27636         0.679517     -0.001921      0.122862
      0.01108      5.91540     17.27158         0.010717     -0.002206      0.075694
      0.00324      5.91560     19.82894         0.023277     -0.002344     -0.366982
     11.06661      4.43293     18.53256        -0.069078     -0.003612      0.013486
      1.95876      4.43607     18.54609         0.190540      0.004271      0.025674
      9.82661      5.91589     20.50911        -0.049424     -0.011712     -0.090627
      9.61996      5.91283     23.08580         0.314391      0.008262     -1.119436
      1.23156      4.43730     21.96068        -0.080418     -0.014635     -0.055520
     11.78798      4.44446     21.98796         0.299426     -0.049219     -0.115226
      3.25099      8.87274      7.50000        -0.000765     -0.000130      2.510257
      3.25099      8.87274     10.04876        -0.001149     -0.000190      1.823010
      7.77636      7.39395      8.77438        -2.296639     -0.000441     -0.826911
      5.22760      7.39395      8.77438         2.297157     -0.000442     -0.827013
      6.50198      8.87274     10.75099         0.000184     -0.002450     -1.359902
      6.50198      8.87274     13.29975         0.003071     -0.004728     -0.295125
      4.52537      7.39395     12.02537         0.326829     -0.000811      0.056613
      8.47859      7.39395     12.02537        -0.323330     -0.001141      0.057955
      3.25099      8.87274     14.00198        -0.006936     -0.001274      0.062019
      3.25099      8.87274     16.55075         0.010377     -0.004302     -0.122306
      7.77636      7.39395     15.27636        -0.644384     -0.035298      0.085494
      5.22760      7.39395     15.27636         0.673466     -0.035696      0.106074
      6.51450      8.85769     17.26642         0.010872     -0.085239      0.175045
      6.47925      8.89169     19.79771         0.020757     -0.072101     -0.245341
      4.55411      7.39303     18.54444         0.004368     -0.028295      0.044974
      8.47136      7.39744     18.56260        -0.000948     -0.027548      0.021459
      3.27052      8.86976     20.51836         0.051004     -0.025511      0.139141
      3.26566      8.87052     23.09227         0.006302     -0.023319     -0.357030
      7.76838      7.45064     21.80069        -0.734289     -0.682958      0.444092
      5.30254      7.40118     21.97426         0.405286     -0.401824      0.130876
      3.25099      0.00000      7.50000        -0.000779     -0.000005      2.510238
      3.25099      0.00000     10.04876        -0.001230     -0.000008      1.822446
      7.77636     10.35153      8.77438        -2.296527     -0.000163     -0.826949
      5.22760     10.35153      8.77438         2.297025     -0.000175     -0.827040
      6.50198      0.00000     10.75099         0.000254      0.000514     -1.361183
      6.50198      0.00000     13.29975         0.002434      0.001093     -0.296872
      4.52537     10.35153     12.02537         0.324319     -0.000375      0.056237
      8.47859     10.35153     12.02537        -0.320879      0.000051      0.057734
      3.25099      0.00000     14.00198        -0.006377     -0.001862      0.059597
      3.25099      0.00000     16.55075        -0.001092      0.001249     -0.150256
      7.77636     10.35153     15.27636        -0.642050      0.000283      0.104903
      5.22760     10.35153     15.27636         0.666678     -0.004790      0.115144
      6.50911      0.00176     17.25777         0.008112      0.002601      0.099773
      6.50819     11.82972     19.80570         0.005125      0.004649     -0.334783
      4.55556     10.35429     18.53564        -0.048226     -0.016325      0.028673
      8.46696     10.34994     18.54396         0.088244     -0.006889      0.009880
      3.25894     11.82975     20.51689         0.033508      0.011061      0.142036
      3.25045      0.00004     23.09130         0.018233      0.031376     -0.300896
      7.73402     10.35017     21.93994        -0.294642     -0.044072     -0.118771
      5.28346     10.36284     21.95065         0.212401     -0.065907     -0.094790
      3.25099      2.95758      7.50000        -0.000754      0.000135      2.510173
      3.25099      2.95758     10.04876        -0.001116      0.000199      1.822611
      7.77636      1.47879      8.77438        -2.296525      0.000338     -0.826928
      5.22760      1.47879      8.77438         2.297097      0.000332     -0.827035
      6.50198      2.95758     10.75099         0.000217      0.002460     -1.358846
      6.50198      2.95758     13.29975         0.003009      0.004955     -0.285444
      4.52537      1.47879     12.02537         0.324959      0.000363      0.056231
      8.47859      1.47879     12.02537        -0.321192      0.000621      0.057943
      3.25099      2.95758     14.00198        -0.007151      0.001339      0.058272
      3.25099      2.95758     16.55075         0.012354      0.006301     -0.123479
      7.77636      1.47879     15.27636        -0.641836      0.009065      0.106104
      5.22760      1.47879     15.27636         0.670408      0.011368      0.114696
      6.51340      2.97417     17.26968         0.010405      0.083485      0.180978
      6.49257      2.93875     19.80665         0.009604      0.078077     -0.198377
      4.55661      1.47774     18.54004        -0.045341      0.020483      0.027501
      8.46760      1.48070     18.54277         0.085320      0.010059      0.011848
      3.25802      2.95706     20.51692         0.060160      0.029488      0.166120
      3.26284      2.95984     23.08981         0.044797      0.052542     -0.281212
      7.73462      1.47567     21.94114        -0.302071      0.098768     -0.082407
      5.28233      1.47016     21.94658         0.213168      0.109534     -0.060335
      3.25099      5.91516      7.50000        -0.000746      0.000017      2.510246
      3.25099      5.91516     10.04876        -0.001078      0.000019      1.822872
      7.77636      4.43637      8.77438        -2.296645      0.000276     -0.826900
      5.22760      4.43637      8.77438         2.297227      0.000304     -0.826991
      6.50198      5.91516     10.75099         0.000205     -0.000494     -1.356635
      6.50198      5.91516     13.29975         0.002784     -0.000912     -0.242493
      4.52537      4.43637     12.02537         0.327489      0.000847      0.056601
      8.47859      4.43637     12.02537        -0.323664      0.000508      0.058155
      3.25099      5.91516     14.00198        -0.008358      0.002014      0.059580
      3.25099      5.91516     16.55075         0.012129     -0.001070     -0.118039
      7.77636      4.43637     15.27636        -0.643546      0.028025      0.084989
      5.22760      4.43637     15.27636         0.676548      0.031048      0.104364
      6.51562      5.91365     17.27816         0.007705     -0.000516      0.242878
      6.50312      5.91938     19.84408        -0.070590     -0.043528      0.859059
      4.55504      4.43692     18.55097         0.005305      0.024759      0.044563
      8.47090      4.43605     18.56228        -0.001635      0.020580      0.022514
      3.25647      5.91913     20.51867         0.063100     -0.015484      0.152930
      3.28067      5.91755     23.08969         0.031669     -0.067788     -0.339371
      7.76165      4.39457     21.82934        -0.740763      0.515082      0.426426
      5.28901      4.42482     21.93218         0.449534      0.409297      0.268032
 -----------------------------------------------------------------------------------
    total drift:                                0.071746     -0.000910      0.095204


--------------------------------------------------------------------------------------------------------



  FREE ENERGIE OF THE ION-ELECTRON SYSTEM (eV)
  ---------------------------------------------------
  free  energy   TOTEN  =     -2617.16365462 eV

  energy  without entropy=    -2617.16365462  energy(sigma->0) =    -2617.16365462



--------------------------------------------------------------------------------------------------------


    POTLOK:  cpu time      0.9686: real time      0.9689


--------------------------------------------------------------------------------------------------------


     LOOP+:  cpu time   3329.9251: real time   3332.0884
    4ORBIT:  cpu time      0.0000: real time      0.0000

 total amount of memory used by VASP MPI-rank0   211135. kBytes
=======================================================================

   base      :      30000. kBytes
   nonl-proj :      38092. kBytes
   fftplans  :       4875. kBytes
   grid      :       5359. kBytes
   one-center:        162. kBytes
   HF        :         90. kBytes
   nonlr-proj:      56356. kBytes
   wavefun   :      12435. kBytes
   fock_wrk  :      63766. kBytes

  
  
 General timing and accounting informations for this job:
 ========================================================
  
                  Total CPU time used (sec):     3373.871
                            User time (sec):     3356.322
                          System time (sec):       17.549
                         Elapsed time (sec):     3390.190
  
                   Maximum memory used (kb):      469532.
                   Average memory used (kb):          N/A
  
                          Minor page faults:        88644
                          Major page faults:          550
                 Voluntary context switches:        11074
