 vasp.6.3.0 20Jan22 (build Apr  1 2022 16:44:48) complex                         
 executed on        HPECrayEX_GCC date 2022.11.11  14:06:02
 running 1024 mpi-ranks, with    1 threads/rank
 distrk:  each k-point on 1024 cores,    1 groups
 distr:  one band on NCORE=   8 cores,  128 groups


--------------------------------------------------------------------------------------------------------


 INCAR:
   SYSTEM = MgO-rocksalt
   ISMEAR = 0
   SIGMA = 0.05
   EDIFF = 1E-7
   ALGO = ALL
   ISTART = 0
   IBRION = 2
   NSW = 1000
   ISYM = 0
   ISIF = 2
   EDIFFG = -0.03
   DIPOL = 0.5 0.5 0.5
   IDIPOL = 3
   LDIPOL = .TRUE.
   LHFCALC = .TRUE.
   GGA = PE
   IVDW = 13
   VDW_S8 = 1.2007
   VDW_A1 = 0.4009
   VDW_A2 = 5.0293
   ENCUT = 600
   PREC = Accurate
   LASPH = .TRUE.
   LREAL = .FALSE.
   ISPIN = 2
   MAGMOM = 1.0 0.0 0.0 0.0 0.0 0.0 0.0 0.0 0.0 0.0 0.0 0.0 0.0 0.0 0.0 0.0 0.0 0.0 0.0 0.0 0.0 0.0 0.0 0.0 0.0 0.0 0.0 0.0 0.0 0.0 0.0 0.0 0.0 0.0 0.0 0.0 0.0 0.0 0.0 0.0 0.0 0.0 0.0 0.0 0.0 0.0 0.0 0.0 0.0 0.0 0.0 0.0 0.0 0.0 0.0 0.0 0.0 0.0 0.0 0.0 0.0 0.0 0.0 0.0 0.0 0.0
   NELM = 200
   NELMIN = 8
   NCORE = 8
   KPAR = 1
   LWAVE = .FALSE.
   LCHARG = .FALSE.

 POTCAR:    PAW_PBE N 08Apr2002                   
 POTCAR:    PAW_PBE O 08Apr2002                   
 POTCAR:    PAW_PBE Mg_pv 13Apr2007               
 POTCAR:    PAW_PBE O 08Apr2002                   
 POTCAR:    PAW_PBE N 08Apr2002                   
   SHA256 =  e053789ff3a61a86a1b75d8a110fcc91f86041011e7b0817c7c99e4e8a6349d7 N/POTCAR              
   COPYR  = (c) Copyright 08Apr2002 Georg Kresse                                                    
   COPYR  = This file is part of the software VASP. Any use, copying, and all other rights are regul
   COPYR  = If you do not have a valid VASP license, you may not use, copy or distribute this file. 
   VRHFIN =N: s2p3                                                                                  
   LEXCH  = PE                                                                                      
   EATOM  =   264.5486 eV,   19.4438 Ry                                                             
                                                                                                    
   TITEL  = PAW_PBE N 08Apr2002                                                                     
   LULTRA =        F    use ultrasoft PP ?                                                          
   IUNSCR =        1    unscreen: 0-lin 1-nonlin 2-no                                               
   RPACOR =    1.200    partial core radius                                                         
   POMASS =   14.001; ZVAL   =    5.000    mass and valenz                                          
   RCORE  =    1.500    outmost cutoff radius                                                       
   RWIGS  =    1.400; RWIGS  =    0.741    wigner-seitz radius (au A)                               
   ENMAX  =  400.000; ENMIN  =  300.000 eV                                                          
   ICORE  =        2    local potential                                                             
   LCOR   =        T    correct aug charges                                                         
   LPAW   =        T    paw PP                                                                      
   EAUG   =  627.112                                                                                
   DEXC   =    0.000                                                                                
   RMAX   =    1.529    core radius for proj-oper                                                   
   RAUG   =    1.300    factor for augmentation sphere                                              
   RDEP   =    1.514    radius for radial grids                                                     
   RDEPT  =    1.338    core radius for aug-charge                                                  
                                                                                                    
   Atomic configuration                                                                             
    4 entries                                                                                       
     n  l   j            E        occ.                                                              
     1  0  0.50      -384.7179   2.0000                                                             
     2  0  0.50       -18.5828   2.0000                                                             
     2  1  0.50        -7.0898   3.0000                                                             
     3  2  1.50        -6.8029   0.0000                                                             
   Description                                                                                      
     l       E           TYP  RCUT    TYP  RCUT                                                     
     0    -18.5828119     23  1.200                                                                 
     0    -13.5018863     23  1.200                                                                 
     1     -7.0897853     23  1.500                                                                 
     1      9.5240782     23  1.500                                                                 
     2     -6.8029130      7  1.500                                                                 
  local pseudopotential read in
  partial core-charges read in
  partial kinetic energy density read in
  atomic valenz-charges read in
  non local Contribution for L=           0  read in
    real space projection operators read in
  non local Contribution for L=           0  read in
    real space projection operators read in
  non local Contribution for L=           1  read in
    real space projection operators read in
  non local Contribution for L=           1  read in
    real space projection operators read in
    PAW grid and wavefunctions read in

   number of l-projection  operators is LMAX  =           4
   number of lm-projection operators is LMMAX =           8

 POTCAR:    PAW_PBE O 08Apr2002                   
   SHA256 =  818f92134a0a090dccd8ba1447fa70422a3b330e708bb4f08108d8ae51209ddf O/POTCAR              
   COPYR  = (c) Copyright 08Apr2002 Georg Kresse                                                    
   COPYR  = This file is part of the software VASP. Any use, copying, and all other rights are regul
   COPYR  = If you do not have a valid VASP license, you may not use, copy or distribute this file. 
   VRHFIN =O: s2p4                                                                                  
   LEXCH  = PE                                                                                      
   EATOM  =   432.3788 eV,   31.7789 Ry                                                             
                                                                                                    
   TITEL  = PAW_PBE O 08Apr2002                                                                     
   LULTRA =        F    use ultrasoft PP ?                                                          
   IUNSCR =        1    unscreen: 0-lin 1-nonlin 2-no                                               
   RPACOR =    1.200    partial core radius                                                         
   POMASS =   16.000; ZVAL   =    6.000    mass and valenz                                          
   RCORE  =    1.520    outmost cutoff radius                                                       
   RWIGS  =    1.550; RWIGS  =    0.820    wigner-seitz radius (au A)                               
   ENMAX  =  400.000; ENMIN  =  300.000 eV                                                          
   ICORE  =        2    local potential                                                             
   LCOR   =        T    correct aug charges                                                         
   LPAW   =        T    paw PP                                                                      
   EAUG   =  605.392                                                                                
   DEXC   =    0.000                                                                                
   RMAX   =    1.553    core radius for proj-oper                                                   
   RAUG   =    1.300    factor for augmentation sphere                                              
   RDEP   =    1.550    radius for radial grids                                                     
   RDEPT  =    1.329    core radius for aug-charge                                                  
                                                                                                    
   Atomic configuration                                                                             
    4 entries                                                                                       
     n  l   j            E        occ.                                                              
     1  0  0.50      -514.6923   2.0000                                                             
     2  0  0.50       -23.9615   2.0000                                                             
     2  1  0.50        -9.0305   4.0000                                                             
     3  2  1.50        -9.5241   0.0000                                                             
   Description                                                                                      
     l       E           TYP  RCUT    TYP  RCUT                                                     
     0    -23.9615318     23  1.200                                                                 
     0     -9.5240782     23  1.200                                                                 
     1     -9.0304911     23  1.520                                                                 
     1      8.1634956     23  1.520                                                                 
     2     -9.5240782      7  1.500                                                                 
  local pseudopotential read in
  partial core-charges read in
  partial kinetic energy density read in
  kinetic energy density of atom read in
  atomic valenz-charges read in
  non local Contribution for L=           0  read in
    real space projection operators read in
  non local Contribution for L=           0  read in
    real space projection operators read in
  non local Contribution for L=           1  read in
    real space projection operators read in
  non local Contribution for L=           1  read in
    real space projection operators read in
    PAW grid and wavefunctions read in

   number of l-projection  operators is LMAX  =           4
   number of lm-projection operators is LMMAX =           8

 POTCAR:    PAW_PBE Mg_pv 13Apr2007               
   SHA256 =  f474ac0dd33840b9ae76c01d57fea79fdf77cdfbb07d5ade72c65f83c709b62b Mg_pv/POTCAR          
   COPYR  = (c) Copyright 13Apr2007 Georg Kresse                                                    
   COPYR  = This file is part of the software VASP. Any use, copying, and all other rights are regul
   COPYR  = If you do not have a valid VASP license, you may not use, copy or distribute this file. 
   VRHFIN =Mg: p6s2                                                                                 
   LEXCH  = PE                                                                                      
   EATOM  =  1056.7344 eV,   77.6678 Ry                                                             
                                                                                                    
   TITEL  = PAW_PBE Mg_pv 13Apr2007                                                                 
   LULTRA =        F    use ultrasoft PP ?                                                          
   IUNSCR =        1    unscreen: 0-lin 1-nonlin 2-no                                               
   RPACOR =    1.500    partial core radius                                                         
   POMASS =   24.305; ZVAL   =    8.000    mass and valenz                                          
   RCORE  =    2.000    outmost cutoff radius                                                       
   RWIGS  =    2.000; RWIGS  =    1.058    wigner-seitz radius (au A)                               
   ENMAX  =  403.929; ENMIN  =  302.947 eV                                                          
   RCLOC  =    1.506    cutoff for local pot                                                        
   LCOR   =        T    correct aug charges                                                         
   LPAW   =        T    paw PP                                                                      
   EAUG   =  758.780                                                                                
   DEXC   =    0.000                                                                                
   RMAX   =    2.045    core radius for proj-oper                                                   
   RAUG   =    1.300    factor for augmentation sphere                                              
   RDEP   =    2.025    radius for radial grids                                                     
   RDEPT  =    1.557    core radius for aug-charge                                                  
                                                                                                    
   Atomic configuration                                                                             
    5 entries                                                                                       
     n  l   j            E        occ.                                                              
     1  0  0.50     -1259.6230   2.0000                                                             
     2  0  0.50       -79.8442   2.0000                                                             
     2  1  1.50       -46.6121   6.0000                                                             
     3  0  0.50        -4.7055   2.0000                                                             
     3  2  1.50        -1.3606   0.0000                                                             
   Description                                                                                      
     l       E           TYP  RCUT    TYP  RCUT                                                     
     1    -46.6121073     23  1.600                                                                 
     1      2.7211652     23  1.600                                                                 
     0     -4.7054661     23  2.000                                                                 
     0     61.2262170     23  2.000                                                                 
     2     -1.3605826     23  2.000                                                                 
  local pseudopotential read in
  partial core-charges read in
  partial kinetic energy density read in
  atomic valenz-charges read in
  non local Contribution for L=           1  read in
    real space projection operators read in
  non local Contribution for L=           1  read in
    real space projection operators read in
  non local Contribution for L=           0  read in
    real space projection operators read in
  non local Contribution for L=           0  read in
    real space projection operators read in
  non local Contribution for L=           2  read in
    real space projection operators read in
    PAW grid and wavefunctions read in

   number of l-projection  operators is LMAX  =           5
   number of lm-projection operators is LMMAX =          13

 POTCAR:    PAW_PBE O 08Apr2002                   
   SHA256 =  818f92134a0a090dccd8ba1447fa70422a3b330e708bb4f08108d8ae51209ddf O/POTCAR              
   COPYR  = (c) Copyright 08Apr2002 Georg Kresse                                                    
   COPYR  = This file is part of the software VASP. Any use, copying, and all other rights are regul
   COPYR  = If you do not have a valid VASP license, you may not use, copy or distribute this file. 
   VRHFIN =O: s2p4                                                                                  
   LEXCH  = PE                                                                                      
   EATOM  =   432.3788 eV,   31.7789 Ry                                                             
                                                                                                    
   TITEL  = PAW_PBE O 08Apr2002                                                                     
   LULTRA =        F    use ultrasoft PP ?                                                          
   IUNSCR =        1    unscreen: 0-lin 1-nonlin 2-no                                               
   RPACOR =    1.200    partial core radius                                                         
   POMASS =   16.000; ZVAL   =    6.000    mass and valenz                                          
   RCORE  =    1.520    outmost cutoff radius                                                       
   RWIGS  =    1.550; RWIGS  =    0.820    wigner-seitz radius (au A)                               
   ENMAX  =  400.000; ENMIN  =  300.000 eV                                                          
   ICORE  =        2    local potential                                                             
   LCOR   =        T    correct aug charges                                                         
   LPAW   =        T    paw PP                                                                      
   EAUG   =  605.392                                                                                
   DEXC   =    0.000                                                                                
   RMAX   =    1.553    core radius for proj-oper                                                   
   RAUG   =    1.300    factor for augmentation sphere                                              
   RDEP   =    1.550    radius for radial grids                                                     
   RDEPT  =    1.329    core radius for aug-charge                                                  
                                                                                                    
   Atomic configuration                                                                             
    4 entries                                                                                       
     n  l   j            E        occ.                                                              
     1  0  0.50      -514.6923   2.0000                                                             
     2  0  0.50       -23.9615   2.0000                                                             
     2  1  0.50        -9.0305   4.0000                                                             
     3  2  1.50        -9.5241   0.0000                                                             
   Description                                                                                      
     l       E           TYP  RCUT    TYP  RCUT                                                     
     0    -23.9615318     23  1.200                                                                 
     0     -9.5240782     23  1.200                                                                 
     1     -9.0304911     23  1.520                                                                 
     1      8.1634956     23  1.520                                                                 
     2     -9.5240782      7  1.500                                                                 
  local pseudopotential read in
  partial core-charges read in
  partial kinetic energy density read in
  kinetic energy density of atom read in
  atomic valenz-charges read in
  non local Contribution for L=           0  read in
    real space projection operators read in
  non local Contribution for L=           0  read in
    real space projection operators read in
  non local Contribution for L=           1  read in
    real space projection operators read in
  non local Contribution for L=           1  read in
    real space projection operators read in
    PAW grid and wavefunctions read in

   number of l-projection  operators is LMAX  =           4
   number of lm-projection operators is LMMAX =           8

 -----------------------------------------------------------------------------
|                                                                             |
|               ----> ADVICE to this user running VASP <----                  |
|                                                                             |
|     You have a (more or less) 'large supercell' and for larger cells it     |
|     might be more efficient to use real-space projection operators.         |
|     Therefore, try LREAL= Auto in the INCAR file.                           |
|     Mind: For very accurate calculation, you might also keep the            |
|     reciprocal projection scheme (i.e. LREAL=.FALSE.).                      |
|                                                                             |
 -----------------------------------------------------------------------------

  PAW_PBE N 08Apr2002                   :
 energy of atom  1       EATOM= -264.5486
 kinetic energy error for atom=    0.0103 (will be added to EATOM!!)
  PAW_PBE O 08Apr2002                   :
 energy of atom  2       EATOM= -432.3788
 kinetic energy error for atom=    0.0168 (will be added to EATOM!!)
  PAW_PBE Mg_pv 13Apr2007               :
 energy of atom  3       EATOM=-1056.7344
 kinetic energy error for atom=    0.0221 (will be added to EATOM!!)
  PAW_PBE O 08Apr2002                   :
 energy of atom  4       EATOM= -432.3788
 kinetic energy error for atom=    0.0168 (will be added to EATOM!!)


 POSCAR:  N  O Mg  O
  positions in direct lattice
  velocities in cartesian coordinates
 -----------------------------------------------------------------------------
|                                                                             |
|           W    W    AA    RRRRR   N    N  II  N    N   GGGG   !!!           |
|           W    W   A  A   R    R  NN   N  II  NN   N  G    G  !!!           |
|           W    W  A    A  R    R  N N  N  II  N N  N  G       !!!           |
|           W WW W  AAAAAA  RRRRR   N  N N  II  N  N N  G  GGG   !            |
|           WW  WW  A    A  R   R   N   NN  II  N   NN  G    G                |
|           W    W  A    A  R    R  N    N  II  N    N   GGGG   !!!           |
|                                                                             |
|     Specifying the vdW parameters                                           |
|     VDW_S8 = 1.201                                                          |
|     VDW_A1 = 0.401                                                          |
|     VDW_A2 = 5.029                                                          |
|     in the INCAR file will overwrite the defaults for pbe0. Please make     |
|     sure that is what you intended.                                         |
|                                                                             |
 -----------------------------------------------------------------------------

 exchange correlation table for  LEXCH =        8
   RHO(1)=    0.500       N(1)  =     2000
   RHO(2)=  100.500       N(2)  =     4000



--------------------------------------------------------------------------------------------------------


 ion  position               nearest neighbor table
   1  0.504  0.250  0.771-   2 1.16
   2  0.637  0.250  0.786-   1 1.16
   3  0.250  0.000  0.353-  37 2.09  38 2.09  45 2.09  54 2.09  35 2.09
   4  0.500  0.250  0.353-  37 2.09  38 2.09  46 2.09  53 2.09  36 2.09
   5  0.250  0.250  0.451-  35 2.09  36 2.09  43 2.09  52 2.09  37 2.09  41 2.09
   6  0.500  0.000  0.451-  35 2.09  36 2.09  44 2.09  51 2.09  38 2.09  42 2.09
   7  0.250  0.000  0.550-  41 2.09  58 2.09  49 2.09  42 2.09  35 2.10  39 2.12
   8  0.500  0.250  0.549-  41 2.09  42 2.09  50 2.09  57 2.09  36 2.10  40 2.13
   9  0.249  0.250  0.648-  56 2.08  41 2.09  39 2.09  47 2.09  40 2.10
  10  0.499  0.999  0.647-  48 2.08  42 2.08  39 2.09  55 2.09  40 2.09
  11  0.250  0.500  0.353-  37 2.09  45 2.09  46 2.09  62 2.09  43 2.09
  12  0.500  0.750  0.353-  38 2.09  45 2.09  46 2.09  61 2.09  44 2.09
  13  0.250  0.750  0.451-  35 2.09  43 2.09  44 2.09  60 2.09  45 2.09  49 2.09
  14  0.500  0.500  0.451-  36 2.09  43 2.09  44 2.09  59 2.09  46 2.09  50 2.09
  15  0.250  0.500  0.550-  41 2.09  66 2.09  49 2.09  50 2.09  43 2.10  47 2.12
  16  0.500  0.750  0.550-  49 2.09  65 2.09  50 2.09  42 2.09  44 2.10  48 2.12
  17  0.249  0.750  0.647-  49 2.08  64 2.09  47 2.09  39 2.09  48 2.09
  18  0.499  0.501  0.647-  48 2.08  50 2.08  47 2.09  63 2.09  40 2.09
  19  0.750  0.000  0.353-  38 2.09  53 2.09  54 2.09  61 2.09  51 2.09
  20  0.000  0.250  0.353-  37 2.09  53 2.09  54 2.09  62 2.09  52 2.09
  21  0.750  0.250  0.451-  36 2.09  51 2.09  52 2.09  59 2.09  53 2.09  57 2.09
  22  0.000  0.000  0.451-  35 2.09  51 2.09  52 2.09  60 2.09  54 2.09  58 2.09
  23  0.750  1.000  0.550-  65 2.09  42 2.09  58 2.09  57 2.09  51 2.10  55 2.12
  24  0.000  0.250  0.550-  41 2.09  66 2.09  58 2.09  57 2.09  52 2.10  56 2.12
  25  0.751  0.250  0.647-  57 2.08  56 2.08  55 2.09  63 2.09  40 2.10
  26  1.000  1.000  0.647-  58 2.08  64 2.09  39 2.09  56 2.09  55 2.09
  27  0.750  0.500  0.353-  46 2.09  53 2.09  61 2.09  62 2.09  59 2.09
  28  0.000  0.750  0.353-  45 2.09  54 2.09  61 2.09  62 2.09  60 2.09
  29  0.750  0.750  0.451-  44 2.09  51 2.09  59 2.09  60 2.09  61 2.09  65 2.09
  30  0.000  0.500  0.451-  43 2.09  52 2.09  59 2.09  60 2.09  62 2.09  66 2.09
  31  0.750  0.500  0.550-  65 2.09  50 2.09  66 2.09  57 2.09  59 2.10  63 2.12
  32  1.000  0.750  0.550-  49 2.09  66 2.09  58 2.09  65 2.09  60 2.10  64 2.12
  33  0.750  0.750  0.647-  65 2.08  64 2.09  48 2.09  55 2.09  63 2.09
  34  1.000  0.500  0.647-  66 2.08  64 2.09  47 2.09  56 2.09  63 2.09
  35  0.250  0.000  0.451-   5 2.09   6 2.09  13 2.09  22 2.09   3 2.09   7 2.10
  36  0.500  0.250  0.451-   5 2.09   6 2.09  14 2.09  21 2.09   4 2.09   8 2.10
  37  0.250  0.250  0.353-   3 2.09   4 2.09  11 2.09  20 2.09   5 2.09
  38  0.500  0.000  0.353-   3 2.09   4 2.09  12 2.09  19 2.09   6 2.09
  39  0.250  0.000  0.649-  10 2.09   9 2.09  17 2.09  26 2.09   7 2.12
  40  0.500  0.250  0.649-  18 2.09  10 2.09   9 2.10  25 2.10   8 2.13
  41  0.250  0.250  0.549-   8 2.09   9 2.09  24 2.09   7 2.09  15 2.09   5 2.09
  42  0.500  0.000  0.549-  10 2.08   8 2.09  23 2.09   7 2.09  16 2.09   6 2.09
  43  0.250  0.500  0.451-   5 2.09  13 2.09  14 2.09  30 2.09  11 2.09  15 2.10
  44  0.500  0.750  0.451-   6 2.09  13 2.09  14 2.09  29 2.09  12 2.09  16 2.10
  45  0.250  0.750  0.353-   3 2.09  11 2.09  12 2.09  28 2.09  13 2.09
  46  0.500  0.500  0.353-   4 2.09  11 2.09  12 2.09  27 2.09  14 2.09
  47  0.250  0.500  0.649-  18 2.09   9 2.09  17 2.09  34 2.09  15 2.12
  48  0.500  0.750  0.649-  18 2.08  10 2.08  33 2.09  17 2.09  16 2.12
  49  0.250  0.750  0.549-  17 2.08  16 2.09  32 2.09   7 2.09  15 2.09  13 2.09
  50  0.500  0.500  0.549-  18 2.08   8 2.09  31 2.09  15 2.09  16 2.09  14 2.09
  51  0.750  0.000  0.451-   6 2.09  21 2.09  22 2.09  29 2.09  19 2.09  23 2.10
  52  0.000  0.250  0.451-   5 2.09  21 2.09  22 2.09  30 2.09  20 2.09  24 2.10
  53  0.750  0.250  0.353-   4 2.09  19 2.09  20 2.09  27 2.09  21 2.09
  54  0.000  0.000  0.353-   3 2.09  19 2.09  20 2.09  28 2.09  22 2.09
  55  0.749  0.000  0.649-  25 2.09  10 2.09  26 2.09  33 2.09  23 2.12
  56  1.000  0.250  0.649-  25 2.08   9 2.08  26 2.09  34 2.09  24 2.12
  57  0.750  0.250  0.549-  25 2.08   8 2.09  31 2.09  23 2.09  24 2.09  21 2.09
  58  1.000  0.000  0.549-  26 2.08   7 2.09  24 2.09  23 2.09  32 2.09  22 2.09
  59  0.750  0.500  0.451-  14 2.09  21 2.09  29 2.09  30 2.09  27 2.09  31 2.10
  60  0.000  0.750  0.451-  13 2.09  22 2.09  29 2.09  30 2.09  28 2.09  32 2.10
  61  0.750  0.750  0.353-  12 2.09  19 2.09  27 2.09  28 2.09  29 2.09
  62  0.000  0.500  0.353-  11 2.09  20 2.09  27 2.09  28 2.09  30 2.09
  63  0.749  0.500  0.649-  25 2.09  18 2.09  34 2.09  33 2.09  31 2.12
  64  1.000  0.750  0.649-  26 2.09  34 2.09  17 2.09  33 2.09  32 2.12
  65  0.750  0.750  0.549-  33 2.08  31 2.09  23 2.09  16 2.09  32 2.09  29 2.09
  66  1.000  0.500  0.549-  34 2.08  15 2.09  24 2.09  31 2.09  32 2.09  30 2.09


IMPORTANT INFORMATION: All symmetrisations will be switched off!
NOSYMM: (Re-)initialisation of all symmetry stuff for point group C_1.


----------------------------------------------------------------------------------------

                                     Primitive cell                                     

  volume of cell :    1482.1129

  direct lattice vectors                    reciprocal lattice vectors
     8.349111827  0.000000000  0.000000000     0.119773219  0.000000000  0.000000000
     0.000000000  8.349111827  0.000000000     0.000000000  0.119773219  0.000000000
     0.000000000  0.000000000 21.261833870     0.000000000  0.000000000  0.047032632

  length of vectors
     8.349111827  8.349111827 21.261833870     0.119773219  0.119773219  0.047032632

  position of ions in fractional coordinates (direct lattice)
     0.503724492  0.249995843  0.771163550
     0.637494189  0.250001939  0.785797175
     0.250000000  0.000000000  0.352744737
     0.500000000  0.250000000  0.352744737
     0.250000000  0.250000000  0.450914912
     0.500000000  0.000000000  0.450914912
     0.249731329  0.000036179  0.549677619
     0.499717006  0.250000175  0.549450589
     0.249113738  0.250000033  0.647509634
     0.499446662  0.999191583  0.647284810
     0.250000000  0.500000000  0.352744737
     0.500000000  0.750000000  0.352744737
     0.250000000  0.750000000  0.450914912
     0.500000000  0.500000000  0.450914912
     0.249731266  0.499963771  0.549677599
     0.499714285  0.750000092  0.549609040
     0.249438758  0.749999943  0.647246679
     0.499446591  0.500809392  0.647284041
     0.750000000  0.000000000  0.352744737
     0.000000000  0.250000000  0.352744737
     0.750000000  0.250000000  0.450914912
     0.000000000  0.000000000  0.450914912
     0.749760830  0.999924416  0.549692025
     0.000027863  0.249999989  0.549606963
     0.751230592  0.249999765  0.646894238
     0.999641651  0.999840370  0.647349605
     0.750000000  0.500000000  0.352744737
     0.000000000  0.750000000  0.352744737
     0.750000000  0.750000000  0.450914912
     0.000000000  0.500000000  0.450914912
     0.749760881  0.500075481  0.549692030
     0.999805518  0.749999976  0.549674061
     0.749699184  0.749999944  0.647301769
     0.999641681  0.500159562  0.647349593
     0.250000000  0.000000000  0.450914912
     0.500000000  0.250000000  0.450914912
     0.250000000  0.250000000  0.352744737
     0.500000000  0.000000000  0.352744737
     0.249697809  0.000050347  0.649315606
     0.500129402  0.250002275  0.649484958
     0.249952471  0.249999951  0.549409548
     0.499791764  0.000137190  0.549368732
     0.250000000  0.500000000  0.450914912
     0.500000000  0.750000000  0.450914912
     0.250000000  0.750000000  0.352744737
     0.500000000  0.500000000  0.352744737
     0.249697704  0.499949741  0.649315605
     0.499639283  0.750000056  0.649342039
     0.249795616  0.749999989  0.549302993
     0.499791793  0.499863187  0.549368494
     0.750000000  0.000000000  0.450914912
     0.000000000  0.250000000  0.450914912
     0.750000000  0.250000000  0.352744737
     0.000000000  0.000000000  0.352744737
     0.749477053  0.000189309  0.649377049
     0.999864245  0.249999956  0.649306691
     0.749736683  0.249999967  0.549301954
     0.999754382  0.000022026  0.549336892
     0.750000000  0.500000000  0.450914912
     0.000000000  0.750000000  0.450914912
     0.750000000  0.750000000  0.352744737
     0.000000000  0.500000000  0.352744737
     0.749477105  0.499810467  0.649377342
     0.999591835  0.749999975  0.649413952
     0.749756552  0.749999925  0.549334847
     0.999754333  0.499977944  0.549336886

  ion indices of the primitive-cell ions
   primitive index   ion index
                 1           1
                 2           2
                 3           3
                 4           4
                 5           5
                 6           6
                 7           7
                 8           8
                 9           9
                10          10
                11          11
                12          12
                13          13
                14          14
                15          15
                16          16
                17          17
                18          18
                19          19
                20          20
                21          21
                22          22
                23          23
                24          24
                25          25
                26          26
                27          27
                28          28
                29          29
                30          30
                31          31
                32          32
                33          33
                34          34
                35          35
                36          36
                37          37
                38          38
                39          39
                40          40
                41          41
                42          42
                43          43
                44          44
                45          45
                46          46
                47          47
                48          48
                49          49
                50          50
                51          51
                52          52
                53          53
                54          54
                55          55
                56          56
                57          57
                58          58
                59          59
                60          60
                61          61
                62          62
                63          63
                64          64
                65          65
                66          66

----------------------------------------------------------------------------------------



 KPOINTS: pymatgen v2020.8.13 with grid density = 

Automatic generation of k-mesh.
 Grid dimensions read from file:
 generate k-points for:    2    2    1

 Generating k-lattice:

  Cartesian coordinates                     Fractional coordinates (reciprocal lattice)
     0.059886610  0.000000000  0.000000000     0.500000000  0.000000000  0.000000000
     0.000000000  0.059886610  0.000000000     0.000000000  0.500000000  0.000000000
     0.000000000  0.000000000  0.047032632     0.000000000  0.000000000  1.000000000

  Length of vectors
     0.059886610  0.059886610  0.047032632

  Shift w.r.t. Gamma in fractional coordinates (k-lattice)
     0.000000000  0.000000000  0.000000000

 
 Subroutine IBZKPT returns following result:
 ===========================================
 
 Found      4 irreducible k-points:
 
 Following reciprocal coordinates:
            Coordinates               Weight
  0.000000  0.000000  0.000000      1.000000
  0.500000  0.000000  0.000000      1.000000
  0.000000  0.500000  0.000000      1.000000
  0.500000  0.500000  0.000000      1.000000
 
 Following cartesian coordinates:
            Coordinates               Weight
  0.000000  0.000000  0.000000      1.000000
  0.059887  0.000000  0.000000      1.000000
  0.000000  0.059887  0.000000      1.000000
  0.059887  0.059887  0.000000      1.000000
 
 
 Subroutine IBZKPT_HF returns following result:
 ==============================================
 
 Found      4 k-points in 1st BZ
 the following      4 k-points will be used (e.g. in the exchange kernel)
 Following reciprocal coordinates:   # in IRBZ
  0.000000  0.000000  0.000000    0.25000000   1 t-inv F
  0.500000  0.000000  0.000000    0.25000000   2 t-inv F
  0.000000  0.500000  0.000000    0.25000000   3 t-inv F
  0.500000  0.500000  0.000000    0.25000000   4 t-inv F


--------------------------------------------------------------------------------------------------------




 Dimension of arrays:
   k-points           NKPTS =      4   k-points in BZ     NKDIM =      4   number of bands    NBANDS=    384
   number of dos      NEDOS =    301   number of ions     NIONS =     66
   non local maximal  LDIM  =      5   non local SUM 2l+1 LMDIM =     13
   total plane-waves  NPLWV = 882000
   max r-space proj   IRMAX =      1   max aug-charges    IRDMAX=  11926
   dimension x,y,z NGX =    70 NGY =   70 NGZ =  180
   dimension x,y,z NGXF=   140 NGYF=  140 NGZF=  360
   support grid    NGXF=   140 NGYF=  140 NGZF=  360
   ions per type =               1   1  32  32
   NGX,Y,Z   is equivalent  to a cutoff of  13.94, 13.94, 14.07 a.u.
   NGXF,Y,Z  is equivalent  to a cutoff of  27.88, 27.88, 28.15 a.u.

 SYSTEM =  MgO-rocksalt                            
 POSCAR =   N  O Mg  O                             

--------------------------------------------------------------------------------------------------------


  energy-cutoff  :      600.00
  volume of cell :     1482.11
      direct lattice vectors                 reciprocal lattice vectors
     8.349111827  0.000000000  0.000000000     0.119773219  0.000000000  0.000000000
     0.000000000  8.349111827  0.000000000     0.000000000  0.119773219  0.000000000
     0.000000000  0.000000000 21.261833870     0.000000000  0.000000000  0.047032632

  length of vectors
     8.349111827  8.349111827 21.261833870     0.119773219  0.119773219  0.047032632



 k-points in units of 2pi/SCALE and weight: pymatgen v2020.8.13 with grid density = 
   0.00000000  0.00000000  0.00000000       0.250
   0.05988661  0.00000000  0.00000000       0.250
   0.00000000  0.05988661  0.00000000       0.250
   0.05988661  0.05988661  0.00000000       0.250

 k-points in reciprocal lattice and weights: pymatgen v2020.8.13 with grid density = 
   0.00000000  0.00000000  0.00000000       0.250
   0.50000000  0.00000000  0.00000000       0.250
   0.00000000  0.50000000  0.00000000       0.250
   0.50000000  0.50000000  0.00000000       0.250

 position of ions in fractional coordinates (direct lattice) 
   0.50372449  0.24999584  0.77116355
   0.63749419  0.25000194  0.78579717
   0.25000000  0.00000000  0.35274474
   0.50000000  0.25000000  0.35274474
   0.25000000  0.25000000  0.45091491
   0.50000000  0.00000000  0.45091491
   0.24973133  0.00003618  0.54967762
   0.49971701  0.25000018  0.54945059
   0.24911374  0.25000003  0.64750963
   0.49944666  0.99919158  0.64728481
   0.25000000  0.50000000  0.35274474
   0.50000000  0.75000000  0.35274474
   0.25000000  0.75000000  0.45091491
   0.50000000  0.50000000  0.45091491
   0.24973127  0.49996377  0.54967760
   0.49971429  0.75000009  0.54960904
   0.24943876  0.74999994  0.64724668
   0.49944659  0.50080939  0.64728404
   0.75000000  0.00000000  0.35274474
   0.00000000  0.25000000  0.35274474
   0.75000000  0.25000000  0.45091491
   0.00000000  0.00000000  0.45091491
   0.74976083  0.99992442  0.54969203
   0.00002786  0.24999999  0.54960696
   0.75123059  0.24999976  0.64689424
   0.99964165  0.99984037  0.64734960
   0.75000000  0.50000000  0.35274474
   0.00000000  0.75000000  0.35274474
   0.75000000  0.75000000  0.45091491
   0.00000000  0.50000000  0.45091491
   0.74976088  0.50007548  0.54969203
   0.99980552  0.74999998  0.54967406
   0.74969918  0.74999994  0.64730177
   0.99964168  0.50015956  0.64734959
   0.25000000  0.00000000  0.45091491
   0.50000000  0.25000000  0.45091491
   0.25000000  0.25000000  0.35274474
   0.50000000  0.00000000  0.35274474
   0.24969781  0.00005035  0.64931561
   0.50012940  0.25000228  0.64948496
   0.24995247  0.24999995  0.54940955
   0.49979176  0.00013719  0.54936873
   0.25000000  0.50000000  0.45091491
   0.50000000  0.75000000  0.45091491
   0.25000000  0.75000000  0.35274474
   0.50000000  0.50000000  0.35274474
   0.24969770  0.49994974  0.64931560
   0.49963928  0.75000006  0.64934204
   0.24979562  0.74999999  0.54930299
   0.49979179  0.49986319  0.54936849
   0.75000000  0.00000000  0.45091491
   0.00000000  0.25000000  0.45091491
   0.75000000  0.25000000  0.35274474
   0.00000000  0.00000000  0.35274474
   0.74947705  0.00018931  0.64937705
   0.99986424  0.24999996  0.64930669
   0.74973668  0.24999997  0.54930195
   0.99975438  0.00002203  0.54933689
   0.75000000  0.50000000  0.45091491
   0.00000000  0.75000000  0.45091491
   0.75000000  0.75000000  0.35274474
   0.00000000  0.50000000  0.35274474
   0.74947711  0.49981047  0.64937734
   0.99959183  0.74999998  0.64941395
   0.74975655  0.74999993  0.54933485
   0.99975433  0.49997794  0.54933689

 position of ions in cartesian coordinates  (Angst):
   4.20565211  2.08724325 16.39635129
   5.32251027  2.08729414 16.70748898
   2.08727796  0.00000000  7.50000000
   4.17455591  2.08727796  7.50000000
   2.08727796  2.08727796  9.58727796
   4.17455591  0.00000000  9.58727796
   2.08503479  0.00030206 11.68715422
   4.17219316  2.08727942 11.68232714
   2.07987845  2.08727823 13.76724227
   4.16993603  8.34236226 13.76246210
   2.08727796  4.17455591  7.50000000
   4.17455591  6.26183387  7.50000000
   2.08727796  6.26183387  9.58727796
   4.17455591  4.17455591  9.58727796
   2.08503427  4.17425343 11.68715378
   4.17217045  6.26183464 11.68569609
   2.08259208  6.26183340 13.76165135
   4.16993544  4.18131362 13.76244574
   6.26183387  0.00000000  7.50000000
   0.00000000  2.08727796  7.50000000
   6.26183387  2.08727796  9.58727796
   0.00000000  0.00000000  9.58727796
   6.25983701  8.34848077 11.68746052
   0.00023264  2.08727787 11.68565194
   6.27210822  2.08727599 13.75415782
   8.34611993  8.34777906 13.76383975
   6.26183387  4.17455591  7.50000000
   0.00000000  6.26183387  7.50000000
   6.26183387  6.26183387  9.58727796
   0.00000000  4.17455591  9.58727796
   6.25983744  4.17518611 11.68746062
   8.34748807  6.26183367 11.68707856
   6.25932232  6.26183341 13.76282267
   8.34612018  4.17588811 13.76383950
   2.08727796  0.00000000  9.58727796
   4.17455591  2.08727796  9.58727796
   2.08727796  2.08727796  7.50000000
   4.17455591  0.00000000  7.50000000
   2.08475493  0.00042035 13.80564055
   4.17563631  2.08729695 13.80924127
   2.08688114  2.08727755 11.68145453
   4.17281733  0.00114542 11.68058672
   2.08727796  4.17455591  9.58727796
   4.17455591  6.26183387  9.58727796
   2.08727796  6.26183387  7.50000000
   4.17455591  4.17455591  7.50000000
   2.08475405  4.17413629 13.80564052
   4.17154425  6.26183434 13.80620257
   2.08557153  6.26183378 11.67918899
   4.17281757  4.17341365 11.68058166
   6.26183387  0.00000000  9.58727796
   0.00000000  2.08727796  9.58727796
   6.26183387  2.08727796  7.50000000
   0.00000000  0.00000000  7.50000000
   6.25746772  0.00158057 13.80694693
   8.34797839  2.08727759 13.80545099
   6.25963541  2.08727768 11.67916689
   8.34706113  0.00018389 11.67990974
   6.26183387  4.17455591  9.58727796
   0.00000000  6.26183387  9.58727796
   6.26183387  6.26183387  7.50000000
   0.00000000  4.17455591  7.50000000
   6.25746816  4.17297349 13.80695317
   8.34570401  6.26183366 13.80773156
   6.25980129  6.26183324 11.67986626
   8.34706072  4.17437177 11.67990960



--------------------------------------------------------------------------------------------------------

--------------------------------------- Iteration      FINAL  ---------------------------------------


--------------------OUTCAR has been truncated-------------------------


--------------------OUTCAR has been truncated-------------------------


--------------------OUTCAR has been truncated-------------------------


--------------------OUTCAR has been truncated-------------------------


--------------------OUTCAR has been truncated-------------------------


--------------------OUTCAR has been truncated-------------------------


--------------------OUTCAR has been truncated-------------------------


--------------------OUTCAR has been truncated-------------------------


--------------------OUTCAR has been truncated-------------------------


--------------------OUTCAR has been truncated-------------------------


    FORVDW:  cpu time      5.1996: real time      5.3114

  FORCE on cell =-STRESS in cart. coord.  units (eV):
  Direction    XX          YY          ZZ          XY          YZ          ZX
  --------------------------------------------------------------------------------------
  Alpha Z   933.41042   933.41042   933.41042
  Ewald  163604.25522163252.79726************     0.01554     0.00421    92.71042
  Hartree173847.69852173709.54408************     0.00083     0.01973    38.36677
  E(xc)   -1895.83906 -1896.45076 -1899.36692     0.00003    -0.00001     0.16788
  Local  ************************347172.27636    -0.00512    -0.05962  -124.32275
  n-local  -745.78245  -742.01104  -760.79052     0.00257    -0.01039    -2.81240
  augment   833.01484   834.92917   821.76790    -0.00101     0.00358     0.02796
  Kinetic  7546.40310  7585.49284  7594.20532    -0.01341     0.04433    -3.23792
  Fock    -2524.00558 -2522.52960 -2517.31486     0.00054    -0.00234    -0.79213
  vdW        -9.20032    -9.19525    -6.40469    -0.00000    -0.00000     0.00156
  -------------------------------------------------------------------------------------
  Total     -30.17889   -30.20091    -1.81735    -0.00003    -0.00052     0.10939
  in kB     -32.62365   -32.64746    -1.96457    -0.00003    -0.00056     0.11825
  external pressure =      -22.41 kB  Pullay stress =        0.00 kB


 VOLUME and BASIS-vectors are now :
 -----------------------------------------------------------------------------
  energy-cutoff  :      600.00
  volume of cell :     1482.11
      direct lattice vectors                 reciprocal lattice vectors
     8.349111827  0.000000000  0.000000000     0.119773219  0.000000000  0.000000000
     0.000000000  8.349111827  0.000000000     0.000000000  0.119773219  0.000000000
     0.000000000  0.000000000 21.261833870     0.000000000  0.000000000  0.047032632

  length of vectors
     8.349111827  8.349111827 21.261833870     0.119773219  0.119773219  0.047032632


 FORCES acting on ions:
    Electron-Ion                     Ewald-Force                    Non-Local-Force
 -----------------------------------------------------------------------------------------------
   0.262E+03 0.898E-02 -.126E+04   -.305E+03 -.140E-01 0.124E+04   0.394E+02 0.392E-02 0.956E+01
   -.246E+03 -.102E-01 -.157E+04   0.305E+03 0.139E-01 0.158E+04   -.506E+02 -.290E-02 -.146E+02
   0.228E+00 0.273E+00 0.214E+04   -.232E+00 -.275E+00 -.213E+04   0.209E-02 0.142E-02 -.683E+01
   0.117E+00 0.723E-04 0.214E+04   -.117E+00 -.717E-04 -.213E+04   0.129E-03 -.274E-06 -.682E+01
   0.122E+01 0.222E-03 0.743E+03   -.124E+01 -.227E-03 -.743E+03   0.122E-01 0.286E-05 0.444E+00
   0.442E+00 0.150E+01 0.743E+03   -.449E+00 -.151E+01 -.744E+03   0.370E-02 0.823E-02 0.434E+00
   0.440E+01 0.487E+01 -.650E+03   -.442E+01 -.487E+01 0.650E+03   0.144E-01 -.811E-02 -.279E+00
   0.305E+01 0.173E-02 -.635E+03   -.309E+01 -.163E-02 0.635E+03   0.362E-01 -.680E-04 0.116E+00
   0.306E+02 0.744E-03 -.202E+04   -.310E+02 -.730E-03 0.201E+04   0.381E+00 -.134E-04 0.585E+01
   0.108E+02 0.377E+02 -.201E+04   -.109E+02 -.381E+02 0.200E+04   0.340E-01 0.343E+00 0.583E+01
   0.228E+00 -.273E+00 0.214E+04   -.232E+00 0.275E+00 -.213E+04   0.209E-02 -.142E-02 -.683E+01
   0.923E-01 -.713E-04 0.214E+04   -.922E-01 0.715E-04 -.213E+04   -.123E-04 -.478E-06 -.682E+01
   0.839E+00 -.228E-03 0.741E+03   -.864E+00 0.228E-03 -.741E+03   0.154E-01 0.113E-06 0.400E+00
   0.442E+00 -.150E+01 0.743E+03   -.449E+00 0.151E+01 -.744E+03   0.369E-02 -.824E-02 0.434E+00
   0.440E+01 -.487E+01 -.650E+03   -.442E+01 0.487E+01 0.650E+03   0.144E-01 0.809E-02 -.279E+00
   0.143E+01 -.152E-02 -.650E+03   -.143E+01 0.152E-02 0.650E+03   0.757E-02 0.208E-04 -.211E+00
   0.103E+02 -.637E-03 -.205E+04   -.103E+02 0.638E-03 0.205E+04   0.416E-01 0.105E-04 0.580E+01
   0.108E+02 -.377E+02 -.201E+04   -.109E+02 0.381E+02 0.200E+04   0.340E-01 -.343E+00 0.583E+01
   -.231E+00 0.296E+00 0.214E+04   0.233E+00 -.299E+00 -.213E+04   -.132E-02 0.176E-02 -.683E+01
   -.116E+00 0.368E-04 0.214E+04   0.116E+00 -.362E-04 -.213E+04   0.205E-03 -.242E-06 -.682E+01
   -.128E+01 0.208E-03 0.744E+03   0.130E+01 -.207E-03 -.745E+03   -.687E-02 -.497E-06 0.420E+00
   -.457E+00 0.110E+01 0.741E+03   0.442E+00 -.112E+01 -.742E+03   0.887E-02 0.919E-02 0.408E+00
   -.457E+01 0.641E+01 -.646E+03   0.458E+01 -.645E+01 0.646E+03   -.813E-02 0.289E-01 -.247E+00
   -.281E+01 0.147E-03 -.647E+03   0.287E+01 -.176E-03 0.648E+03   -.554E-01 0.174E-04 -.223E+00
   -.365E+02 0.390E-03 -.198E+04   0.371E+02 -.570E-03 0.197E+04   -.483E+00 0.114E-03 0.593E+01
   -.873E+01 0.150E+02 -.205E+04   0.877E+01 -.151E+02 0.204E+04   -.315E-01 0.425E-01 0.581E+01
   -.231E+00 -.296E+00 0.214E+04   0.233E+00 0.299E+00 -.213E+04   -.132E-02 -.176E-02 -.683E+01
   -.932E-01 -.369E-04 0.214E+04   0.921E-01 0.362E-04 -.213E+04   0.709E-03 0.661E-06 -.683E+01
   -.885E+00 -.217E-03 0.742E+03   0.890E+00 0.207E-03 -.742E+03   -.398E-02 0.601E-05 0.412E+00
   -.457E+00 -.110E+01 0.741E+03   0.442E+00 0.112E+01 -.742E+03   0.887E-02 -.919E-02 0.408E+00
   -.457E+01 -.641E+01 -.646E+03   0.458E+01 0.645E+01 0.646E+03   -.815E-02 -.289E-01 -.247E+00
   -.140E+01 -.180E-03 -.656E+03   0.140E+01 0.206E-03 0.656E+03   -.402E-02 -.156E-04 -.210E+00
   -.109E+02 -.185E-04 -.205E+04   0.109E+02 0.178E-03 0.204E+04   -.306E-01 -.110E-03 0.581E+01
   -.873E+01 -.150E+02 -.205E+04   0.877E+01 0.151E+02 0.204E+04   -.316E-01 -.425E-01 0.581E+01
   0.706E+00 0.842E+00 0.556E+03   -.701E+00 -.854E+00 -.556E+03   -.511E-02 0.140E-01 -.108E+00
   0.401E+00 0.332E-03 0.559E+03   -.386E+00 -.336E-03 -.558E+03   -.159E-01 0.268E-05 -.488E-01
   0.190E+00 0.400E-04 0.161E+04   -.192E+00 -.401E-04 -.161E+04   0.336E-02 -.153E-06 0.301E+01
   0.795E-01 0.231E+00 0.161E+04   -.786E-01 -.234E+00 -.161E+04   -.112E-02 0.324E-02 0.301E+01
   0.152E+02 0.154E+02 -.155E+04   -.152E+02 -.154E+02 0.156E+04   0.266E-01 -.116E-01 -.458E+01
   0.161E+02 0.172E-02 -.147E+04   -.161E+02 -.270E-02 0.148E+04   -.300E-02 0.105E-02 -.419E+01
   0.402E+01 0.426E-03 -.479E+03   -.404E+01 -.450E-03 0.479E+03   0.211E-01 0.278E-04 0.199E+00
   0.172E+01 0.504E+01 -.477E+03   -.172E+01 -.505E+01 0.477E+03   0.442E-02 0.133E-01 0.262E+00
   0.706E+00 -.842E+00 0.556E+03   -.701E+00 0.854E+00 -.556E+03   -.513E-02 -.140E-01 -.108E+00
   0.234E+00 -.333E-03 0.556E+03   -.220E+00 0.310E-03 -.556E+03   -.145E-01 0.292E-04 -.844E-01
   0.157E+00 -.404E-04 0.161E+04   -.160E+00 0.400E-04 -.161E+04   0.304E-02 -.830E-07 0.300E+01
   0.795E-01 -.231E+00 0.161E+04   -.786E-01 0.234E+00 -.161E+04   -.112E-02 -.324E-02 0.301E+01
   0.152E+02 -.154E+02 -.155E+04   -.152E+02 0.154E+02 0.156E+04   0.266E-01 0.116E-01 -.458E+01
   0.410E+01 -.114E-02 -.155E+04   -.412E+01 0.129E-02 0.156E+04   0.174E-01 -.145E-03 -.455E+01
   0.252E+01 -.388E-03 -.484E+03   -.253E+01 0.393E-03 0.484E+03   0.971E-02 -.681E-05 0.272E+00
   0.172E+01 -.504E+01 -.477E+03   -.172E+01 0.505E+01 0.477E+03   0.444E-02 -.132E-01 0.262E+00
   -.768E+00 0.988E+00 0.557E+03   0.790E+00 -.992E+00 -.556E+03   -.254E-01 0.502E-02 -.113E+00
   -.398E+00 0.828E-04 0.556E+03   0.395E+00 -.857E-04 -.556E+03   0.314E-02 0.336E-05 -.861E-01
   -.191E+00 0.397E-04 0.161E+04   0.194E+00 -.378E-04 -.161E+04   -.364E-02 -.132E-05 0.301E+01
   -.776E-01 0.198E+00 0.161E+04   0.774E-01 -.201E+00 -.161E+04   0.177E-03 0.320E-02 0.300E+01
   -.167E+02 0.248E+02 -.154E+04   0.166E+02 -.249E+02 0.154E+04   0.318E-01 0.117E-01 -.460E+01
   -.115E+02 0.226E-04 -.155E+04   0.116E+02 -.529E-04 0.155E+04   -.841E-01 0.419E-04 -.458E+01
   -.416E+01 0.291E-03 -.472E+03   0.416E+01 -.325E-03 0.472E+03   0.875E-03 0.397E-04 0.366E+00
   -.153E+01 0.338E+01 -.483E+03   0.152E+01 -.338E+01 0.483E+03   0.979E-02 0.971E-04 0.248E+00
   -.768E+00 -.988E+00 0.557E+03   0.790E+00 0.992E+00 -.556E+03   -.254E-01 -.503E-02 -.113E+00
   -.272E+00 -.878E-04 0.555E+03   0.284E+00 0.914E-04 -.555E+03   -.131E-01 -.461E-05 -.115E+00
   -.157E+00 -.384E-04 0.161E+04   0.160E+00 0.376E-04 -.161E+04   -.382E-02 0.657E-06 0.300E+01
   -.776E-01 -.198E+00 0.161E+04   0.774E-01 0.201E+00 -.161E+04   0.178E-03 -.320E-02 0.300E+01
   -.167E+02 -.248E+02 -.154E+04   0.166E+02 0.249E+02 0.154E+04   0.318E-01 -.117E-01 -.460E+01
   -.363E+01 -.927E-04 -.156E+04   0.361E+01 0.108E-03 0.157E+04   0.118E-01 -.226E-04 -.455E+01
   -.253E+01 -.238E-03 -.483E+03   0.253E+01 0.268E-03 0.483E+03   -.190E-02 -.368E-04 0.266E+00
   -.153E+01 -.338E+01 -.483E+03   0.152E+01 0.338E+01 0.483E+03   0.977E-02 -.103E-03 0.248E+00
 -----------------------------------------------------------------------------------------------
   0.155E+02 -.253E-02 0.264E+02   0.497E-12 -.369E-13 0.284E-12   -.112E+02 0.244E-02 -.220E+02


 POSITION                                       TOTAL-FORCE (eV/Angst)
 -----------------------------------------------------------------------------------
      4.20565      2.08724     16.39635        -0.013099     -0.000673      0.003048
      5.32251      2.08729     16.70749        -0.011527      0.000277      0.026875
      2.08728      0.00000      7.50000        -0.000833     -0.000651      0.427057
      4.17456      2.08728      7.50000         0.000072     -0.000001      0.423955
      2.08728      2.08728      9.58728        -0.006235     -0.000003      0.053081
      4.17456      0.00000      9.58728        -0.002490     -0.004637      0.053543
      2.08503      0.00030     11.68715        -0.000212     -0.000453      0.007919
      4.17219      2.08728     11.68233         0.001672      0.000016      0.001473
      2.07988      2.08728     13.76724         0.001271     -0.000001      0.013223
      4.16994      8.34236     13.76246         0.002152     -0.002473      0.013475
      2.08728      4.17456      7.50000        -0.000833      0.000649      0.427054
      4.17456      6.26183      7.50000         0.000077     -0.000002      0.426164
      2.08728      6.26183      9.58728        -0.007536     -0.000000      0.056940
      4.17456      4.17456      9.58728        -0.002488      0.004643      0.053533
      2.08503      4.17425     11.68715        -0.000216      0.000454      0.007907
      4.17217      6.26183     11.68570         0.005076      0.000016      0.004612
      2.08259      6.26183     13.76165         0.007983      0.000011      0.016961
      4.16994      4.18131     13.76245         0.002127      0.002585      0.013277
      6.26183      0.00000      7.50000         0.000654     -0.000736      0.427580
      0.00000      2.08728      7.50000        -0.000084     -0.000001      0.426304
      6.26183      2.08728      9.58728         0.003895     -0.000001      0.052121
      0.00000      0.00000      9.58728        -0.004930     -0.004148      0.059055
      6.25984      8.34848     11.68746         0.004504     -0.002807     -0.003200
      0.00023      2.08728     11.68565         0.002344     -0.000009      0.001843
      6.27211      2.08728     13.75416         0.007816     -0.000047      0.008703
      8.34612      8.34778     13.76384         0.007065      0.004953      0.008685
      6.26183      4.17456      7.50000         0.000654      0.000733      0.427580
      0.00000      6.26183      7.50000        -0.000231     -0.000001      0.428672
      6.26183      6.26183      9.58728         0.001211     -0.000004      0.057716
      0.00000      4.17456      9.58728        -0.004933      0.004146      0.059049
      6.25984      4.17519     11.68746         0.004507      0.002803     -0.003228
      8.34749      6.26183     11.68708        -0.002725      0.000006     -0.003839
      6.25932      6.26183     13.76282         0.001448      0.000031      0.010863
      8.34612      4.17589     13.76384         0.007087     -0.004951      0.008685
      2.08728      0.00000      9.58728        -0.000931      0.004738      0.062494
      4.17456      2.08728      9.58728        -0.004522     -0.000001      0.057027
      2.08728      2.08728      7.50000         0.001181     -0.000001     -0.563610
      4.17456      0.00000      7.50000        -0.000378      0.001124     -0.563627
      2.08475      0.00042     13.80564         0.004811     -0.000241     -0.001308
      4.17564      2.08730     13.80924         0.001678      0.000270     -0.006421
      2.08688      2.08728     11.68145         0.008275      0.000008      0.000427
      4.17282      0.00115     11.68059        -0.000246      0.001607      0.004899
      2.08728      4.17456      9.58728        -0.000938     -0.004742      0.062494
      4.17456      6.26183      9.58728        -0.003953      0.000010      0.063481
      2.08728      6.26183      7.50000         0.001047     -0.000001     -0.565178
      4.17456      4.17456      7.50000        -0.000379     -0.001126     -0.563627
      2.08475      4.17414     13.80564         0.004817      0.000255     -0.001298
      4.17154      6.26183     13.80620         0.001732     -0.000018      0.000040
      2.08557      6.26183     11.67919         0.001684     -0.000005      0.009287
      4.17282      4.17341     11.68058        -0.000240     -0.001569      0.004882
      6.26183      0.00000      9.58728        -0.007980      0.001955      0.062154
      0.00000      2.08728      9.58728         0.000752     -0.000000      0.062576
      6.26183      2.08728      7.50000        -0.001235     -0.000001     -0.563749
      0.00000      0.00000      7.50000         0.000074      0.001095     -0.565342
      6.25747      0.00158     13.80695         0.003663      0.001585     -0.003443
      8.34798      2.08728     13.80545        -0.004378      0.000018     -0.004995
      6.25964      2.08728     11.67917         0.000695      0.000012      0.007869
      8.34706      0.00018     11.67991         0.000581     -0.000695      0.006408
      6.26183      4.17456      9.58728        -0.007974     -0.001960      0.062153
      0.00000      6.26183      9.58728        -0.004064     -0.000003      0.059651
      6.26183      6.26183      7.50000        -0.001296     -0.000001     -0.565476
      0.00000      4.17456      7.50000         0.000074     -0.001097     -0.565342
      6.25747      4.17297     13.80695         0.003653     -0.001604     -0.003360
      8.34570      6.26183     13.80773         0.001100     -0.000013     -0.000068
      6.25980      6.26183     11.67987        -0.001121     -0.000015      0.007894
      8.34706      4.17437     11.67991         0.000574      0.000691      0.006426
 -----------------------------------------------------------------------------------
    total drift:                               -0.002036      0.000069      0.003158


--------------------------------------------------------------------------------------------------------



  FREE ENERGIE OF THE ION-ELECTRON SYSTEM (eV)
  ---------------------------------------------------
  free  energy   TOTEN  =      -489.87700613 eV

  energy  without entropy=     -489.87700613  energy(sigma->0) =     -489.87700613



--------------------------------------------------------------------------------------------------------


    POTLOK:  cpu time      0.7475: real time      0.7476


--------------------------------------------------------------------------------------------------------




--------------------------------------------------------------------------------------------------------


  
 reached required accuracy - stopping structural energy minimisation
     LOOP+:  cpu time   7039.4625: real time   7040.7632
    4ORBIT:  cpu time      0.0000: real time      0.0000

 total amount of memory used by VASP MPI-rank0   214955. kBytes
=======================================================================

   base      :      30000. kBytes
   nonl-proj :      17059. kBytes
   fftplans  :       8074. kBytes
   grid      :      13952. kBytes
   one-center:        146. kBytes
   HF        :        101. kBytes
   nonlr-proj:      16765. kBytes
   wavefun   :       7371. kBytes
   fock_wrk  :     121487. kBytes

  
  
 General timing and accounting informations for this job:
 ========================================================
  
                  Total CPU time used (sec):     7107.345
                            User time (sec):     7093.374
                          System time (sec):       13.970
                         Elapsed time (sec):     7135.951
  
                   Maximum memory used (kb):      489992.
                   Average memory used (kb):          N/A
  
                          Minor page faults:       368662
                          Major page faults:           50
                 Voluntary context switches:        26828
