 vasp.6.4.2 20Jul23 (build Feb 22 2024 13:53:45) complex                         
 executed on              LinuxNV date 2024.08.27  14:59:43
 running    4 mpi-ranks, with    1 threads/rank, on    1 nodes
 distrk:  each k-point on    4 cores,    1 groups
 distr:  one band on NCORE=   1 cores,    4 groups
 OpenACC runtime initialized ...    4 GPUs detected


--------------------------------------------------------------------------------------------------------


 INCAR:
   SYSTEM = Oxide-Surface
   ISMEAR = 0
   SIGMA = 0.05
   EDIFF = 1E-5
   ALGO = Normal
   IBRION = -1
   NSW = 0
   ISYM = 0
   DIPOL = 0.5 0.5 0.5
   IDIPOL = 3
   LDIPOL = .TRUE.
   ISTART = 1
   GGA = PE
   IVDW = 11
   ENCUT = 1000
   PREC = Normal
   PRECFOCK = Normal
   LASPH = .TRUE.
   LREAL = Auto
   ISPIN = 1
   NELM = 200
   NELMIN = 8
   NCORE = 1
   KPAR = 1
   LWAVE = .FALSE.
   LCHARG = .FALSE.

 POTCAR:    PAW_PBE C_h 06Feb2004                 
 POTCAR:    PAW_PBE O_h 06Feb2004                 
 POTCAR:    PAW_PBE Mg_sv 12Apr2007               
 POTCAR:    PAW_PBE O_h 06Feb2004                 
 POTCAR:    PAW_PBE C_h 06Feb2004                 
   SHA256 =  1e4d9ea6ed5f132c831b2a321be9195311c7bc5a92c5663cac630aa85140ff5b C_h/POTCAR            
   COPYR  = (c) Copyright 06Feb2004 Georg Kresse                                                    
   COPYR  = This file is part of the software VASP. Any use, copying, and all other rights are regul
   COPYR  = If you do not have a valid VASP license, you may not use, copy or distribute this file. 
   VRHFIN =C: s2p2                                                                                  
   LEXCH  = PE                                                                                      
   EATOM  =   147.1560 eV,   10.8157 Ry                                                             
                                                                                                    
   TITEL  = PAW_PBE C_h 06Feb2004                                                                   
   LULTRA =        F    use ultrasoft PP ?                                                          
   IUNSCR =        1    unscreen: 0-lin 1-nonlin 2-no                                               
   RPACOR =    0.800    partial core radius                                                         
   POMASS =   12.011; ZVAL   =    4.000    mass and valenz                                          
   RCORE  =    1.100    outmost cutoff radius                                                       
   RWIGS  =    1.630; RWIGS  =    0.863    wigner-seitz radius (au A)                               
   ENMAX  =  700.000; ENMIN  =  500.000 eV                                                          
   ICORE  =        2    local potential                                                             
   LCOR   =        T    correct aug charges                                                         
   LPAW   =        T    paw PP                                                                      
   EAUG   =  946.768                                                                                
   DEXC   =    0.000                                                                                
   RMAX   =    1.128    core radius for proj-oper                                                   
   RAUG   =    1.300    factor for augmentation sphere                                              
   RDEP   =    1.162    radius for radial grids                                                     
   RDEPT  =    1.088    core radius for aug-charge                                                  
                                                                                                    
   Atomic configuration                                                                             
    4 entries                                                                                       
     n  l   j            E        occ.                                                              
     1  0  0.50      -273.3789   2.0000                                                             
     2  0  0.50       -13.7508   2.0000                                                             
     2  1  0.50        -5.2854   2.0000                                                             
     3  2  1.50        -5.4423   0.0000                                                             
   Description                                                                                      
     l       E           TYP  RCUT    TYP  RCUT                                                     
     0    -13.7508458     23  1.100                                                                 
     0     -8.2022199     23  1.100                                                                 
     1     -5.2854383     23  1.100                                                                 
     1      1.1560700     23  1.100                                                                 
     2     -5.4423304      7  1.100                                                                 
  local pseudopotential read in
  partial core-charges read in
  partial kinetic energy density read in
  atomic valenz-charges read in
  non local Contribution for L=            0  read in
    real space projection operators read in
  non local Contribution for L=            0  read in
    real space projection operators read in
  non local Contribution for L=            1  read in
    real space projection operators read in
  non local Contribution for L=            1  read in
    real space projection operators read in
    PAW grid and wavefunctions read in
 
   number of l-projection  operators is LMAX  =            4
   number of lm-projection operators is LMMAX =            8
 
 POTCAR:    PAW_PBE O_h 06Feb2004                 
   SHA256 =  7d3976308dcfb86c51a8aa000428ccf502aeca0a26316d98530ed0719b164db2 O_h/POTCAR            
   COPYR  = (c) Copyright 06Feb2004 Georg Kresse                                                    
   COPYR  = This file is part of the software VASP. Any use, copying, and all other rights are regul
   COPYR  = If you do not have a valid VASP license, you may not use, copy or distribute this file. 
   VRHFIN =O: s2p4                                                                                  
   LEXCH  = PE                                                                                      
   EATOM  =   432.3788 eV,   31.7789 Ry                                                             
                                                                                                    
   TITEL  = PAW_PBE O_h 06Feb2004                                                                   
   LULTRA =        F    use ultrasoft PP ?                                                          
   IUNSCR =        1    unscreen: 0-lin 1-nonlin 2-no                                               
   RPACOR =    0.800    partial core radius                                                         
   POMASS =   16.000; ZVAL   =    6.000    mass and valenz                                          
   RCORE  =    1.100    outmost cutoff radius                                                       
   RWIGS  =    1.400; RWIGS  =    0.741    wigner-seitz radius (au A)                               
   ENMAX  =  700.000; ENMIN  =  500.000 eV                                                          
   ICORE  =        2    local potential                                                             
   LCOR   =        T    correct aug charges                                                         
   LPAW   =        T    paw PP                                                                      
   EAUG   =  888.804                                                                                
   DEXC   =    0.000                                                                                
   RMAX   =    1.128    core radius for proj-oper                                                   
   RAUG   =    1.300    factor for augmentation sphere                                              
   RDEP   =    1.125    radius for radial grids                                                     
   RDEPT  =    1.088    core radius for aug-charge                                                  
                                                                                                    
   Atomic configuration                                                                             
    4 entries                                                                                       
     n  l   j            E        occ.                                                              
     1  0  0.50      -514.6923   2.0000                                                             
     2  0  0.50       -23.9615   2.0000                                                             
     2  1  0.50        -9.0305   4.0000                                                             
     3  2  1.50        -9.5241   0.0000                                                             
   Description                                                                                      
     l       E           TYP  RCUT    TYP  RCUT                                                     
     0    -23.9615319     23  1.100                                                                 
     0    -25.3221145     23  1.100                                                                 
     1     -9.0304911     23  1.100                                                                 
     1     -5.4802209     23  1.100                                                                 
     2     -9.5240782      7  1.100                                                                 
  local pseudopotential read in
  partial core-charges read in
  partial kinetic energy density read in
  atomic valenz-charges read in
  non local Contribution for L=            0  read in
    real space projection operators read in
  non local Contribution for L=            0  read in
    real space projection operators read in
  non local Contribution for L=            1  read in
    real space projection operators read in
  non local Contribution for L=            1  read in
    real space projection operators read in
    PAW grid and wavefunctions read in
 
   number of l-projection  operators is LMAX  =            4
   number of lm-projection operators is LMMAX =            8
 
 POTCAR:    PAW_PBE Mg_sv 12Apr2007               
   SHA256 =  c031e1d7f73808198b463395d641520b61dff8900336e561361552d85f4fc16c Mg_sv/POTCAR          
   COPYR  = (c) Copyright 12Apr2007 Georg Kresse                                                    
   COPYR  = This file is part of the software VASP. Any use, copying, and all other rights are regul
   COPYR  = If you do not have a valid VASP license, you may not use, copy or distribute this file. 
   VRHFIN =Mg: p6s2                                                                                 
   LEXCH  = PE                                                                                      
   EATOM  =  1728.4457 eV,  127.0372 Ry                                                             
                                                                                                    
   TITEL  = PAW_PBE Mg_sv 12Apr2007                                                                 
   LULTRA =        F    use ultrasoft PP ?                                                          
   IUNSCR =        0    unscreen: 0-lin 1-nonlin 2-no                                               
   RPACOR =    0.000    partial core radius                                                         
   POMASS =   24.305; ZVAL   =   10.000    mass and valenz                                          
   RCORE  =    1.700    outmost cutoff radius                                                       
   RWIGS  =    1.800; RWIGS  =    0.953    wigner-seitz radius (au A)                               
   ENMAX  =  495.223; ENMIN  =  371.417 eV                                                          
   RCLOC  =    1.506    cutoff for local pot                                                        
   LCOR   =        T    correct aug charges                                                         
   LPAW   =        T    paw PP                                                                      
   EAUG   =  980.156                                                                                
   RMAX   =    1.743    core radius for proj-oper                                                   
   RAUG   =    1.300    factor for augmentation sphere                                              
   RDEP   =    1.781    radius for radial grids                                                     
   RDEPT  =    1.300    core radius for aug-charge                                                  
                                                                                                    
   Atomic configuration                                                                             
    5 entries                                                                                       
     n  l   j            E        occ.                                                              
     1  0  0.50     -1259.6230   2.0000                                                             
     2  0  0.50       -79.8442   2.0000                                                             
     3  0  0.50        -4.7055   2.0000                                                             
     2  1  1.50       -46.6121   6.0000                                                             
     3  2  1.50        -1.3606   0.0000                                                             
   Description                                                                                      
     l       E           TYP  RCUT    TYP  RCUT                                                     
     0    -79.8442259     23  1.200                                                                 
     0     -4.7054661     23  1.700                                                                 
     1    -46.6121068     23  1.500                                                                 
     1      6.8029130     23  1.500                                                                 
     2     -1.3605826     23  1.700                                                                 
  local pseudopotential read in
  atomic valenz-charges read in
  non local Contribution for L=            0  read in
    real space projection operators read in
  non local Contribution for L=            0  read in
    real space projection operators read in
  non local Contribution for L=            1  read in
    real space projection operators read in
  non local Contribution for L=            1  read in
    real space projection operators read in
  non local Contribution for L=            2  read in
    real space projection operators read in
    PAW grid and wavefunctions read in
 
   number of l-projection  operators is LMAX  =            5
   number of lm-projection operators is LMMAX =           13
 
 POTCAR:    PAW_PBE O_h 06Feb2004                 
   SHA256 =  7d3976308dcfb86c51a8aa000428ccf502aeca0a26316d98530ed0719b164db2 O_h/POTCAR            
   COPYR  = (c) Copyright 06Feb2004 Georg Kresse                                                    
   COPYR  = This file is part of the software VASP. Any use, copying, and all other rights are regul
   COPYR  = If you do not have a valid VASP license, you may not use, copy or distribute this file. 
   VRHFIN =O: s2p4                                                                                  
   LEXCH  = PE                                                                                      
   EATOM  =   432.3788 eV,   31.7789 Ry                                                             
                                                                                                    
   TITEL  = PAW_PBE O_h 06Feb2004                                                                   
   LULTRA =        F    use ultrasoft PP ?                                                          
   IUNSCR =        1    unscreen: 0-lin 1-nonlin 2-no                                               
   RPACOR =    0.800    partial core radius                                                         
   POMASS =   16.000; ZVAL   =    6.000    mass and valenz                                          
   RCORE  =    1.100    outmost cutoff radius                                                       
   RWIGS  =    1.400; RWIGS  =    0.741    wigner-seitz radius (au A)                               
   ENMAX  =  700.000; ENMIN  =  500.000 eV                                                          
   ICORE  =        2    local potential                                                             
   LCOR   =        T    correct aug charges                                                         
   LPAW   =        T    paw PP                                                                      
   EAUG   =  888.804                                                                                
   DEXC   =    0.000                                                                                
   RMAX   =    1.128    core radius for proj-oper                                                   
   RAUG   =    1.300    factor for augmentation sphere                                              
   RDEP   =    1.125    radius for radial grids                                                     
   RDEPT  =    1.088    core radius for aug-charge                                                  
                                                                                                    
   Atomic configuration                                                                             
    4 entries                                                                                       
     n  l   j            E        occ.                                                              
     1  0  0.50      -514.6923   2.0000                                                             
     2  0  0.50       -23.9615   2.0000                                                             
     2  1  0.50        -9.0305   4.0000                                                             
     3  2  1.50        -9.5241   0.0000                                                             
   Description                                                                                      
     l       E           TYP  RCUT    TYP  RCUT                                                     
     0    -23.9615319     23  1.100                                                                 
     0    -25.3221145     23  1.100                                                                 
     1     -9.0304911     23  1.100                                                                 
     1     -5.4802209     23  1.100                                                                 
     2     -9.5240782      7  1.100                                                                 
  local pseudopotential read in
  partial core-charges read in
  partial kinetic energy density read in
  atomic valenz-charges read in
  non local Contribution for L=            0  read in
    real space projection operators read in
  non local Contribution for L=            0  read in
    real space projection operators read in
  non local Contribution for L=            1  read in
    real space projection operators read in
  non local Contribution for L=            1  read in
    real space projection operators read in
    PAW grid and wavefunctions read in
 
   number of l-projection  operators is LMAX  =            4
   number of lm-projection operators is LMMAX =            8
 
 Optimization of the real space projectors (new method)

 maximal supplied QI-value         = 34.20
 optimisation between [QCUT,QGAM] = [ 16.08, 32.15] = [ 72.37,289.48] Ry 
 Optimized for a Real-space Cutoff    0.71 Angstroem

   l    n(q)    QCUT    max X(q) W(low)/X(q) W(high)/X(q)  e(spline) 
   0      7    16.076   134.812    0.49E-03    0.92E-03    0.59E-07
   0      7    16.076    80.524    0.48E-03    0.91E-03    0.58E-07
   1      6    16.076    79.026    0.37E-03    0.58E-03    0.12E-06
   1      6    16.076    45.188    0.36E-03    0.56E-03    0.12E-06
 Optimization of the real space projectors (new method)

 maximal supplied QI-value         = 34.20
 optimisation between [QCUT,QGAM] = [ 16.08, 32.15] = [ 72.37,289.48] Ry 
 Optimized for a Real-space Cutoff    0.71 Angstroem

   l    n(q)    QCUT    max X(q) W(low)/X(q) W(high)/X(q)  e(spline) 
   0      7    16.076   280.207    0.42E-03    0.69E-03    0.60E-07
   0      7    16.076   228.978    0.42E-03    0.69E-03    0.61E-07
   1      6    16.076    86.127    0.11E-03    0.66E-03    0.10E-06
   1      6    16.076    65.368    0.11E-03    0.65E-03    0.10E-06
 Optimization of the real space projectors (new method)

 maximal supplied QI-value         = 22.11
 optimisation between [QCUT,QGAM] = [ 16.14, 32.28] = [ 72.95,291.79] Ry 
 Optimized for a Real-space Cutoff    0.98 Angstroem

   l    n(q)    QCUT    max X(q) W(low)/X(q) W(high)/X(q)  e(spline) 
   0      9    16.140     8.730    0.14E-04    0.12E-04    0.27E-07
   0      9    16.140     8.910    0.19E-04    0.17E-04    0.41E-07
   1      9    16.140     2.513    0.16E-04    0.28E-04    0.54E-07
   1      9    16.140     3.341    0.27E-04    0.13E-03    0.17E-06
   2      9    16.140     3.683    0.18E-03    0.21E-03    0.81E-07
 Optimization of the real space projectors (new method)

 maximal supplied QI-value         = 34.20
 optimisation between [QCUT,QGAM] = [ 16.08, 32.15] = [ 72.37,289.48] Ry 
 Optimized for a Real-space Cutoff    0.71 Angstroem

   l    n(q)    QCUT    max X(q) W(low)/X(q) W(high)/X(q)  e(spline) 
   0      7    16.076   280.207    0.42E-03    0.69E-03    0.60E-07
   0      7    16.076   228.978    0.42E-03    0.69E-03    0.61E-07
   1      6    16.076    86.127    0.11E-03    0.66E-03    0.10E-06
   1      6    16.076    65.368    0.11E-03    0.65E-03    0.10E-06
  PAW_PBE C_h 06Feb2004                 :
 energy of atom  1       EATOM= -147.1560
 kinetic energy error for atom=    0.0031 (will be added to EATOM!!)
  PAW_PBE O_h 06Feb2004                 :
 energy of atom  2       EATOM= -432.3788
 kinetic energy error for atom=    0.0171 (will be added to EATOM!!)
  PAW_PBE Mg_sv 12Apr2007               :
 energy of atom  3       EATOM=-1728.4457
 kinetic energy error for atom=    0.0076 (will be added to EATOM!!)
  PAW_PBE O_h 06Feb2004                 :
 energy of atom  4       EATOM= -432.3788
 kinetic energy error for atom=    0.0171 (will be added to EATOM!!)
 
 
 POSCAR:  C  O Mg  O
  positions in direct lattice
  No initial velocities read in
 exchange correlation table for  LEXCH =        8
   RHO(1)=    0.500       N(1)  =     2000
   RHO(2)=  100.500       N(2)  =     4000
 


--------------------------------------------------------------------------------------------------------


 ion  position               nearest neighbor table
   1  0.624  0.624  0.726-   2 1.15
   2  0.624  0.624  0.793-   1 1.15
   3  0.124  0.874  0.207-
   4  0.374  0.124  0.207-
   5  0.124  0.124  0.331-
   6  0.374  0.874  0.331-
   7  0.124  0.874  0.456-
   8  0.374  0.124  0.456-
   9  0.124  0.124  0.580-
  10  0.374  0.875  0.579-
  11  0.124  0.374  0.207-
  12  0.374  0.624  0.207-
  13  0.124  0.624  0.331-
  14  0.374  0.374  0.331-
  15  0.124  0.374  0.456-
  16  0.375  0.624  0.456-
  17  0.124  0.624  0.580-
  18  0.374  0.374  0.579-
  19  0.624  0.874  0.207-
  20  0.874  0.124  0.207-
  21  0.624  0.124  0.331-
  22  0.874  0.874  0.331-
  23  0.624  0.874  0.456-
  24  0.874  0.124  0.456-
  25  0.624  0.124  0.580-
  26  0.875  0.875  0.579-
  27  0.624  0.374  0.207-
  28  0.874  0.624  0.207-
  29  0.624  0.624  0.331-
  30  0.874  0.374  0.331-
  31  0.624  0.375  0.456-
  32  0.874  0.624  0.456-
  33  0.624  0.624  0.582-
  34  0.875  0.374  0.579-
  35  0.124  0.874  0.331-
  36  0.374  0.124  0.331-
  37  0.124  0.124  0.207-
  38  0.374  0.874  0.207-
  39  0.124  0.875  0.583-
  40  0.374  0.124  0.583-
  41  0.124  0.124  0.456-
  42  0.374  0.874  0.456-
  43  0.124  0.374  0.331-
  44  0.374  0.624  0.331-
  45  0.124  0.624  0.207-
  46  0.374  0.374  0.207-
  47  0.124  0.374  0.583-
  48  0.373  0.624  0.582-
  49  0.124  0.624  0.456-
  50  0.374  0.374  0.456-
  51  0.624  0.874  0.331-
  52  0.874  0.124  0.331-
  53  0.624  0.124  0.207-
  54  0.874  0.874  0.207-
  55  0.624  0.876  0.582-
  56  0.875  0.124  0.583-
  57  0.624  0.124  0.456-
  58  0.874  0.874  0.456-
  59  0.624  0.374  0.331-
  60  0.874  0.624  0.331-
  61  0.624  0.624  0.207-
  62  0.874  0.374  0.207-
  63  0.624  0.373  0.582-
  64  0.876  0.624  0.582-
  65  0.624  0.624  0.456-
  66  0.874  0.374  0.456-
 

IMPORTANT INFORMATION: All symmetrisations will be switched off!
NOSYMM: (Re-)initialisation of all symmetry stuff for point group C_1.


----------------------------------------------------------------------------------------

                                     Primitive cell                                     

  volume of cell :    1211.2538

  direct lattice vectors                    reciprocal lattice vectors
     8.440984654  0.000000000  0.000000000     0.118469591  0.000000000  0.000000000
     0.000000000  8.440984654  0.000000000     0.000000000  0.118469591  0.000000000
     0.000000000  0.000000000 17.000000000     0.000000000  0.000000000  0.058823529

  length of vectors
     8.440984654  8.440984654 17.000000000     0.118469591  0.118469591  0.058823529

  position of ions in fractional coordinates (direct lattice)
     0.624411355  0.624411355  0.725657141
     0.624411355  0.624411355  0.793117130
     0.124411355  0.874411355  0.206882870
     0.374411355  0.124411355  0.206882870
     0.124411355  0.124411355  0.331014998
     0.374411355  0.874411355  0.331014998
     0.124411355  0.874350623  0.455922972
     0.374472087  0.124411355  0.455922972
     0.124411355  0.124411355  0.579719137
     0.374269682  0.874553028  0.579498600
     0.124411355  0.374411355  0.206882870
     0.374411355  0.624411355  0.206882870
     0.124411355  0.624411355  0.331014998
     0.374411355  0.374411355  0.331014998
     0.124411355  0.374472087  0.455922972
     0.374789734  0.624411355  0.456093975
     0.124411355  0.624411355  0.579555984
     0.374269682  0.374269682  0.579498600
     0.624411355  0.874411355  0.206882870
     0.874411355  0.124411355  0.206882870
     0.624411355  0.124411355  0.331014998
     0.874411355  0.874411355  0.331014998
     0.624411355  0.874032976  0.456093975
     0.874350623  0.124411355  0.455922972
     0.624411355  0.124411355  0.579555984
     0.874553028  0.874553028  0.579498600
     0.624411355  0.374411355  0.206882870
     0.874411355  0.624411355  0.206882870
     0.624411355  0.624411355  0.331014998
     0.874411355  0.374411355  0.331014998
     0.624411355  0.374789734  0.456093975
     0.874032976  0.624411355  0.456093975
     0.624411355  0.624411355  0.582067590
     0.874553028  0.374269682  0.579498600
     0.124411355  0.874411355  0.331014998
     0.374411355  0.124411355  0.331014998
     0.124411355  0.124411355  0.206882870
     0.374411355  0.874411355  0.206882870
     0.124411355  0.874629888  0.582522179
     0.374192822  0.124411355  0.582522179
     0.124411355  0.124411355  0.455579988
     0.374357125  0.874465584  0.455641750
     0.124411355  0.374411355  0.331014998
     0.374411355  0.624411355  0.331014998
     0.124411355  0.624411355  0.206882870
     0.374411355  0.374411355  0.206882870
     0.124411355  0.374192822  0.582522179
     0.373234064  0.624411355  0.582401242
     0.124411355  0.624411355  0.455520732
     0.374357125  0.374357125  0.455641750
     0.624411355  0.874411355  0.331014998
     0.874411355  0.124411355  0.331014998
     0.624411355  0.124411355  0.206882870
     0.874411355  0.874411355  0.206882870
     0.624411355  0.875588645  0.582401242
     0.874629888  0.124411355  0.582522179
     0.624411355  0.124411355  0.455520732
     0.874465584  0.874465584  0.455641750
     0.624411355  0.374411355  0.331014998
     0.874411355  0.624411355  0.331014998
     0.624411355  0.624411355  0.206882870
     0.874411355  0.374411355  0.206882870
     0.624411355  0.373234064  0.582401242
     0.875588645  0.624411355  0.582401242
     0.624411355  0.624411355  0.456108822
     0.874465584  0.374357125  0.455641750

  ion indices of the primitive-cell ions
   primitive index   ion index
                 1           1
                 2           2
                 3           3
                 4           4
                 5           5
                 6           6
                 7           7
                 8           8
                 9           9
                10          10
                11          11
                12          12
                13          13
                14          14
                15          15
                16          16
                17          17
                18          18
                19          19
                20          20
                21          21
                22          22
                23          23
                24          24
                25          25
                26          26
                27          27
                28          28
                29          29
                30          30
                31          31
                32          32
                33          33
                34          34
                35          35
                36          36
                37          37
                38          38
                39          39
                40          40
                41          41
                42          42
                43          43
                44          44
                45          45
                46          46
                47          47
                48          48
                49          49
                50          50
                51          51
                52          52
                53          53
                54          54
                55          55
                56          56
                57          57
                58          58
                59          59
                60          60
                61          61
                62          62
                63          63
                64          64
                65          65
                66          66

----------------------------------------------------------------------------------------

 
 
 KPOINTS: pymatgen v2020.8.13 with grid density = 

Automatic generation of k-mesh.
 Grid dimensions read from file:
 generate k-points for:    2    2    1

 Generating k-lattice:

  Cartesian coordinates                     Fractional coordinates (reciprocal lattice)
     0.059234796  0.000000000  0.000000000     0.500000000  0.000000000  0.000000000
     0.000000000  0.059234796  0.000000000     0.000000000  0.500000000  0.000000000
     0.000000000  0.000000000  0.058823529     0.000000000  0.000000000  1.000000000

  Length of vectors
     0.059234796  0.059234796  0.058823529

  Shift w.r.t. Gamma in fractional coordinates (k-lattice)
     0.000000000  0.000000000  0.000000000

 
 Subroutine IBZKPT returns following result:
 ===========================================
 
 Found      4 irreducible k-points:
 
 Following reciprocal coordinates:
            Coordinates               Weight
  0.000000  0.000000  0.000000      1.000000
  0.500000  0.000000  0.000000      1.000000
  0.000000  0.500000  0.000000      1.000000
  0.500000  0.500000  0.000000      1.000000
 
 Following cartesian coordinates:
            Coordinates               Weight
  0.000000  0.000000  0.000000      1.000000
  0.059235  0.000000  0.000000      1.000000
  0.000000  0.059235  0.000000      1.000000
  0.059235  0.059235  0.000000      1.000000
 


--------------------------------------------------------------------------------------------------------




 Dimension of arrays:
   k-points           NKPTS =      4   k-points in BZ     NKDIM =      4   number of bands    NBANDS=    316
   number of dos      NEDOS =    301   number of ions     NIONS =     66
   non local maximal  LDIM  =      5   non local SUM 2l+1 LMDIM =     13
   total plane-waves  NPLWV = 686000
   max r-space proj   IRMAX =   2301   max aug-charges    IRDMAX=   7801
   dimension x,y,z NGX =    70 NGY =   70 NGZ =  140
   dimension x,y,z NGXF=   140 NGYF=  140 NGZF=  280
   support grid    NGXF=   140 NGYF=  140 NGZF=  280
   ions per type =               1   1  32  32
   NGX,Y,Z   is equivalent  to a cutoff of  13.79, 13.79, 13.69 a.u.
   NGXF,Y,Z  is equivalent  to a cutoff of  27.57, 27.57, 27.38 a.u.

 SYSTEM =  Oxide-Surface                           
 POSCAR =   C  O Mg  O                             

     8.440984654  8.440984654 17.000000000     0.118469591  0.118469591  0.058823529


 
 old parameters found on file WAVECAR:
  energy-cutoff  :     1000.00
  volume of cell :     1211.25
      direct lattice vectors                 reciprocal lattice vectors
     8.440984654  0.000000000  0.000000000     0.118469591  0.000000000  0.000000000
     0.000000000  8.440984654  0.000000000     0.000000000  0.118469591  0.000000000
     0.000000000  0.000000000 17.000000000     0.000000000  0.000000000  0.058823529

  length of vectors

 
 k-points in units of 2pi/SCALE and weight: pymatgen v2020.8.13 with grid density = 
   0.00000000  0.00000000  0.00000000       0.250
   0.05923480  0.00000000  0.00000000       0.250
   0.00000000  0.05923480  0.00000000       0.250
   0.05923480  0.05923480  0.00000000       0.250
 
 k-points in reciprocal lattice and weights: pymatgen v2020.8.13 with grid density = 
   0.00000000  0.00000000  0.00000000       0.250
   0.50000000  0.00000000  0.00000000       0.250
   0.00000000  0.50000000  0.00000000       0.250
   0.50000000  0.50000000  0.00000000       0.250
 
 position of ions in fractional coordinates (direct lattice) 
   0.62441135  0.62441135  0.72565714
   0.62441135  0.62441135  0.79311713
   0.12441135  0.87441135  0.20688287
   0.37441135  0.12441135  0.20688287
   0.12441135  0.12441135  0.33101500
   0.37441135  0.87441135  0.33101500
   0.12441135  0.87435062  0.45592297
   0.37447209  0.12441135  0.45592297
   0.12441135  0.12441135  0.57971914
   0.37426968  0.87455303  0.57949860
   0.12441135  0.37441135  0.20688287
   0.37441135  0.62441135  0.20688287
   0.12441135  0.62441135  0.33101500
   0.37441135  0.37441135  0.33101500
   0.12441135  0.37447209  0.45592297
   0.37478973  0.62441135  0.45609397
   0.12441135  0.62441135  0.57955598
   0.37426968  0.37426968  0.57949860
   0.62441135  0.87441135  0.20688287
   0.87441135  0.12441135  0.20688287
   0.62441135  0.12441135  0.33101500
   0.87441135  0.87441135  0.33101500
   0.62441135  0.87403298  0.45609397
   0.87435062  0.12441135  0.45592297
   0.62441135  0.12441135  0.57955598
   0.87455303  0.87455303  0.57949860
   0.62441135  0.37441135  0.20688287
   0.87441135  0.62441135  0.20688287
   0.62441135  0.62441135  0.33101500
   0.87441135  0.37441135  0.33101500
   0.62441135  0.37478973  0.45609397
   0.87403298  0.62441135  0.45609397
   0.62441135  0.62441135  0.58206759
   0.87455303  0.37426968  0.57949860
   0.12441135  0.87441135  0.33101500
   0.37441135  0.12441135  0.33101500
   0.12441135  0.12441135  0.20688287
   0.37441135  0.87441135  0.20688287
   0.12441135  0.87462989  0.58252218
   0.37419282  0.12441135  0.58252218
   0.12441135  0.12441135  0.45557999
   0.37435713  0.87446558  0.45564175
   0.12441135  0.37441135  0.33101500
   0.37441135  0.62441135  0.33101500
   0.12441135  0.62441135  0.20688287
   0.37441135  0.37441135  0.20688287
   0.12441135  0.37419282  0.58252218
   0.37323406  0.62441135  0.58240124
   0.12441135  0.62441135  0.45552073
   0.37435713  0.37435713  0.45564175
   0.62441135  0.87441135  0.33101500
   0.87441135  0.12441135  0.33101500
   0.62441135  0.12441135  0.20688287
   0.87441135  0.87441135  0.20688287
   0.62441135  0.87558865  0.58240124
   0.87462989  0.12441135  0.58252218
   0.62441135  0.12441135  0.45552073
   0.87446558  0.87446558  0.45564175
   0.62441135  0.37441135  0.33101500
   0.87441135  0.62441135  0.33101500
   0.62441135  0.62441135  0.20688287
   0.87441135  0.37441135  0.20688287
   0.62441135  0.37323406  0.58240124
   0.87558865  0.62441135  0.58240124
   0.62441135  0.62441135  0.45610882
   0.87446558  0.37435713  0.45564175
 
 position of ions in cartesian coordinates  (Angst):
   5.27064666  5.27064666 12.33617139
   5.27064666  5.27064666 13.48299120
   1.05015434  7.38089283  3.51700880
   3.16040050  1.05015434  3.51700880
   1.05015434  1.05015434  5.62725496
   3.16040050  7.38089283  5.62725496
   1.05015434  7.38038019  7.75069052
   3.16091314  1.05015434  7.75069052
   1.05015434  1.05015434  9.85522533
   3.15920464  7.38208869  9.85147620
   1.05015434  3.16040050  3.51700880
   3.16040050  5.27064666  3.51700880
   1.05015434  5.27064666  5.62725496
   3.16040050  3.16040050  5.62725496
   1.05015434  3.16091314  7.75069052
   3.16359439  5.27064666  7.75359757
   1.05015434  5.27064666  9.85245172
   3.15920464  3.15920464  9.85147620
   5.27064666  7.38089283  3.51700880
   7.38089283  1.05015434  3.51700880
   5.27064666  1.05015434  5.62725496
   7.38089283  7.38089283  5.62725496
   5.27064666  7.37769894  7.75359757
   7.38038019  1.05015434  7.75069052
   5.27064666  1.05015434  9.85245172
   7.38208869  7.38208869  9.85147620
   5.27064666  3.16040050  3.51700880
   7.38089283  5.27064666  3.51700880
   5.27064666  5.27064666  5.62725496
   7.38089283  3.16040050  5.62725496
   5.27064666  3.16359439  7.75359757
   7.37769894  5.27064666  7.75359757
   5.27064666  5.27064666  9.89514903
   7.38208869  3.15920464  9.85147620
   1.05015434  7.38089283  5.62725496
   3.16040050  1.05015434  5.62725496
   1.05015434  1.05015434  3.51700880
   3.16040050  7.38089283  3.51700880
   1.05015434  7.38273746  9.90287705
   3.15855587  1.05015434  9.90287705
   1.05015434  1.05015434  7.74485979
   3.15994275  7.38135058  7.74590975
   1.05015434  3.16040050  5.62725496
   3.16040050  5.27064666  5.62725496
   1.05015434  5.27064666  3.51700880
   3.16040050  3.16040050  3.51700880
   1.05015434  3.15855587  9.90287705
   3.15046301  5.27064666  9.90082112
   1.05015434  5.27064666  7.74385245
   3.15994275  3.15994275  7.74590975
   5.27064666  7.38089283  5.62725496
   7.38089283  1.05015434  5.62725496
   5.27064666  1.05015434  3.51700880
   7.38089283  7.38089283  3.51700880
   5.27064666  7.39083032  9.90082112
   7.38273746  1.05015434  9.90287705
   5.27064666  1.05015434  7.74385245
   7.38135058  7.38135058  7.74590975
   5.27064666  3.16040050  5.62725496
   7.38089283  5.27064666  5.62725496
   5.27064666  5.27064666  3.51700880
   7.38089283  3.16040050  3.51700880
   5.27064666  3.15046301  9.90082112
   7.39083032  5.27064666  9.90082112
   5.27064666  5.27064666  7.75384998
   7.38135058  3.15994275  7.74590975
 


--------------------------------------------------------------------------------------------------------

--------------------------------------- Iteration      FINAL  ---------------------------------------


--------------------OUTCAR has been truncated-------------------------


--------------------OUTCAR has been truncated-------------------------


--------------------OUTCAR has been truncated-------------------------


--------------------OUTCAR has been truncated-------------------------


--------------------OUTCAR has been truncated-------------------------


--------------------OUTCAR has been truncated-------------------------


--------------------OUTCAR has been truncated-------------------------


--------------------OUTCAR has been truncated-------------------------


--------------------OUTCAR has been truncated-------------------------


--------------------OUTCAR has been truncated-------------------------


    MIXING:  cpu time      0.0257: real time      0.0258
    OFIELD:  cpu time      0.0001: real time      0.0001

 ---------------------------------------------------------------------------------------------

         DFTD3 V3.0 Rev 1        
 IVDW         = 11
 DF pbe       
 parameters
 VDW_S6       =    1.0000
 VDW_S8       =    0.7220
 VDW_SR       =    1.2170
 rs18     =    1.0000
 alpha6   =   14.0000
 alpha8   =   16.0000
 k1-k3    =   16.0000    1.3333   -4.0000
 VDW_RADIUS   =   50.2022 A
 VDW_CNRADIUS =   21.1671 A
 Edisp (eV)   -9.44313

 E6    (eV) :    -4.3639
 E8    (eV) :    -5.0792
 % E8        : 53.79
    FORVDW:  cpu time      0.2928: real time      0.2934

  FORCE on cell =-STRESS in cart. coord.  units (eV):
  Direction    XX          YY          ZZ          XY          YZ          ZX
  --------------------------------------------------------------------------------------
  Alpha Z  1227.42868  1227.42868  1227.42868
  Ewald  107190.75749107190.75749************    -0.00000    -0.00000    -0.00000
  Hartree124157.13601124157.13602************    -0.00016     0.00016     0.00016
  E(xc)   -3269.77138 -3269.77138 -3274.84373     0.00003     0.00001     0.00001
  Local  ************************240383.38626     0.00027    -0.00050    -0.00050
  n-local -5621.93152 -5621.93152 -5626.29586    -0.02543     0.01571     0.01571
  augment   724.65749   724.65749   715.55724     0.00258    -0.00031    -0.00031
  Kinetic 12740.18030 12740.18029 12737.54668    -0.00333     0.00093     0.00093
  Fock        0.00000     0.00000     0.00000     0.00000     0.00000     0.00000
  vdW       -12.08054   -12.08054    -7.66454     0.00000    -0.00000    -0.00000
  -------------------------------------------------------------------------------------
  Total     -27.09811   -27.09812    -1.19471    -0.02604     0.01600     0.01600
  in kB     -35.84384   -35.84384    -1.58029    -0.03445     0.02116     0.02116
  external pressure =      -24.42 kB  Pullay stress =        0.00 kB


 VOLUME and BASIS-vectors are now :
 -----------------------------------------------------------------------------
  energy-cutoff  :     1000.00
  volume of cell :     1211.25
      direct lattice vectors                 reciprocal lattice vectors
     8.440984654  0.000000000  0.000000000     0.118469591  0.000000000  0.000000000
     0.000000000  8.440984654  0.000000000     0.000000000  0.118469591  0.000000000
     0.000000000  0.000000000 17.000000000     0.000000000  0.000000000  0.058823529

  length of vectors
     8.440984654  8.440984654 17.000000000     0.118469591  0.118469591  0.058823529


 FORCES acting on ions
    electron-ion (+dipol)            ewald-force                    non-local-force                 convergence-correction
 -----------------------------------------------------------------------------------------------
   0.936E-03 0.936E-03 -.641E+03   0.167E-13 0.355E-14 0.616E+03   0.388E-01 0.388E-01 0.259E+02   -.129E-06 -.190E-06 -.893E-04
   0.718E-03 0.718E-03 -.999E+03   0.155E-14 0.866E-14 0.105E+04   -.380E-03 -.380E-03 -.526E+02   -.265E-06 -.305E-06 -.649E-05
   -.181E-03 -.993E+00 0.244E+04   -.178E-13 0.993E+00 -.243E+04   0.419E-02 -.278E-02 -.915E+01   0.789E-07 -.745E-05 -.432E-04
   0.995E+00 -.183E-03 0.244E+04   -.993E+00 -.213E-13 -.243E+04   -.391E-02 0.419E-02 -.915E+01   0.615E-05 0.945E-06 -.429E-04
   -.967E-03 -.969E-03 0.827E+03   -.355E-14 0.746E-13 -.827E+03   -.100E-02 -.100E-02 0.657E+00   -.191E-06 0.788E-06 -.129E-03
   0.734E+00 -.733E+00 0.828E+03   -.728E+00 0.728E+00 -.828E+03   -.513E-02 0.247E-02 0.688E+00   -.552E-06 0.350E-06 -.151E-03
   -.288E-03 -.352E+01 -.777E+03   0.107E-13 0.351E+01 0.777E+03   0.198E-02 0.150E-01 -.253E+00   -.759E-06 -.300E-05 -.194E-03
   0.352E+01 -.290E-03 -.777E+03   -.351E+01 0.817E-13 0.777E+03   -.230E-01 0.214E-02 -.254E+00   -.235E-05 0.455E-05 -.193E-03
   -.141E-03 -.141E-03 -.238E+04   0.426E-13 0.000E+00 0.238E+04   0.579E-03 0.579E-03 0.774E+01   0.835E-06 0.586E-06 -.186E-03
   0.226E+02 -.226E+02 -.236E+04   -.227E+02 0.227E+02 0.235E+04   0.115E+00 -.126E+00 0.785E+01   0.233E-04 -.238E-04 -.154E-03
   -.184E-03 0.995E+00 0.244E+04   0.302E-13 -.993E+00 -.243E+04   0.419E-02 -.391E-02 -.915E+01   0.149E-05 0.713E-05 -.413E-04
   0.131E+01 -.180E-03 0.244E+04   -.130E+01 0.222E-13 -.243E+04   -.816E-02 0.419E-02 -.915E+01   0.891E-07 -.398E-06 -.538E-04
   -.967E-03 -.963E-03 0.828E+03   -.107E-12 0.000E+00 -.828E+03   -.100E-02 -.100E-02 0.612E+00   -.435E-05 -.135E-05 -.153E-03
   0.734E+00 0.734E+00 0.828E+03   -.728E+00 -.728E+00 -.828E+03   -.513E-02 -.513E-02 0.688E+00   0.958E-06 -.300E-06 -.145E-03
   -.286E-03 0.352E+01 -.777E+03   0.853E-13 -.351E+01 0.777E+03   0.214E-02 -.230E-01 -.254E+00   0.228E-05 0.294E-05 -.194E-03
   0.486E+01 -.255E-03 -.768E+03   -.476E+01 -.497E-13 0.769E+03   -.106E+00 0.120E-02 -.379E+00   0.157E-05 -.589E-05 -.200E-03
   -.546E-04 -.181E-03 -.237E+04   -.142E-13 -.426E-13 0.236E+04   0.114E-02 0.125E-02 0.775E+01   -.471E-06 -.544E-06 -.171E-03
   0.226E+02 0.226E+02 -.236E+04   -.227E+02 -.227E+02 0.235E+04   0.115E+00 0.115E+00 0.785E+01   0.231E-04 0.232E-04 -.163E-03
   -.181E-03 -.131E+01 0.244E+04   -.168E-12 0.130E+01 -.243E+04   0.419E-02 0.148E-02 -.915E+01   0.376E-06 -.187E-05 -.539E-04
   -.994E+00 -.180E-03 0.244E+04   0.993E+00 -.302E-13 -.243E+04   -.278E-02 0.419E-02 -.915E+01   -.654E-05 -.107E-05 -.442E-04
   -.964E-03 -.974E-03 0.828E+03   -.185E-12 0.107E-13 -.828E+03   -.100E-02 -.999E-03 0.612E+00   -.109E-05 0.297E-05 -.158E-03
   -.733E+00 -.733E+00 0.828E+03   0.728E+00 0.728E+00 -.828E+03   0.247E-02 0.247E-02 0.688E+00   0.123E-05 -.423E-05 -.149E-03
   -.406E-03 -.485E+01 -.768E+03   0.959E-13 0.476E+01 0.769E+03   0.123E-02 0.100E+00 -.380E+00   0.243E-05 -.781E-05 -.199E-03
   -.352E+01 -.291E-03 -.777E+03   0.351E+01 0.568E-13 0.777E+03   0.150E-01 0.198E-02 -.253E+00   0.177E-05 0.219E-05 -.195E-03
   -.179E-03 -.560E-04 -.237E+04   -.121E-12 -.355E-14 0.236E+04   0.125E-02 0.115E-02 0.775E+01   -.109E-05 0.170E-06 -.166E-03
   -.226E+02 -.226E+02 -.236E+04   0.227E+02 0.227E+02 0.235E+04   -.125E+00 -.125E+00 0.785E+01   -.235E-04 -.245E-04 -.159E-03
   -.179E-03 0.131E+01 0.244E+04   -.117E-12 -.130E+01 -.243E+04   0.419E-02 -.816E-02 -.915E+01   -.199E-05 0.120E-05 -.512E-04
   -.131E+01 -.183E-03 0.244E+04   0.130E+01 -.551E-13 -.243E+04   0.149E-02 0.419E-02 -.915E+01   -.815E-06 0.155E-05 -.495E-04
   -.968E-03 -.962E-03 0.827E+03   -.114E-12 -.178E-13 -.828E+03   -.100E-02 -.100E-02 0.784E+00   0.345E-05 -.978E-06 -.157E-03
   -.733E+00 0.734E+00 0.828E+03   0.728E+00 -.728E+00 -.828E+03   0.247E-02 -.512E-02 0.688E+00   0.115E-05 0.355E-05 -.147E-03
   -.259E-03 0.486E+01 -.768E+03   -.171E-12 -.476E+01 0.769E+03   0.119E-02 -.106E+00 -.379E+00   -.175E-05 0.694E-05 -.199E-03
   -.485E+01 -.402E-03 -.768E+03   0.476E+01 -.284E-13 0.769E+03   0.100E+00 0.123E-02 -.380E+00   -.171E-05 -.108E-05 -.205E-03
   -.159E-02 -.159E-02 -.227E+04   -.142E-13 -.391E-13 0.226E+04   -.473E-03 -.474E-03 0.504E+01   -.408E-07 -.240E-06 -.142E-03
   -.226E+02 0.226E+02 -.236E+04   0.227E+02 -.227E+02 0.235E+04   -.126E+00 0.115E+00 0.785E+01   -.235E-04 0.244E-04 -.159E-03
   0.303E-03 -.489E+00 0.496E+03   0.622E-14 0.481E+00 -.495E+03   -.169E-02 0.145E-01 -.777E-01   0.132E-05 0.997E-05 0.950E-04
   0.488E+00 0.301E-03 0.496E+03   -.481E+00 -.115E-13 -.495E+03   -.348E-02 -.169E-02 -.777E-01   -.864E-05 -.936E-06 0.941E-04
   0.837E-03 0.836E-03 0.148E+04   0.799E-14 -.129E-13 -.148E+04   -.148E-02 -.148E-02 0.262E+01   0.264E-06 0.529E-06 0.320E-04
   0.687E+00 -.689E+00 0.148E+04   -.685E+00 0.685E+00 -.148E+04   -.152E-02 0.464E-02 0.262E+01   -.405E-05 0.403E-05 0.216E-04
   0.665E-03 -.721E+01 -.146E+04   -.128E-12 0.716E+01 0.146E+04   -.150E-02 0.551E-01 -.464E+01   0.164E-06 -.112E-04 0.226E-04
   0.721E+01 0.597E-03 -.146E+04   -.716E+01 -.115E-13 0.146E+04   -.562E-01 -.229E-02 -.464E+01   0.120E-04 -.619E-06 0.215E-04
   0.193E-03 0.194E-03 -.462E+03   0.355E-13 -.142E-13 0.462E+03   -.314E-02 -.314E-02 0.277E+00   0.262E-06 -.161E-06 0.957E-04
   0.250E+01 -.250E+01 -.457E+03   -.249E+01 0.249E+01 0.457E+03   -.877E-02 0.289E-02 0.342E+00   0.566E-06 -.479E-06 0.113E-03
   0.300E-03 0.488E+00 0.496E+03   -.497E-13 -.481E+00 -.495E+03   -.168E-02 -.348E-02 -.777E-01   -.105E-05 -.966E-05 0.937E-04
   0.509E+00 0.304E-03 0.496E+03   -.542E+00 -.195E-13 -.495E+03   0.469E-01 -.169E-02 -.890E-01   0.193E-05 0.135E-05 0.951E-04
   0.836E-03 0.837E-03 0.148E+04   -.147E-13 -.546E-13 -.148E+04   -.148E-02 -.148E-02 0.262E+01   0.307E-06 -.778E-07 0.152E-04
   0.687E+00 0.687E+00 0.148E+04   -.685E+00 -.685E+00 -.148E+04   -.152E-02 -.152E-02 0.262E+01   -.377E-05 -.428E-05 0.196E-04
   0.596E-03 0.721E+01 -.146E+04   -.121E-12 -.716E+01 0.146E+04   -.229E-02 -.562E-01 -.464E+01   -.848E-06 0.116E-04 0.212E-04
   0.232E+02 0.433E-03 -.143E+04   -.229E+02 -.799E-14 0.143E+04   -.377E+00 -.191E-02 -.468E+01   0.239E-04 0.989E-06 0.495E-04
   0.203E-03 0.194E-03 -.457E+03   0.995E-13 -.213E-13 0.457E+03   -.316E-02 -.313E-02 0.297E+00   0.301E-06 -.118E-06 0.111E-03
   0.250E+01 0.250E+01 -.457E+03   -.249E+01 -.249E+01 0.457E+03   -.864E-02 -.864E-02 0.342E+00   -.215E-06 0.801E-06 0.112E-03
   0.308E-03 -.510E+00 0.496E+03   0.409E-13 0.542E+00 -.495E+03   -.169E-02 -.359E-01 -.890E-01   -.783E-06 -.148E-05 0.948E-04
   -.489E+00 0.303E-03 0.496E+03   0.481E+00 -.142E-13 -.495E+03   0.145E-01 -.169E-02 -.777E-01   0.963E-05 0.552E-06 0.944E-04
   0.837E-03 0.836E-03 0.148E+04   0.103E-12 0.444E-15 -.148E+04   -.148E-02 -.148E-02 0.262E+01   0.416E-06 0.451E-06 0.173E-04
   -.689E+00 -.689E+00 0.148E+04   0.685E+00 0.685E+00 -.148E+04   0.464E-02 0.464E-02 0.262E+01   0.390E-05 0.394E-05 0.194E-04
   0.862E-03 -.232E+02 -.143E+04   0.160E-13 0.229E+02 0.143E+04   -.440E-03 0.378E+00 -.467E+01   -.169E-06 -.234E-04 0.483E-04
   -.721E+01 0.665E-03 -.146E+04   0.716E+01 0.426E-13 0.146E+04   0.551E-01 -.150E-02 -.464E+01   -.113E-04 0.118E-06 0.210E-04
   0.195E-03 0.205E-03 -.457E+03   0.142E-13 0.782E-13 0.457E+03   -.313E-02 -.316E-02 0.297E+00   0.124E-06 -.655E-06 0.114E-03
   -.250E+01 -.250E+01 -.457E+03   0.249E+01 0.249E+01 0.457E+03   0.463E-02 0.463E-02 0.341E+00   -.122E-05 -.159E-06 0.114E-03
   0.305E-03 0.509E+00 0.496E+03   0.107E-12 -.542E+00 -.495E+03   -.169E-02 0.469E-01 -.890E-01   -.135E-06 0.214E-06 0.934E-04
   -.510E+00 0.307E-03 0.496E+03   0.542E+00 0.426E-13 -.495E+03   -.359E-01 -.169E-02 -.890E-01   -.144E-05 -.523E-06 0.949E-04
   0.838E-03 0.838E-03 0.147E+04   0.702E-13 -.488E-14 -.148E+04   -.148E-02 -.148E-02 0.262E+01   0.367E-07 -.229E-06 0.131E-04
   -.689E+00 0.687E+00 0.148E+04   0.685E+00 -.685E+00 -.148E+04   0.464E-02 -.152E-02 0.262E+01   0.381E-05 -.444E-05 0.215E-04
   0.433E-03 0.232E+02 -.143E+04   0.000E+00 -.229E+02 0.143E+04   -.191E-02 -.377E+00 -.468E+01   0.672E-06 0.237E-04 0.481E-04
   -.232E+02 0.861E-03 -.143E+04   0.229E+02 -.142E-13 0.143E+04   0.378E+00 -.439E-03 -.467E+01   -.236E-04 -.354E-06 0.497E-04
   0.413E-03 0.411E-03 -.458E+03   0.121E-12 0.284E-13 0.458E+03   -.113E-03 -.112E-03 -.182E+00   -.192E-06 0.124E-05 0.132E-03
   -.250E+01 0.250E+01 -.457E+03   0.249E+01 -.249E+01 0.457E+03   0.289E-02 -.877E-02 0.342E+00   -.543E-06 0.181E-06 0.114E-03
 -----------------------------------------------------------------------------------------------
   0.366E-02 0.366E-02 0.524E+02   -.579E-12 0.114E-12 0.136E-11   -.373E-02 -.371E-02 -.523E+02   0.863E-06 -.644E-06 -.244E-02
 
 
 POSITION                                       TOTAL-FORCE (eV/Angst)
 -----------------------------------------------------------------------------------
      5.27065      5.27065     12.33617         0.039706      0.039706      1.153319
      5.27065      5.27065     13.48299         0.000338      0.000338     -1.207341
      1.05015      7.38089      3.51701         0.004006     -0.002804      0.391011
      3.16040      1.05015      3.51701        -0.002349      0.004005      0.391011
      1.05015      1.05015      5.62725        -0.001968     -0.001968      0.091561
      3.16040      7.38089      5.62725         0.000983     -0.002246      0.086281
      1.05015      7.38038      7.75069         0.001693     -0.002110     -0.013987
      3.16091      1.05015      7.75069        -0.004388      0.001856     -0.014129
      1.05015      1.05015      9.85523         0.000440      0.000440     -0.045922
      3.15920      7.38209      9.85148        -0.008457     -0.000564     -0.049686
      1.05015      3.16040      3.51701         0.004005     -0.002349      0.391011
      3.16040      5.27065      3.51701        -0.001397      0.004011      0.389979
      1.05015      5.27065      5.62725        -0.001972     -0.001966      0.099399
      3.16040      3.16040      5.62725         0.000978      0.000979      0.086279
      1.05015      3.16091      7.75069         0.001856     -0.004390     -0.014129
      3.16359      5.27065      7.75360        -0.005977      0.000937     -0.008812
      1.05015      5.27065      9.85245         0.001091      0.001066     -0.047584
      3.15920      3.15920      9.85148        -0.008873     -0.008874     -0.050156
      5.27065      7.38089      3.51701         0.004012     -0.003746      0.389981
      7.38089      1.05015      3.51701        -0.002803      0.004006      0.391011
      5.27065      1.05015      5.62725        -0.001967     -0.001969      0.099399
      7.38089      7.38089      5.62725        -0.002248     -0.002249      0.086285
      5.27065      7.37770      7.75360         0.000828      0.001585     -0.010100
      7.38038      1.05015      7.75069        -0.002111      0.001693     -0.013984
      5.27065      1.05015      9.85245         0.001066      0.001090     -0.047585
      7.38209      7.38209      9.85148        -0.000105     -0.000104     -0.048113
      5.27065      3.16040      3.51701         0.004011     -0.001397      0.389980
      7.38089      5.27065      3.51701        -0.003745      0.004011      0.389979
      5.27065      5.27065      5.62725        -0.001965     -0.001966      0.106583
      7.38089      3.16040      5.62725        -0.002247      0.000984      0.086283
      5.27065      3.16359      7.75360         0.000935     -0.005980     -0.008814
      7.37770      5.27065      7.75360         0.001583      0.000829     -0.010101
      5.27065      5.27065      9.89515        -0.002061     -0.002061      0.059159
      7.38209      3.15920      9.85148        -0.000564     -0.008459     -0.049684
      1.05015      7.38089      5.62725        -0.001385      0.007174      0.068725
      3.16040      1.05015      5.62725         0.003215     -0.001384      0.068726
      1.05015      1.05015      3.51701        -0.000639     -0.000640     -0.518998
      3.16040      7.38089      3.51701        -0.000291      0.001050     -0.524026
      1.05015      7.38274      9.90288        -0.000832     -0.001970      0.018923
      3.15856      1.05015      9.90288         0.000019     -0.001691      0.017688
      1.05015      1.05015      7.74486        -0.002943     -0.002943      0.002283
      3.15994      7.38135      7.74591         0.000757     -0.008108      0.004367
      1.05015      3.16040      5.62725        -0.001384      0.003214      0.068725
      3.16040      5.27065      5.62725         0.014027     -0.001387      0.077544
      1.05015      5.27065      3.51701        -0.000639     -0.000640     -0.518413
      3.16040      3.16040      3.51701        -0.000290     -0.000291     -0.524025
      1.05015      3.15856      9.90288        -0.001691      0.000019      0.017688
      3.15046      5.27065      9.90082        -0.011740     -0.001473      0.011527
      1.05015      5.27065      7.74385        -0.002955     -0.002931      0.000819
      3.15994      3.15994      7.74591         0.000870      0.000870      0.004352
      5.27065      7.38089      5.62725        -0.001385     -0.003639      0.077540
      7.38089      1.05015      5.62725         0.007173     -0.001386      0.068725
      5.27065      1.05015      3.51701        -0.000640     -0.000639     -0.518413
      7.38089      7.38089      3.51701         0.001050      0.001050     -0.524027
      5.27065      7.39083      9.90082         0.000423      0.012125      0.016299
      7.38274      1.05015      9.90288        -0.001970     -0.000832      0.018923
      5.27065      1.05015      7.74385        -0.002932     -0.002955      0.000818
      7.38135      7.38135      7.74591        -0.006378     -0.006377      0.003526
      5.27065      3.16040      5.62725        -0.001387      0.014026      0.077543
      7.38089      5.27065      5.62725        -0.003640     -0.001385      0.077540
      5.27065      5.27065      3.51701        -0.000639     -0.000639     -0.517651
      7.38089      3.16040      3.51701         0.001050     -0.000291     -0.524026
      5.27065      3.15046      9.90082        -0.001474     -0.011741      0.011527
      7.39083      5.27065      9.90082         0.012123      0.000423      0.016299
      5.27065      5.27065      7.75385         0.000301      0.000301     -0.003278
      7.38135      3.15994      7.74591        -0.008109      0.000756      0.004367
 -----------------------------------------------------------------------------------
    total drift:                               -0.000061     -0.000050      0.068899


--------------------------------------------------------------------------------------------------------



  FREE ENERGIE OF THE ION-ELECTRON SYSTEM (eV)
  ---------------------------------------------------
  free  energy   TOTEN  =      -397.17412783 eV

  energy  without entropy=     -397.17412783  energy(sigma->0) =     -397.17412783
 


--------------------------------------------------------------------------------------------------------


    POTLOK:  cpu time      1.1567: real time      1.1589


--------------------------------------------------------------------------------------------------------


     LOOP+:  cpu time     23.8573: real time     23.9213
    4ORBIT:  cpu time      0.0000: real time      0.0000

 total amount of memory used by VASP MPI-rank0   662759. kBytes
=======================================================================

   base      :      30000. kBytes
   nonlr-proj:      12513. kBytes
   fftplans  :      49105. kBytes
   grid      :     126851. kBytes
   one-center:        535. kBytes
   wavefun   :     443755. kBytes
 
  
  
 General timing and accounting informations for this job:
 ========================================================
  
                  Total CPU time used (sec):       32.830
                            User time (sec):       28.602
                          System time (sec):        4.228
                         Elapsed time (sec):       33.465
  
                   Maximum memory used (kb):     1860828.
                   Average memory used (kb):          N/A
  
                          Minor page faults:       240464
                          Major page faults:            0
                 Voluntary context switches:        13188
