 **********************************************************************
                          MRCC program system
 **********************************************************************
 
                              Written by
     Mihaly Kallay, Peter R. Nagy, David Mester, Laszlo Gyevi-Nagy,
        Jozsef Csoka, P. Bernat Szabo, Zoltan Rolik, Gyula Samu,
     Jozsef Csontos, Bence Hegely, Adam Ganyecz, Istvan Ladjanszki,
       Lorant Szegedy, Bence Ladoczki, Klara Petrov, Mate Farkas,
                    Pal D. Mezei, and Reka A. Horvath
 
        Department of Physical Chemistry and Materials Science
            Budapest University of Technology and Economics
                  Budapest P.O.Box 91, H-1521 Hungary
 
                              www.mrcc.hu
 
                      Release date: March 18, 2022

 ************************ 2023-02-05 13:30:16 *************************
 Executing minp...

 Reading input from MINP...
 
 Input file:
 
calc=FNO-CCSD(T)
verbosity=3
mem=220GB
unit=angs
scfiguess=small
scfalg=locfit1
ccmaxit=400
ccsdalg=dfdirect
ccsdthreads=4
ccsdmkl=thr
ptthreads=4
lnoepsv=1e-5
naf_cor=1e-2
basis=aug-cc-pVQZ
basis_sm=def2-SVP
dfbasis_scf=def2-QZVPP-RI-JK
dfbasis_cor=aug-cc-pVQZ-RI
unit=angs
geom=xyz
16

C    34.41670262    34.07107264    10.41543014
C    33.11117461    33.45680459    10.91530835
H    34.24160149    35.00442132     9.86225048
H    34.94674030    33.36940783     9.75379242
H    35.10002891    34.30603621    11.24227357
H    32.42643037    33.26105434    10.07939442
H    32.59136835    34.12756100    11.61262818
H    33.28915165    32.50678735    11.43686767
C    25.97571797    42.51205729    10.41543014
C    24.67018996    41.89778925    10.91530835
H    25.80061684    43.44540598     9.86225048
H    26.50575565    41.81039248     9.75379242
H    26.65904426    42.74702086    11.24227357
H    23.98544572    41.70203900    10.07939442
H    24.15038370    42.56854565    11.61262818
H    24.84816699    40.94777201    11.43686767

--------------------Output has been truncated-------------------------


--------------------Output has been truncated-------------------------


--------------------Output has been truncated-------------------------


--------------------Output has been truncated-------------------------


--------------------Output has been truncated-------------------------


--------------------Output has been truncated-------------------------


--------------------Output has been truncated-------------------------


--------------------Output has been truncated-------------------------


--------------------Output has been truncated-------------------------


--------------------Output has been truncated-------------------------


 
 Reference energy [au]:                       -79.264437057055
 DF-MP2 singlet pair energy [au]:              -0.317722392184
 DF-MP2 triplet pair energy [au]:              -0.076906327593
 DF-SCS-MP2 correlation energy [au]:           -0.406902313152
 DF-SCS-MP2 energy [au]:                      -79.671339370207
 DF-SOS-MP2 correlation energy [au]:           -0.413039109840
 DF-SOS-MP2 energy [au]:                      -79.677476166894
 DF-MP2 correlation energy [au]:               -0.394628719778
 DF-MP2 energy [au]:                          -79.659065776832

 Results in FNO basis:
 
 
 Reference energy [au]:                       -79.264437057055
 DF-MP2 singlet pair energy [au]:              -0.312548768949
 DF-MP2 triplet pair energy [au]:              -0.076620442188
 DF-SCS-MP2 correlation energy [au]:           -0.400598670135
 DF-SCS-MP2 energy [au]:                      -79.665035727190
 DF-SOS-MP2 correlation energy [au]:           -0.406313399634
 DF-SOS-MP2 energy [au]:                      -79.670750456689
 DF-MP2 correlation energy [au]:               -0.389169211137
 DF-MP2 energy [au]:                          -79.653606268192

 Results in NAF basis:
 
 
 Reference energy [au]:                       -79.264437057055
 DF-MP2 singlet pair energy [au]:              -0.312527806763
 DF-MP2 triplet pair energy [au]:              -0.076628448696
 DF-SCS-MP2 correlation energy [au]:           -0.400576184347
 DF-SCS-MP2 energy [au]:                      -79.665013241402
 DF-SOS-MP2 correlation energy [au]:           -0.406286148792
 DF-SOS-MP2 energy [au]:                      -79.670723205846
 DF-MP2 correlation energy [au]:               -0.389156255458
 DF-MP2 energy [au]:                          -79.653593312513

 ************************ 2023-02-05 13:31:53 *************************
 Executing ccsd...

 Allocation of 220.0 Gbytes of memory...

 Direct DF-CCSD(T) calculation
 
 Convergence criterion:  1.0E-06
 
 Number of occupied/virtual/auxiliary orbitals:     7   175   551
    851.32 MB is the minimal memory requirement for (T)
    190.43 MB is the minimal memory requirement for CCSD
 
 Reference energy [au]:             -79.264437057055
 T1 contribution [au]:                0.000000000000
 Same spin MP2 energy [au]:          -0.076624442879
 Opposite spin MP2 energy [au]:      -0.312538283149
 MP2 correlation energy [au]:        -0.389162726027
 Total MP2 energy [au]:             -79.653599783082
 MP2 correction [au]:                -0.005465993750
 
 
 CPU time [min]:     0.381                   Wall time [min]:     0.049
 
 Starting CCSD iterations...
 
                     Residual norm          Energy
 Iteration  1        0.179604445764      -79.671512710134
 Iteration  2        0.044511314984      -79.681094873067
 Iteration  3        0.013089811817      -79.682230597850
 Iteration  4        0.002650289986      -79.682237820594
 Iteration  5        0.000560968422      -79.682243685852
 Iteration  6        0.000156931314      -79.682245736708
 Iteration  7        0.000037096202      -79.682245511654
 Iteration  8        0.000009998710      -79.682245875542
 
 CCSD iteration has converged in  8 steps.
     3804.92 MB memory was utilized by CCSD
 
 T1 diagnostic:      8.231E-03            D1 diagnostic:      1.428E-02
 
 T1 contribution [au]:                                  0.000000000000
 PPL energy contribution [au]:                          0.108935382683
 Scaled PPL energy contribution [au]:                   0.110475122392

 OS-PPL energy contribution [au]:                       0.095542174735
 Scaled OS-PPL energy contribution [au]:                0.097137096855
 SS-PPL energy contribution [au]:                       0.013393207948
 Scaled SS-PPL energy contribution [au]:                0.013441285725

 Opposite spin CCSD energy [au]:                       -0.345140130244
 Same spin CCSD energy [au]:                           -0.072676441021
 CCSD correlation energy [au]:                         -0.417816571265
 CCSD correlation energy + MP2 correction [au]:        -0.423282565015
 CCSD correlation energy + MP2 + PPL corr. [au]:       -0.421742825307
 Total CCSD energy [au]:                              -79.682253628320
 Total CCSD energy + MP2 correction [au]:             -79.687719622070
 Total CCSD energy + MP2 + PPL corr. [au]:            -79.686179882361
 
 CPU time [min]:     6.517                   Wall time [min]:     0.237
 
 Calculation of (T) correction...
 
 
      783.34 MB memory is utilized for (T)

 0%       25%       50%       75%       100%
 |---------|---------|---------|---------| 
 
 (T) correction [au]:                                    -0.014762654387
 (T*) correction [au]:                                   -0.014970003578
 (T+) correction [au]:                                   -0.014966472111
 CCSD(T) correlation energy [au]:                        -0.432579225652
 CCSD(T) correlation energy + MP2 correction [au]:       -0.438045219402
 CCSD(T+) correlation en. + MP2 + PPL corr. [au]:        -0.436709297418
 Total CCSD(T) energy [au]:                             -79.697016282707
 Total CCSD(T) energy + MP2 correction [au]:            -79.702482276457
 Total CCSD(T+) energy + MP2 + PPL corr. [au]:          -79.701146354473
 
 CPU time [min]:     8.213                   Wall time [min]:     0.293
 
 ************************ 2023-02-05 13:32:10 *************************
                      Normal termination of mrcc.
 **********************************************************************
