 vasp.6.3.0 20Jan22 (build Aug 21 2024 11:13:42) complex                         
 executed on        HPECrayEX_GCC date 2024.08.27  13:53:32
 running  512 mpi-ranks, with    1 threads/rank
 distrk:  each k-point on  512 cores,    1 groups
 distr:  one band on NCORE=   8 cores,   64 groups


--------------------------------------------------------------------------------------------------------


 INCAR:
   SYSTEM = MgO-rocksalt
   ISMEAR = 0
   SIGMA = 0.05
   EDIFF = 1E-6
   ALGO = ALL
   ISTART = 0
   IBRION = -1
   NSW = 0
   ISYM = 0
   DIPOL = 0.5 0.5 0.5
   IDIPOL = 3
   LDIPOL = .TRUE.
   GGA = RE
   AGGAC = 0.0
   LUSE_VDW = .TRUE.
   LASPH = .TRUE.
   ENCUT = 600
   PREC = Accurate
   LASPH = .TRUE.
   LREAL = .FALSE.
   ISPIN = 1
   NELM = 200
   NELMIN = 8
   NCORE = 8
   KPAR = 1
   LWAVE = .FALSE.
   LCHARG = .FALSE.

 POTCAR:    PAW_PBE Mg_pv 13Apr2007               
 POTCAR:    PAW_PBE O 08Apr2002                   
 -----------------------------------------------------------------------------
|                                                                             |
|               ----> ADVICE to this user running VASP <----                  |
|                                                                             |
|     You have switched on vdW-DFT.                                           |
|     This routine was written and supplied by Jiri Klimes. We recommend      |
|     that you carefully read and cite the following publications:            |
|       J. Klimes, D.R. Bowler, A. Michelides                                 |
|          J. Phys.: Cond Matt. 22 022201 (2010)                              |
|       J. Klimes, D.R. Bowler, A. Michelides                                 |
|          Phys. Rev. B. 83, 195131 (2011)                                    |
|     and references therein.                                                 |
|                                                                             |
 -----------------------------------------------------------------------------

 POTCAR:    PAW_PBE Mg_pv 13Apr2007               
   SHA256 =  f474ac0dd33840b9ae76c01d57fea79fdf77cdfbb07d5ade72c65f83c709b62b Mg_pv/POTCAR          
   COPYR  = (c) Copyright 13Apr2007 Georg Kresse                                                    
   COPYR  = This file is part of the software VASP. Any use, copying, and all other rights are regul
   COPYR  = If you do not have a valid VASP license, you may not use, copy or distribute this file. 
   VRHFIN =Mg: p6s2                                                                                 
   LEXCH  = PE                                                                                      
   EATOM  =  1056.7344 eV,   77.6678 Ry                                                             
                                                                                                    
   TITEL  = PAW_PBE Mg_pv 13Apr2007                                                                 
   LULTRA =        F    use ultrasoft PP ?                                                          
   IUNSCR =        1    unscreen: 0-lin 1-nonlin 2-no                                               
   RPACOR =    1.500    partial core radius                                                         
   POMASS =   24.305; ZVAL   =    8.000    mass and valenz                                          
   RCORE  =    2.000    outmost cutoff radius                                                       
   RWIGS  =    2.000; RWIGS  =    1.058    wigner-seitz radius (au A)                               
   ENMAX  =  403.929; ENMIN  =  302.947 eV                                                          
   RCLOC  =    1.506    cutoff for local pot                                                        
   LCOR   =        T    correct aug charges                                                         
   LPAW   =        T    paw PP                                                                      
   EAUG   =  758.780                                                                                
   DEXC   =    0.000                                                                                
   RMAX   =    2.045    core radius for proj-oper                                                   
   RAUG   =    1.300    factor for augmentation sphere                                              
   RDEP   =    2.025    radius for radial grids                                                     
   RDEPT  =    1.557    core radius for aug-charge                                                  
                                                                                                    
   Atomic configuration                                                                             
    5 entries                                                                                       
     n  l   j            E        occ.                                                              
     1  0  0.50     -1259.6230   2.0000                                                             
     2  0  0.50       -79.8442   2.0000                                                             
     2  1  1.50       -46.6121   6.0000                                                             
     3  0  0.50        -4.7055   2.0000                                                             
     3  2  1.50        -1.3606   0.0000                                                             
   Description                                                                                      
     l       E           TYP  RCUT    TYP  RCUT                                                     
     1    -46.6121073     23  1.600                                                                 
     1      2.7211652     23  1.600                                                                 
     0     -4.7054661     23  2.000                                                                 
     0     61.2262170     23  2.000                                                                 
     2     -1.3605826     23  2.000                                                                 
  local pseudopotential read in
  partial core-charges read in
  partial kinetic energy density read in
  atomic valenz-charges read in
  non local Contribution for L=           1  read in
    real space projection operators read in
  non local Contribution for L=           1  read in
    real space projection operators read in
  non local Contribution for L=           0  read in
    real space projection operators read in
  non local Contribution for L=           0  read in
    real space projection operators read in
  non local Contribution for L=           2  read in
    real space projection operators read in
    PAW grid and wavefunctions read in

   number of l-projection  operators is LMAX  =           5
   number of lm-projection operators is LMMAX =          13

 POTCAR:    PAW_PBE O 08Apr2002                   
   SHA256 =  818f92134a0a090dccd8ba1447fa70422a3b330e708bb4f08108d8ae51209ddf O/POTCAR              
   COPYR  = (c) Copyright 08Apr2002 Georg Kresse                                                    
   COPYR  = This file is part of the software VASP. Any use, copying, and all other rights are regul
   COPYR  = If you do not have a valid VASP license, you may not use, copy or distribute this file. 
   VRHFIN =O: s2p4                                                                                  
   LEXCH  = PE                                                                                      
   EATOM  =   432.3788 eV,   31.7789 Ry                                                             
                                                                                                    
   TITEL  = PAW_PBE O 08Apr2002                                                                     
   LULTRA =        F    use ultrasoft PP ?                                                          
   IUNSCR =        1    unscreen: 0-lin 1-nonlin 2-no                                               
   RPACOR =    1.200    partial core radius                                                         
   POMASS =   16.000; ZVAL   =    6.000    mass and valenz                                          
   RCORE  =    1.520    outmost cutoff radius                                                       
   RWIGS  =    1.550; RWIGS  =    0.820    wigner-seitz radius (au A)                               
   ENMAX  =  400.000; ENMIN  =  300.000 eV                                                          
   ICORE  =        2    local potential                                                             
   LCOR   =        T    correct aug charges                                                         
   LPAW   =        T    paw PP                                                                      
   EAUG   =  605.392                                                                                
   DEXC   =    0.000                                                                                
   RMAX   =    1.553    core radius for proj-oper                                                   
   RAUG   =    1.300    factor for augmentation sphere                                              
   RDEP   =    1.550    radius for radial grids                                                     
   RDEPT  =    1.329    core radius for aug-charge                                                  
                                                                                                    
   Atomic configuration                                                                             
    4 entries                                                                                       
     n  l   j            E        occ.                                                              
     1  0  0.50      -514.6923   2.0000                                                             
     2  0  0.50       -23.9615   2.0000                                                             
     2  1  0.50        -9.0305   4.0000                                                             
     3  2  1.50        -9.5241   0.0000                                                             
   Description                                                                                      
     l       E           TYP  RCUT    TYP  RCUT                                                     
     0    -23.9615318     23  1.200                                                                 
     0     -9.5240782     23  1.200                                                                 
     1     -9.0304911     23  1.520                                                                 
     1      8.1634956     23  1.520                                                                 
     2     -9.5240782      7  1.500                                                                 
  local pseudopotential read in
  partial core-charges read in
  partial kinetic energy density read in
  kinetic energy density of atom read in
  atomic valenz-charges read in
  non local Contribution for L=           0  read in
    real space projection operators read in
  non local Contribution for L=           0  read in
    real space projection operators read in
  non local Contribution for L=           1  read in
    real space projection operators read in
  non local Contribution for L=           1  read in
    real space projection operators read in
    PAW grid and wavefunctions read in

   number of l-projection  operators is LMAX  =           4
   number of lm-projection operators is LMMAX =           8

 -----------------------------------------------------------------------------
|                                                                             |
|               ----> ADVICE to this user running VASP <----                  |
|                                                                             |
|     You have a (more or less) 'large supercell' and for larger cells it     |
|     might be more efficient to use real-space projection operators.         |
|     Therefore, try LREAL= Auto in the INCAR file.                           |
|     Mind: For very accurate calculation, you might also keep the            |
|     reciprocal projection scheme (i.e. LREAL=.FALSE.).                      |
|                                                                             |
 -----------------------------------------------------------------------------

 -----------------------------------------------------------------------------
|                                                                             |
|               ----> ADVICE to this user running VASP <----                  |
|                                                                             |
|     You enforced a specific xc type in the INCAR file but a different       |
|     type was found in the POTCAR file.                                      |
|     I HOPE YOU KNOW WHAT YOU ARE DOING!                                     |
|                                                                             |
 -----------------------------------------------------------------------------

  PAW_PBE Mg_pv 13Apr2007               :
 energy of atom  1       EATOM=-1056.7344
 kinetic energy error for atom=    0.0221 (will be added to EATOM!!)
  PAW_PBE O 08Apr2002                   :
 energy of atom  2       EATOM= -432.3788
 kinetic energy error for atom=    0.0168 (will be added to EATOM!!)


 POSCAR: Mg  O
  positions in direct lattice
  No initial velocities read in
 exchange correlation table for  LEXCH =       40
   RHO(1)=    0.500       N(1)  =     2000
   RHO(2)=  100.500       N(2)  =     4000



--------------------------------------------------------------------------------------------------------


 ion  position               nearest neighbor table
   1  0.250  0.000  0.353-  35 2.09  36 2.09  52 2.09  33 2.09  43 2.09
   2  0.500  0.250  0.353-  51 2.09  36 2.09  44 2.09  35 2.09  34 2.09
   3  0.250  0.250  0.451-  33 2.09  34 2.09  41 2.09  50 2.09  35 2.09  39 2.09
   4  0.500  0.000  0.451-  49 2.09  34 2.09  33 2.09  36 2.09  42 2.09  40 2.10
   5  0.250  0.000  0.550-  40 2.09  39 2.09  47 2.09  56 2.09  33 2.10  37 2.12
   6  0.500  0.250  0.550-  55 2.09  48 2.09  40 2.09  39 2.09  34 2.10  38 2.12
   7  0.250  0.251  0.647-  39 2.08  54 2.08  38 2.09  37 2.09  45 2.09
   8  0.500  0.001  0.648-  38 2.09  46 2.09  40 2.09  37 2.09  53 2.09
   9  0.250  0.500  0.353-  43 2.09  35 2.09  44 2.09  60 2.09  41 2.09
  10  0.500  0.750  0.353-  44 2.09  59 2.09  43 2.09  42 2.09  36 2.09
  11  0.250  0.750  0.451-  41 2.09  42 2.09  58 2.09  43 2.09  33 2.09  47 2.09
  12  0.500  0.500  0.451-  42 2.09  57 2.09  34 2.09  41 2.09  44 2.09  48 2.10
  13  0.250  0.500  0.550-  48 2.09  47 2.09  39 2.09  64 2.09  41 2.10  45 2.12
  14  0.500  0.750  0.550-  63 2.09  40 2.09  48 2.09  47 2.09  42 2.10  46 2.12
  15  0.250  0.751  0.647-  47 2.08  62 2.08  46 2.09  45 2.09  37 2.09
  16  0.500  0.501  0.648-  46 2.09  38 2.09  48 2.09  45 2.09  61 2.09
  17  0.750  0.000  0.353-  36 2.09  51 2.09  49 2.09  52 2.09  59 2.09
  18  0.000  0.250  0.353-  35 2.09  52 2.09  60 2.09  50 2.09  51 2.09
  19  0.750  0.250  0.451-  34 2.09  49 2.09  57 2.09  51 2.09  50 2.09  55 2.10
  20  0.000  0.000  0.451-  33 2.09  50 2.09  52 2.09  49 2.09  58 2.09  56 2.09
  21  0.750  0.000  0.550-  40 2.09  55 2.09  63 2.09  56 2.09  49 2.10  53 2.12
  22  1.000  0.250  0.550-  55 2.09  64 2.09  56 2.09  39 2.09  50 2.10  54 2.12
  23  0.750  0.251  0.648-  61 2.09  53 2.09  55 2.09  54 2.09  38 2.09
  24  0.000  0.001  0.647-  56 2.08  37 2.08  53 2.09  62 2.09  54 2.09
  25  0.750  0.500  0.353-  44 2.09  59 2.09  51 2.09  57 2.09  60 2.09
  26  0.000  0.750  0.353-  60 2.09  43 2.09  58 2.09  59 2.09  52 2.09
  27  0.750  0.750  0.451-  42 2.09  57 2.09  59 2.09  58 2.09  49 2.09  63 2.10
  28  0.000  0.500  0.451-  58 2.09  50 2.09  41 2.09  60 2.09  57 2.09  64 2.09
  29  0.750  0.500  0.550-  48 2.09  63 2.09  55 2.09  64 2.09  57 2.10  61 2.12
  30  1.000  0.750  0.550-  63 2.09  64 2.09  56 2.09  47 2.09  58 2.10  62 2.12
  31  0.750  0.751  0.648-  53 2.09  61 2.09  63 2.09  62 2.09  46 2.09
  32  0.000  0.501  0.647-  64 2.08  45 2.08  61 2.09  54 2.09  62 2.09
  33  0.250  0.000  0.451-   3 2.09   4 2.09  20 2.09   1 2.09  11 2.09   5 2.10
  34  0.500  0.250  0.451-  19 2.09   4 2.09  12 2.09   3 2.09   2 2.09   6 2.10
  35  0.250  0.250  0.353-   1 2.09   2 2.09   9 2.09  18 2.09   3 2.09
  36  0.500  0.000  0.353-  17 2.09   2 2.09   1 2.09   4 2.09  10 2.09
  37  0.249  0.001  0.649-  24 2.08   7 2.09  15 2.09   8 2.09   5 2.12
  38  0.500  0.251  0.650-   8 2.09   7 2.09  16 2.09  23 2.09   6 2.12
  39  0.250  0.250  0.549-   7 2.08  13 2.09   5 2.09   6 2.09  22 2.09   3 2.09
  40  0.500  0.000  0.550-  21 2.09   5 2.09  14 2.09   6 2.09   8 2.09   4 2.10
  41  0.250  0.500  0.451-  11 2.09   3 2.09  12 2.09  28 2.09   9 2.09  13 2.10
  42  0.500  0.750  0.451-  12 2.09  27 2.09  11 2.09  10 2.09   4 2.09  14 2.10
  43  0.250  0.750  0.353-   9 2.09  10 2.09  26 2.09  11 2.09   1 2.09
  44  0.500  0.500  0.353-  10 2.09  25 2.09   2 2.09   9 2.09  12 2.09
  45  0.249  0.501  0.649-  32 2.08  15 2.09   7 2.09  16 2.09  13 2.12
  46  0.500  0.751  0.650-  16 2.09  15 2.09   8 2.09  31 2.09  14 2.12
  47  0.250  0.750  0.549-  15 2.08  13 2.09   5 2.09  14 2.09  30 2.09  11 2.09
  48  0.500  0.500  0.550-  29 2.09  13 2.09   6 2.09  14 2.09  16 2.09  12 2.10
  49  0.750  0.000  0.451-   4 2.09  19 2.09  17 2.09  20 2.09  27 2.09  21 2.10
  50  0.000  0.250  0.451-   3 2.09  20 2.09  28 2.09  18 2.09  19 2.09  22 2.10
  51  0.750  0.250  0.353-   2 2.09  17 2.09  25 2.09  19 2.09  18 2.09
  52  0.000  0.000  0.353-   1 2.09  18 2.09  20 2.09  17 2.09  26 2.09
  53  0.750  0.001  0.650-  31 2.09  24 2.09  23 2.09   8 2.09  21 2.12
  54  0.000  0.251  0.649-   7 2.08  32 2.09  24 2.09  23 2.09  22 2.12
  55  0.750  0.250  0.550-   6 2.09  22 2.09  21 2.09  29 2.09  23 2.09  19 2.10
  56  1.000  0.000  0.549-  24 2.08  30 2.09  22 2.09  21 2.09   5 2.09  20 2.09
  57  0.750  0.500  0.451-  12 2.09  27 2.09  19 2.09  25 2.09  28 2.09  29 2.10
  58  0.000  0.750  0.451-  28 2.09  11 2.09  26 2.09  27 2.09  20 2.09  30 2.10
  59  0.750  0.750  0.353-  10 2.09  25 2.09  27 2.09  26 2.09  17 2.09
  60  0.000  0.500  0.353-  26 2.09  18 2.09   9 2.09  28 2.09  25 2.09
  61  0.750  0.501  0.650-  23 2.09  32 2.09  31 2.09  16 2.09  29 2.12
  62  0.000  0.751  0.649-  15 2.08  24 2.09  32 2.09  31 2.09  30 2.12
  63  0.750  0.750  0.550-  14 2.09  30 2.09  29 2.09  21 2.09  31 2.09  27 2.10
  64  1.000  0.500  0.549-  32 2.08  22 2.09  30 2.09  29 2.09  13 2.09  28 2.09


IMPORTANT INFORMATION: All symmetrisations will be switched off!
NOSYMM: (Re-)initialisation of all symmetry stuff for point group C_1.


----------------------------------------------------------------------------------------

                                     Primitive cell                                     

  volume of cell :    1482.1129

  direct lattice vectors                    reciprocal lattice vectors
     8.349111827  0.000000000  0.000000000     0.119773219  0.000000000  0.000000000
     0.000000000  8.349111827  0.000000000     0.000000000  0.119773219  0.000000000
     0.000000000  0.000000000 21.261833870     0.000000000  0.000000000  0.047032632

  length of vectors
     8.349111827  8.349111827 21.261833870     0.119773219  0.119773219  0.047032632

  position of ions in fractional coordinates (direct lattice)
     0.250000245  0.000000000  0.352744737
     0.500000489  0.250000245  0.352744737
     0.250000245  0.250000245  0.450915008
     0.500000489  0.000000000  0.450915008
     0.250142250  0.000395631  0.549666040
     0.500178303  0.250433109  0.549879424
     0.249766681  0.250701938  0.646966194
     0.499604381  0.000884115  0.647855093
     0.250000245  0.500000489  0.352744737
     0.500000489  0.749999536  0.352744737
     0.250000245  0.749999536  0.450915008
     0.500000489  0.500000489  0.450915008
     0.250134043  0.500396655  0.549666850
     0.500178456  0.750421910  0.549878367
     0.249766326  0.750704710  0.646966606
     0.499605858  0.500884173  0.647859919
     0.749999536  0.000000000  0.352744737
     0.000000000  0.250000245  0.352744737
     0.749999536  0.250000245  0.450915008
     0.000000000  0.000000000  0.450915008
     0.749734738  0.000427711  0.549878320
     0.999785017  0.250414276  0.549668534
     0.750227113  0.250889483  0.647884412
     0.000090467  0.000708863  0.646959371
     0.749999536  0.500000489  0.352744737
     0.000000000  0.749999536  0.352744737
     0.749999536  0.749999536  0.450915008
     0.000000000  0.500000489  0.450915008
     0.749744888  0.500427746  0.549885405
     0.999784933  0.750384903  0.549669449
     0.750227814  0.750890631  0.647884399
     0.000087848  0.500708496  0.646976660
     0.250000245  0.000000000  0.450915008
     0.500000489  0.250000245  0.450915008
     0.250000245  0.250000245  0.352744737
     0.500000489  0.000000000  0.352744737
     0.249364476  0.000730230  0.649391864
     0.499596950  0.250761746  0.649682668
     0.250021477  0.250396151  0.549345346
     0.499965977  0.000413963  0.549603059
     0.250000245  0.500000489  0.450915008
     0.500000489  0.749999536  0.450915008
     0.250000245  0.749999536  0.352744737
     0.500000489  0.500000489  0.352744737
     0.249352349  0.500730171  0.649387898
     0.499596978  0.750753488  0.649681921
     0.250022985  0.750384643  0.549345229
     0.499955508  0.500415948  0.549590505
     0.749999536  0.000000000  0.450915008
     0.000000000  0.250000245  0.450915008
     0.749999536  0.250000245  0.352744737
     0.000000000  0.000000000  0.352744737
     0.750221960  0.000762759  0.649692654
     0.000499707  0.250743453  0.649434586
     0.749972194  0.250410080  0.549607323
     0.999880445  0.000394031  0.549345760
     0.749999536  0.500000489  0.450915008
     0.000000000  0.749999536  0.450915008
     0.749999536  0.749999536  0.352744737
     0.000000000  0.500000489  0.352744737
     0.750231895  0.500762240  0.649685136
     0.000499983  0.750726359  0.649434558
     0.749971042  0.750420115  0.549607142
     0.999893731  0.500393302  0.549354902

  ion indices of the primitive-cell ions
   primitive index   ion index
                 1           1
                 2           2
                 3           3
                 4           4
                 5           5
                 6           6
                 7           7
                 8           8
                 9           9
                10          10
                11          11
                12          12
                13          13
                14          14
                15          15
                16          16
                17          17
                18          18
                19          19
                20          20
                21          21
                22          22
                23          23
                24          24
                25          25
                26          26
                27          27
                28          28
                29          29
                30          30
                31          31
                32          32
                33          33
                34          34
                35          35
                36          36
                37          37
                38          38
                39          39
                40          40
                41          41
                42          42
                43          43
                44          44
                45          45
                46          46
                47          47
                48          48
                49          49
                50          50
                51          51
                52          52
                53          53
                54          54
                55          55
                56          56
                57          57
                58          58
                59          59
                60          60
                61          61
                62          62
                63          63
                64          64

----------------------------------------------------------------------------------------



 KPOINTS: pymatgen v2020.8.13 with grid density = 

Automatic generation of k-mesh.
 Grid dimensions read from file:
 generate k-points for:    2    2    1

 Generating k-lattice:

  Cartesian coordinates                     Fractional coordinates (reciprocal lattice)
     0.059886610  0.000000000  0.000000000     0.500000000  0.000000000  0.000000000
     0.000000000  0.059886610  0.000000000     0.000000000  0.500000000  0.000000000
     0.000000000  0.000000000  0.047032632     0.000000000  0.000000000  1.000000000

  Length of vectors
     0.059886610  0.059886610  0.047032632

  Shift w.r.t. Gamma in fractional coordinates (k-lattice)
     0.000000000  0.000000000  0.000000000

 
 Subroutine IBZKPT returns following result:
 ===========================================
 
 Found      4 irreducible k-points:
 
 Following reciprocal coordinates:
            Coordinates               Weight
  0.000000  0.000000  0.000000      1.000000
  0.500000  0.000000  0.000000      1.000000
  0.000000  0.500000  0.000000      1.000000
  0.500000  0.500000  0.000000      1.000000
 
 Following cartesian coordinates:
            Coordinates               Weight
  0.000000  0.000000  0.000000      1.000000
  0.059887  0.000000  0.000000      1.000000
  0.000000  0.059887  0.000000      1.000000
  0.059887  0.059887  0.000000      1.000000
 


--------------------------------------------------------------------------------------------------------




 Dimension of arrays:
   k-points           NKPTS =      4   k-points in BZ     NKDIM =      4   number of bands    NBANDS=    320
   number of dos      NEDOS =    301   number of ions     NIONS =     64
   non local maximal  LDIM  =      5   non local SUM 2l+1 LMDIM =     13
   total plane-waves  NPLWV = 882000
   max r-space proj   IRMAX =      1   max aug-charges    IRDMAX=  11926
   dimension x,y,z NGX =    70 NGY =   70 NGZ =  180
   dimension x,y,z NGXF=   140 NGYF=  140 NGZF=  360
   support grid    NGXF=   140 NGYF=  140 NGZF=  360
   ions per type =              32  32
   NGX,Y,Z   is equivalent  to a cutoff of  13.94, 13.94, 14.07 a.u.
   NGXF,Y,Z  is equivalent  to a cutoff of  27.88, 27.88, 28.15 a.u.

 SYSTEM =  MgO-rocksalt                            
 POSCAR =  Mg  O                                   

--------------------------------------------------------------------------------------------------------


  energy-cutoff  :      600.00
  volume of cell :     1482.11
      direct lattice vectors                 reciprocal lattice vectors
     8.349111827  0.000000000  0.000000000     0.119773219  0.000000000  0.000000000
     0.000000000  8.349111827  0.000000000     0.000000000  0.119773219  0.000000000
     0.000000000  0.000000000 21.261833870     0.000000000  0.000000000  0.047032632

  length of vectors
     8.349111827  8.349111827 21.261833870     0.119773219  0.119773219  0.047032632



 k-points in units of 2pi/SCALE and weight: pymatgen v2020.8.13 with grid density = 
   0.00000000  0.00000000  0.00000000       0.250
   0.05988661  0.00000000  0.00000000       0.250
   0.00000000  0.05988661  0.00000000       0.250
   0.05988661  0.05988661  0.00000000       0.250

 k-points in reciprocal lattice and weights: pymatgen v2020.8.13 with grid density = 
   0.00000000  0.00000000  0.00000000       0.250
   0.50000000  0.00000000  0.00000000       0.250
   0.00000000  0.50000000  0.00000000       0.250
   0.50000000  0.50000000  0.00000000       0.250

 position of ions in fractional coordinates (direct lattice) 
   0.25000024  0.00000000  0.35274474
   0.50000049  0.25000024  0.35274474
   0.25000024  0.25000024  0.45091501
   0.50000049  0.00000000  0.45091501
   0.25014225  0.00039563  0.54966604
   0.50017830  0.25043311  0.54987942
   0.24976668  0.25070194  0.64696619
   0.49960438  0.00088411  0.64785509
   0.25000024  0.50000049  0.35274474
   0.50000049  0.74999954  0.35274474
   0.25000024  0.74999954  0.45091501
   0.50000049  0.50000049  0.45091501
   0.25013404  0.50039666  0.54966685
   0.50017846  0.75042191  0.54987837
   0.24976633  0.75070471  0.64696661
   0.49960586  0.50088417  0.64785992
   0.74999954  0.00000000  0.35274474
   0.00000000  0.25000024  0.35274474
   0.74999954  0.25000024  0.45091501
   0.00000000  0.00000000  0.45091501
   0.74973474  0.00042771  0.54987832
   0.99978502  0.25041428  0.54966853
   0.75022711  0.25088948  0.64788441
   0.00009047  0.00070886  0.64695937
   0.74999954  0.50000049  0.35274474
   0.00000000  0.74999954  0.35274474
   0.74999954  0.74999954  0.45091501
   0.00000000  0.50000049  0.45091501
   0.74974489  0.50042775  0.54988540
   0.99978493  0.75038490  0.54966945
   0.75022781  0.75089063  0.64788440
   0.00008785  0.50070850  0.64697666
   0.25000024  0.00000000  0.45091501
   0.50000049  0.25000024  0.45091501
   0.25000024  0.25000024  0.35274474
   0.50000049  0.00000000  0.35274474
   0.24936448  0.00073023  0.64939186
   0.49959695  0.25076175  0.64968267
   0.25002148  0.25039615  0.54934535
   0.49996598  0.00041396  0.54960306
   0.25000024  0.50000049  0.45091501
   0.50000049  0.74999954  0.45091501
   0.25000024  0.74999954  0.35274474
   0.50000049  0.50000049  0.35274474
   0.24935235  0.50073017  0.64938790
   0.49959698  0.75075349  0.64968192
   0.25002299  0.75038464  0.54934523
   0.49995551  0.50041595  0.54959051
   0.74999954  0.00000000  0.45091501
   0.00000000  0.25000024  0.45091501
   0.74999954  0.25000024  0.35274474
   0.00000000  0.00000000  0.35274474
   0.75022196  0.00076276  0.64969265
   0.00049971  0.25074345  0.64943459
   0.74997219  0.25041008  0.54960732
   0.99988045  0.00039403  0.54934576
   0.74999954  0.50000049  0.45091501
   0.00000000  0.74999954  0.45091501
   0.74999954  0.74999954  0.35274474
   0.00000000  0.50000049  0.35274474
   0.75023189  0.50076224  0.64968514
   0.00049998  0.75072636  0.64943456
   0.74997104  0.75042012  0.54960714
   0.99989373  0.50039330  0.54935490

 position of ions in cartesian coordinates  (Angst):
   2.08728000  0.00000000  7.50000000
   4.17456000  2.08728000  7.50000000
   2.08728000  2.08728000  9.58728000
   4.17456000  0.00000000  9.58728000
   2.08846562  0.00330317 11.68690803
   4.17604458  2.09089404 11.69144497
   2.08532995  2.09313852 13.75568773
   4.17125285  0.00738157 13.77458735
   2.08728000  4.17456000  7.50000000
   4.17456000  6.26183000  7.50000000
   2.08728000  6.26183000  9.58728000
   4.17456000  4.17456000  9.58728000
   2.08839709  4.17786763 11.68692525
   4.17604587  6.26535645 11.69142249
   2.08532699  6.26771757 13.75569651
   4.17126518  4.18193797 13.77468996
   6.26183000  0.00000000  7.50000000
   0.00000000  2.08728000  7.50000000
   6.26183000  2.08728000  9.58728000
   0.00000000  0.00000000  9.58728000
   6.25961917  0.00357101 11.69142149
   8.34731691  2.09073679 11.68696104
   6.26373007  2.09470435 13.77521073
   0.00075532  0.00591838 13.75554267
   6.26183000  4.17456000  7.50000000
   0.00000000  6.26183000  7.50000000
   6.26183000  6.26183000  9.58728000
   0.00000000  4.17456000  9.58728000
   6.25970391  4.17812722 11.69157212
   8.34731621  6.26504746 11.68698052
   6.26373592  6.26926985 13.77521045
   0.00073345  4.18047122 13.75591027
   2.08728000  0.00000000  9.58728000
   4.17456000  2.08728000  9.58728000
   2.08728000  2.08728000  7.50000000
   4.17456000  0.00000000  7.50000000
   2.08197190  0.00609677 13.80726194
   4.17119080  2.09363786 13.81344495
   2.08745727  2.09058547 11.68008948
   4.17427185  0.00345623 11.68556893
   2.08728000  4.17456000  9.58728000
   4.17456000  6.26183000  9.58728000
   2.08728000  6.26183000  7.50000000
   4.17456000  4.17456000  7.50000000
   2.08187064  4.18065219 13.80717761
   4.17119104  6.26812483 13.81342907
   2.08746986  6.26504530 11.68008700
   4.17418445  4.17802871 11.68530202
   6.26183000  0.00000000  9.58728000
   0.00000000  2.08728000  9.58728000
   6.26183000  2.08728000  7.50000000
   0.00000000  0.00000000  7.50000000
   6.26368704  0.00636836 13.81365727
   0.00417211  2.09348513 13.80817028
   6.26160171  2.09070176 11.68565959
   8.34811365  0.00328981 11.68009829
   6.26183000  4.17456000  9.58728000
   0.00000000  6.26183000  9.58728000
   6.26183000  6.26183000  7.50000000
   0.00000000  4.17456000  7.50000000
   6.26376998  4.18091994 13.81349742
   0.00417442  6.26789832 13.80816968
   6.26159210  6.26534146 11.68565574
   8.34822457  4.17783963 11.68029266



--------------------------------------------------------------------------------------------------------

--------------------------------------- Iteration      FINAL  ---------------------------------------


--------------------OUTCAR has been truncated-------------------------


--------------------OUTCAR has been truncated-------------------------


--------------------OUTCAR has been truncated-------------------------


--------------------OUTCAR has been truncated-------------------------


--------------------OUTCAR has been truncated-------------------------


--------------------OUTCAR has been truncated-------------------------


--------------------OUTCAR has been truncated-------------------------


--------------------OUTCAR has been truncated-------------------------


--------------------OUTCAR has been truncated-------------------------


--------------------OUTCAR has been truncated-------------------------


  FORCE on cell =-STRESS in cart. coord.  units (eV):
  Direction    XX          YY          ZZ          XY          YZ          ZX
  --------------------------------------------------------------------------------------
  Alpha Z   897.52708   897.52708   897.52708
  Ewald  166074.75829166074.88810************    -0.00021     2.41183    -0.24944
  Hartree176044.49482176044.60335************    -0.00012     1.40984    -0.14338
  E(xc)   -2526.61560 -2526.61546 -2529.39961    -0.00000     0.00668    -0.00068
  Local  ************************352679.17296     0.00033    -3.85911     0.39557
  n-local -2811.19248 -2811.19259 -2831.24715    -0.00003     0.08664    -0.00878
  augment  1076.88129  1076.88540  1067.80220    -0.00011     0.02160    -0.00201
  Kinetic  7348.53941  7348.53710  7379.64268     0.00021    -0.50049     0.05216
  Fock        0.00000     0.00000     0.00000     0.00000     0.00000     0.00000
  -------------------------------------------------------------------------------------
  Total      11.76510    11.76367    28.58708     0.00007    -0.42301     0.04346
  in kB      12.71818    12.71664    30.90289     0.00007    -0.45728     0.04698
  external pressure =       18.78 kB  Pullay stress =        0.00 kB


 VOLUME and BASIS-vectors are now :
 -----------------------------------------------------------------------------
  energy-cutoff  :      600.00
  volume of cell :     1482.11
      direct lattice vectors                 reciprocal lattice vectors
     8.349111827  0.000000000  0.000000000     0.119773219  0.000000000  0.000000000
     0.000000000  8.349111827  0.000000000     0.000000000  0.119773219  0.000000000
     0.000000000  0.000000000 21.261833870     0.000000000  0.000000000  0.047032632

  length of vectors
     8.349111827  8.349111827 21.261833870     0.119773219  0.119773219  0.047032632


 FORCES acting on ions:
    Electron-Ion                     Ewald-Force                    Non-Local-Force
 -----------------------------------------------------------------------------------------------
   -.119E+00 0.863E-03 0.212E+04   0.120E+00 0.380E-04 -.212E+04   -.122E-02 -.648E-03 -.651E+01
   -.123E+00 0.402E-02 0.212E+04   0.125E+00 -.304E-02 -.212E+04   -.151E-02 -.694E-03 -.652E+01
   -.523E+00 0.506E-01 0.703E+03   0.539E+00 -.342E-01 -.704E+03   -.110E-01 -.109E-01 0.423E+00
   -.553E+00 0.338E-01 0.702E+03   0.566E+00 -.165E-01 -.702E+03   -.949E-02 -.113E-01 0.499E+00
   -.865E+00 0.166E-01 -.707E+03   0.926E+00 -.165E-01 0.707E+03   -.623E-01 -.501E-03 -.229E+00
   -.103E+01 -.124E-01 -.711E+03   0.108E+01 0.146E-01 0.711E+03   -.539E-01 -.298E-02 -.230E+00
   -.133E+01 -.121E+00 -.210E+04   0.119E+01 0.109E+00 0.210E+04   0.129E+00 0.123E-01 0.542E+01
   -.929E+00 0.272E+00 -.211E+04   0.858E+00 -.270E+00 0.211E+04   0.746E-01 -.167E-01 0.555E+01
   -.118E+00 0.469E-02 0.212E+04   0.119E+00 -.370E-02 -.212E+04   -.115E-02 -.774E-03 -.652E+01
   -.123E+00 -.429E-02 0.212E+04   0.125E+00 0.509E-02 -.212E+04   -.151E-02 -.480E-03 -.652E+01
   -.519E+00 0.191E-01 0.703E+03   0.535E+00 -.392E-02 -.704E+03   -.109E-01 -.986E-02 0.423E+00
   -.570E+00 0.420E-01 0.702E+03   0.583E+00 -.247E-01 -.702E+03   -.922E-02 -.114E-01 0.494E+00
   -.908E+00 0.215E-01 -.707E+03   0.968E+00 -.212E-01 0.707E+03   -.611E-01 -.756E-03 -.230E+00
   -.103E+01 -.435E-01 -.711E+03   0.108E+01 0.426E-01 0.711E+03   -.539E-01 0.430E-03 -.230E+00
   -.133E+01 -.162E+00 -.210E+04   0.119E+01 0.148E+00 0.210E+04   0.129E+00 0.135E-01 0.542E+01
   -.927E+00 0.272E+00 -.211E+04   0.854E+00 -.269E+00 0.211E+04   0.758E-01 -.171E-01 0.555E+01
   0.115E+00 0.106E-02 0.212E+04   -.118E+00 -.816E-04 -.212E+04   0.169E-02 -.713E-03 -.652E+01
   0.125E+00 0.314E-02 0.212E+04   -.127E+00 -.213E-02 -.212E+04   0.131E-02 -.721E-03 -.652E+01
   0.530E+00 0.329E-01 0.702E+03   -.545E+00 -.154E-01 -.702E+03   0.109E-01 -.114E-01 0.499E+00
   0.530E+00 0.372E-01 0.703E+03   -.550E+00 -.211E-01 -.704E+03   0.139E-01 -.106E-01 0.423E+00
   0.934E+00 -.288E-01 -.711E+03   -.986E+00 0.298E-01 0.711E+03   0.534E-01 -.145E-02 -.229E+00
   0.963E+00 0.730E-01 -.707E+03   -.102E+01 -.720E-01 0.708E+03   0.628E-01 -.278E-02 -.217E+00
   0.888E+00 0.293E+00 -.211E+04   -.814E+00 -.292E+00 0.211E+04   -.764E-01 -.155E-01 0.555E+01
   0.139E+01 -.141E+00 -.210E+04   -.125E+01 0.128E+00 0.210E+04   -.133E+00 0.129E-01 0.542E+01
   0.115E+00 0.485E-02 0.212E+04   -.117E+00 -.378E-02 -.212E+04   0.161E-02 -.836E-03 -.652E+01
   0.125E+00 -.372E-02 0.212E+04   -.127E+00 0.435E-02 -.212E+04   0.131E-02 -.360E-03 -.652E+01
   0.527E+00 0.369E-01 0.702E+03   -.542E+00 -.200E-01 -.702E+03   0.108E-01 -.110E-01 0.499E+00
   0.549E+00 0.386E-01 0.703E+03   -.568E+00 -.224E-01 -.704E+03   0.135E-01 -.107E-01 0.427E+00
   0.974E+00 -.263E-01 -.711E+03   -.103E+01 0.274E-01 0.711E+03   0.528E-01 -.153E-02 -.233E+00
   0.963E+00 -.376E-01 -.707E+03   -.102E+01 0.360E-01 0.708E+03   0.628E-01 0.213E-02 -.217E+00
   0.890E+00 0.256E+00 -.211E+04   -.815E+00 -.253E+00 0.211E+04   -.762E-01 -.179E-01 0.555E+01
   0.139E+01 -.141E+00 -.210E+04   -.125E+01 0.127E+00 0.210E+04   -.135E+00 0.133E-01 0.542E+01
   -.371E+00 0.340E-01 0.527E+03   0.364E+00 -.538E-01 -.527E+03   0.967E-02 0.266E-01 -.602E-01
   -.399E+00 0.476E-01 0.526E+03   0.388E+00 -.685E-01 -.526E+03   0.153E-01 0.278E-01 -.983E-01
   -.891E-01 0.160E-02 0.160E+04   0.909E-01 -.207E-02 -.160E+04   -.244E-02 0.710E-03 0.353E+01
   -.914E-01 -.124E-02 0.159E+04   0.933E-01 0.589E-03 -.160E+04   -.279E-02 0.953E-03 0.352E+01
   -.111E+01 0.753E-01 -.160E+04   0.110E+01 -.712E-01 0.161E+04   0.760E-01 -.990E-02 -.519E+01
   -.963E+00 -.290E+00 -.160E+04   0.993E+00 0.334E+00 0.161E+04   0.181E-02 -.461E-01 -.503E+01
   -.690E+00 0.137E-01 -.523E+03   0.682E+00 -.108E-01 0.523E+03   0.803E-02 -.421E-02 0.371E+00
   -.738E+00 0.786E-02 -.528E+03   0.727E+00 -.462E-02 0.527E+03   0.136E-01 -.383E-02 0.207E+00
   -.366E+00 0.379E-01 0.527E+03   0.361E+00 -.578E-01 -.527E+03   0.778E-02 0.266E-01 -.616E-01
   -.399E+00 0.252E-01 0.526E+03   0.388E+00 -.471E-01 -.526E+03   0.153E-01 0.296E-01 -.982E-01
   -.889E-01 -.545E-02 0.160E+04   0.906E-01 0.491E-02 -.160E+04   -.242E-02 0.932E-03 0.352E+01
   -.929E-01 0.198E-02 0.159E+04   0.947E-01 -.271E-02 -.160E+04   -.273E-02 0.996E-03 0.352E+01
   -.117E+01 0.758E-01 -.160E+04   0.115E+01 -.718E-01 0.161E+04   0.778E-01 -.983E-02 -.519E+01
   -.964E+00 -.299E+00 -.160E+04   0.994E+00 0.346E+00 0.161E+04   0.179E-02 -.494E-01 -.503E+01
   -.685E+00 -.537E-01 -.523E+03   0.677E+00 0.563E-01 0.523E+03   0.765E-02 -.215E-02 0.371E+00
   -.773E+00 0.160E-01 -.528E+03   0.761E+00 -.126E-01 0.527E+03   0.157E-01 -.427E-02 0.209E+00
   0.369E+00 0.371E-01 0.526E+03   -.354E+00 -.586E-01 -.526E+03   -.212E-01 0.288E-01 -.988E-01
   0.387E+00 0.408E-01 0.527E+03   -.376E+00 -.617E-01 -.527E+03   -.146E-01 0.279E-01 -.611E-01
   0.869E-01 0.231E-04 0.159E+04   -.886E-01 -.589E-03 -.160E+04   0.250E-02 0.867E-03 0.352E+01
   0.939E-01 -.835E-03 0.160E+04   -.956E-01 0.239E-03 -.160E+04   0.237E-02 0.879E-03 0.353E+01
   0.893E+00 -.297E+00 -.160E+04   -.923E+00 0.344E+00 0.161E+04   0.157E-02 -.493E-01 -.503E+01
   0.119E+01 0.123E+00 -.160E+04   -.118E+01 -.118E+00 0.161E+04   -.696E-01 -.113E-01 -.520E+01
   0.716E+00 0.119E-01 -.528E+03   -.706E+00 -.969E-02 0.528E+03   -.141E-01 -.202E-02 0.203E+00
   0.711E+00 -.199E-01 -.523E+03   -.702E+00 0.234E-01 0.523E+03   -.686E-02 -.418E-02 0.377E+00
   0.365E+00 0.405E-01 0.526E+03   -.351E+00 -.620E-01 -.526E+03   -.191E-01 0.287E-01 -.997E-01
   0.387E+00 0.271E-01 0.527E+03   -.377E+00 -.462E-01 -.527E+03   -.146E-01 0.257E-01 -.612E-01
   0.867E-01 -.413E-02 0.159E+04   -.883E-01 0.357E-02 -.160E+04   0.249E-02 0.964E-03 0.352E+01
   0.954E-01 0.181E-02 0.160E+04   -.970E-01 -.248E-02 -.160E+04   0.231E-02 0.895E-03 0.352E+01
   0.947E+00 -.299E+00 -.160E+04   -.977E+00 0.346E+00 0.161E+04   0.353E-03 -.492E-01 -.503E+01
   0.119E+01 0.241E-01 -.160E+04   -.118E+01 -.186E-01 0.161E+04   -.696E-01 -.106E-01 -.520E+01
   0.712E+00 0.134E-01 -.528E+03   -.702E+00 -.985E-02 0.528E+03   -.137E-01 -.486E-02 0.203E+00
   0.747E+00 -.216E-01 -.523E+03   -.737E+00 0.249E-01 0.523E+03   -.977E-02 -.392E-02 0.369E+00
 -----------------------------------------------------------------------------------------------
   0.367E-02 0.157E+00 0.174E+02   -.796E-13 0.168E-12 -.523E-11   -.430E-02 -.151E+00 -.174E+02


 POSITION                                       TOTAL-FORCE (eV/Angst)
 -----------------------------------------------------------------------------------
      2.08728      0.00000      7.50000         0.000414      0.000160     -0.016598
      4.17456      2.08728      7.50000         0.000442      0.000194     -0.015385
      2.08728      2.08728      9.58728         0.004652      0.005331      0.042425
      4.17456      0.00000      9.58728         0.003483      0.005766      0.055831
      2.08847      0.00330     11.68691        -0.002176     -0.000495      0.021758
      4.17604      2.09089     11.69144        -0.000194     -0.000815      0.013445
      2.08533      2.09314     13.75569        -0.005755      0.000132      0.451787
      4.17125      0.00738     13.77459         0.004149     -0.014222      0.333992
      2.08728      4.17456      7.50000         0.000389      0.000122     -0.016514
      4.17456      6.26183      7.50000         0.000445      0.000230     -0.015395
      2.08728      6.26183      9.58728         0.004619      0.005129      0.042419
      4.17456      4.17456      9.58728         0.003458      0.005696      0.055624
      2.08840      4.17787     11.68693        -0.001271     -0.000554      0.021890
      4.17605      6.26536     11.69142        -0.000197     -0.000545      0.013713
      2.08533      6.26772     13.75570        -0.005610     -0.000525      0.451695
      4.17127      4.18194     13.77469         0.003386     -0.014117      0.332435
      6.26183      0.00000      7.50000        -0.000468      0.000171     -0.015362
      0.00000      2.08728      7.50000        -0.000450      0.000198     -0.016548
      6.26183      2.08728      9.58728        -0.004343      0.005851      0.056417
      0.00000      0.00000      9.58728        -0.005961      0.005242      0.042763
      6.25962      0.00357     11.69142         0.001533     -0.000538      0.014733
      8.34732      2.09074     11.68696         0.000807     -0.001845      0.023480
      6.26373      2.09470     13.77521        -0.001979     -0.014917      0.330761
      0.00076      0.00592     13.75554         0.005193     -0.000384      0.453640
      6.26183      4.17456      7.50000        -0.000446      0.000141     -0.015359
      0.00000      6.26183      7.50000        -0.000454      0.000182     -0.016541
      6.26183      6.26183      9.58728        -0.004305      0.005724      0.056419
      0.00000      4.17456      9.58728        -0.005899      0.005252      0.042612
      6.25970      4.17813     11.69157         0.000475     -0.000524      0.013012
      8.34732      6.26505     11.68698         0.000819      0.000451      0.023247
      6.26374      6.26927     13.77521        -0.002136     -0.014137      0.330733
      0.00073      4.18047     13.75591         0.006013     -0.000498      0.451647
      2.08728      0.00000      9.58728         0.002718      0.006625      0.076598
      4.17456      2.08728      9.58728         0.004290      0.006858      0.090485
      2.08728      2.08728      7.50000        -0.000700      0.000149     -0.720111
      4.17456      0.00000      7.50000        -0.000888      0.000215     -0.720883
      2.08197      0.00610     13.80726         0.058710     -0.005941      0.194356
      4.17119      2.09364     13.81344         0.031275     -0.001983      0.218957
      2.08746      2.09059     11.68009         0.000081     -0.001465     -0.015660
      4.17427      0.00346     11.68557         0.002453     -0.000679     -0.010542
      2.08728      4.17456      9.58728         0.002162      0.006585      0.076203
      4.17456      6.26183      9.58728         0.004295      0.007585      0.090387
      2.08728      6.26183      7.50000        -0.000700      0.000292     -0.720116
      4.17456      4.17456      7.50000        -0.000864      0.000180     -0.720923
      2.08187      4.18065     13.80718         0.060447     -0.005930      0.195740
      4.17119      6.26812     13.81343         0.031296     -0.002280      0.219103
      2.08747      6.26505     11.68009        -0.000148      0.000363     -0.015623
      4.17418      4.17803     11.68530         0.004046     -0.000977     -0.006867
      6.26183      0.00000      9.58728        -0.005744      0.007192      0.090218
      0.00000      2.08728      9.58728        -0.004002      0.006946      0.076599
      6.26183      2.08728      7.50000         0.000821      0.000209     -0.720904
      0.00000      0.00000      7.50000         0.000687      0.000191     -0.720084
      6.26369      0.00637     13.81366        -0.028100     -0.002467      0.218027
      0.00417      2.09349     13.80817        -0.058639     -0.007231      0.190183
      6.26160      2.09070     11.68566        -0.003785      0.000050     -0.009132
      8.34811      0.00329     11.68010         0.001516     -0.000835     -0.014740
      6.26183      4.17456      9.58728        -0.005138      0.007131      0.090780
      0.00000      6.26183      9.58728        -0.004005      0.006517      0.076670
      6.26183      6.26183      7.50000         0.000814      0.000306     -0.720903
      0.00000      4.17456      7.50000         0.000667      0.000140     -0.720152
      6.26377      4.18092     13.81350        -0.029588     -0.002399      0.219432
      0.00417      6.26790     13.80817        -0.058672     -0.005107      0.190187
      6.26159      6.26534     11.68566        -0.003587     -0.001389     -0.009088
      8.34822      4.17784     11.68029        -0.000346     -0.000704     -0.016971
 -----------------------------------------------------------------------------------
    total drift:                               -0.000626      0.005895      0.002050


--------------------------------------------------------------------------------------------------------



  FREE ENERGIE OF THE ION-ELECTRON SYSTEM (eV)
  ---------------------------------------------------
  free  energy   TOTEN  =      -227.06062772 eV

  energy  without entropy=     -227.06062772  energy(sigma->0) =     -227.06062772



--------------------------------------------------------------------------------------------------------


    POTLOK:  cpu time      0.7014: real time      0.7014


--------------------------------------------------------------------------------------------------------


     LOOP+:  cpu time    114.5312: real time    114.7007
    4ORBIT:  cpu time      0.0000: real time      0.0000

 total amount of memory used by VASP MPI-rank0    59967. kBytes
=======================================================================

   base      :      30000. kBytes
   nonl-proj :      11522. kBytes
   fftplans  :       4921. kBytes
   grid      :       7379. kBytes
   one-center:         64. kBytes
   wavefun   :       6081. kBytes

  
  
 General timing and accounting informations for this job:
 ========================================================
  
                  Total CPU time used (sec):      151.526
                            User time (sec):      150.118
                          System time (sec):        1.408
                         Elapsed time (sec):      163.574
  
                   Maximum memory used (kb):      374264.
                   Average memory used (kb):          N/A
  
                          Minor page faults:        88763
                          Major page faults:          804
                 Voluntary context switches:        10708
