 **********************************************************************
                          MRCC program system
 **********************************************************************
 
                              Written by
     Mihaly Kallay, Peter R. Nagy, David Mester, Laszlo Gyevi-Nagy,
        Jozsef Csoka, P. Bernat Szabo, Zoltan Rolik, Gyula Samu,
     Jozsef Csontos, Bence Hegely, Adam Ganyecz, Istvan Ladjanszki,
       Lorant Szegedy, Bence Ladoczki, Klara Petrov, Mate Farkas,
                    Pal D. Mezei, and Reka A. Horvath
 
        Department of Physical Chemistry and Materials Science
            Budapest University of Technology and Economics
                  Budapest P.O.Box 91, H-1521 Hungary
 
                              www.mrcc.hu
 
                      Release date: March 18, 2022

 ************************ 2023-02-05 13:16:44 *************************
 Executing minp...

 Reading input from MINP...
 
 Input file:
 
calc=FNO-CCSD(T)
verbosity=3
mem=220GB
unit=angs
scfiguess=small
scfalg=locfit1
ccmaxit=400
ccsdalg=dfdirect
ccsdthreads=4
ccsdmkl=thr
ptthreads=4
lnoepsv=1e-5
naf_cor=1e-2
basis=aug-cc-pVTZ
basis_sm=def2-SVP
dfbasis_scf=def2-QZVPP-RI-JK
dfbasis_cor=aug-cc-pVTZ-RI
unit=angs
geom=xyz
16

C    34.41670262    34.07107264    10.41543014
C    33.11117461    33.45680459    10.91530835
H    34.24160149    35.00442132     9.86225048
H    34.94674030    33.36940783     9.75379242
H    35.10002891    34.30603621    11.24227357
H    32.42643037    33.26105434    10.07939442
H    32.59136835    34.12756100    11.61262818
H    33.28915165    32.50678735    11.43686767
C    45.74245317    31.96102723    10.40841099
C    47.04217115    31.34719311    10.92356869
H    45.21721276    31.25682155     9.74571409
H    45.92448905    32.89196657     9.85291346
H    45.05142584    32.20166151    11.22702485
H    47.73601157    31.15055188    10.09551480
H    46.85793094    30.39767355    11.44396498
H    47.55429059    32.01873499    11.62587494

--------------------Output has been truncated-------------------------


--------------------Output has been truncated-------------------------


--------------------Output has been truncated-------------------------


--------------------Output has been truncated-------------------------


--------------------Output has been truncated-------------------------


--------------------Output has been truncated-------------------------


--------------------Output has been truncated-------------------------


--------------------Output has been truncated-------------------------


--------------------Output has been truncated-------------------------


--------------------Output has been truncated-------------------------


 
 Reference energy [au]:                       -79.259550520880
 DF-MP2 singlet pair energy [au]:              -0.300254495685
 DF-MP2 triplet pair energy [au]:              -0.075031474414
 DF-SCS-MP2 correlation energy [au]:           -0.385315886293
 DF-SCS-MP2 energy [au]:                      -79.644866407173
 DF-SOS-MP2 correlation energy [au]:           -0.390330844390
 DF-SOS-MP2 energy [au]:                      -79.649881365270
 DF-MP2 correlation energy [au]:               -0.375285970099
 DF-MP2 energy [au]:                          -79.634836490979

 Results in FNO basis:
 
 
 Reference energy [au]:                       -79.259550520880
 DF-MP2 singlet pair energy [au]:              -0.299084271233
 DF-MP2 triplet pair energy [au]:              -0.074925205696
 DF-SCS-MP2 correlation energy [au]:           -0.383876194044
 DF-SCS-MP2 energy [au]:                      -79.643426714924
 DF-SOS-MP2 correlation energy [au]:           -0.388809552602
 DF-SOS-MP2 energy [au]:                      -79.648360073482
 DF-MP2 correlation energy [au]:               -0.374009476928
 DF-MP2 energy [au]:                          -79.633559997808

 Results in NAF basis:
 
 
 Reference energy [au]:                       -79.259550520880
 DF-MP2 singlet pair energy [au]:              -0.299023539450
 DF-MP2 triplet pair energy [au]:              -0.074964250152
 DF-SCS-MP2 correlation energy [au]:           -0.383816330724
 DF-SCS-MP2 energy [au]:                      -79.643366851604
 DF-SOS-MP2 correlation energy [au]:           -0.388730601285
 DF-SOS-MP2 energy [au]:                      -79.648281122165
 DF-MP2 correlation energy [au]:               -0.373987789602
 DF-MP2 energy [au]:                          -79.633538310481

 ************************ 2023-02-05 13:17:14 *************************
 Executing ccsd...

 Allocation of 220.0 Gbytes of memory...

 Direct DF-CCSD(T) calculation
 
 Convergence criterion:  1.0E-06
 
 Number of occupied/virtual/auxiliary orbitals:     7   139   378
    421.21 MB is the minimal memory requirement for (T)
     94.89 MB is the minimal memory requirement for CCSD
 
 Reference energy [au]:             -79.259550520880
 T1 contribution [au]:                0.000000000000
 Same spin MP2 energy [au]:          -0.074944668743
 Opposite spin MP2 energy [au]:      -0.299053734525
 MP2 correlation energy [au]:        -0.373998403267
 Total MP2 energy [au]:             -79.633548924147
 MP2 correction [au]:                -0.001287566832
 
 
 CPU time [min]:     0.319                   Wall time [min]:     0.016
 
 Starting CCSD iterations...
 
                     Residual norm          Energy
 Iteration  1        0.170712215423      -79.654477476913
 Iteration  2        0.042453524103      -79.664042394487
 Iteration  3        0.011296554980      -79.664998443497
 Iteration  4        0.002548544014      -79.665006765185
 Iteration  5        0.000536665786      -79.665011971826
 Iteration  6        0.000152292217      -79.665015049452
 Iteration  7        0.000036257661      -79.665014834165
 Iteration  8        0.000009249094      -79.665015125800
 
 CCSD iteration has converged in  8 steps.
     1534.57 MB memory was utilized by CCSD
 
 T1 diagnostic:      7.816E-03            D1 diagnostic:      1.353E-02
 
 T1 contribution [au]:                                  0.000000000000
 PPL energy contribution [au]:                          0.102911525872
 Scaled PPL energy contribution [au]:                   0.103270248352

 OS-PPL energy contribution [au]:                       0.089961320040
 Scaled OS-PPL energy contribution [au]:                0.090332415505
 SS-PPL energy contribution [au]:                       0.012950205832
 Scaled SS-PPL energy contribution [au]:                0.012962033088

 Opposite spin CCSD energy [au]:                       -0.334284234612
 Same spin CCSD energy [au]:                           -0.071199037707
 CCSD correlation energy [au]:                         -0.405483272319
 CCSD correlation energy + MP2 correction [au]:        -0.406770839151
 CCSD correlation energy + MP2 + PPL corr. [au]:       -0.406412116671
 Total CCSD energy [au]:                              -79.665033793199
 Total CCSD energy + MP2 correction [au]:             -79.666321360031
 Total CCSD energy + MP2 + PPL corr. [au]:            -79.665962637551
 
 CPU time [min]:     2.771                   Wall time [min]:     0.088
 
 Calculation of (T) correction...
 
 
      388.93 MB memory is utilized for (T)

 0%       25%       50%       75%       100%
 |---------|---------|---------|---------| 
 
 (T) correction [au]:                                    -0.013958905641
 (T*) correction [au]:                                   -0.014006962060
 (T+) correction [au]:                                   -0.014006379726
 CCSD(T) correlation energy [au]:                        -0.419442177961
 CCSD(T) correlation energy + MP2 correction [au]:       -0.420729744793
 CCSD(T+) correlation en. + MP2 + PPL corr. [au]:        -0.420418496398
 Total CCSD(T) energy [au]:                             -79.678992698841
 Total CCSD(T) energy + MP2 correction [au]:            -79.680280265672
 Total CCSD(T+) energy + MP2 + PPL corr. [au]:          -79.679969017277
 
 CPU time [min]:     3.463                   Wall time [min]:     0.110
 
 ************************ 2023-02-05 13:17:21 *************************
                      Normal termination of mrcc.
 **********************************************************************
