 vasp.6.3.0 20Jan22 (build Mar 11 2022 13:48:16) complex                        
  
 executed on             LinuxIFC date 2023.12.26  17:50:09
 running on  304 total cores
 distrk:  each k-point on  304 cores,    1 groups
 distr:  one band on NCORE=   2 cores,  152 groups


--------------------------------------------------------------------------------------------------------


 INCAR:
   SYSTEM = MgO-rocksalt
   ISMEAR = 0
   SIGMA = 0.05
   EDIFF = 1E-6
   ALGO = ALL
   ISTART = 0
   IBRION = -1
   NSW = 0
   ISYM = 0
   DIPOL = 0.5 0.5 0.5
   IDIPOL = 3
   LDIPOL = .TRUE.
   GGA = RE
   IVDW = 13
   VDW_S8 = 1.7468
   VDW_A1 = 0.5363
   VDW_A2 = 3.0726
   ENCUT = 520
   PREC = Accurate
   LASPH = .TRUE.
   LREAL = Auto
   ISPIN = 1
   NELM = 200
   NELMIN = 8
   NCORE = 2
   KPAR = 1
   LWAVE = .FALSE.
   LCHARG = .FALSE.

 POTCAR:    PAW_PBE Mg_pv 13Apr2007               
 POTCAR:    PAW_PBE O 08Apr2002                   
 -----------------------------------------------------------------------------
|                                                                             |
|           W    W    AA    RRRRR   N    N  II  N    N   GGGG   !!!           |
|           W    W   A  A   R    R  NN   N  II  NN   N  G    G  !!!           |
|           W    W  A    A  R    R  N N  N  II  N N  N  G       !!!           |
|           W WW W  AAAAAA  RRRRR   N  N N  II  N  N N  G  GGG   !            |
|           WW  WW  A    A  R   R   N   NN  II  N   NN  G    G                |
|           W    W  A    A  R    R  N    N  II  N    N   GGGG   !!!           |
|                                                                             |
|     For optimal performance we recommend to set                             |
|       NCORE = 2 up to number-of-cores-per-socket                            |
|     NCORE specifies how many cores store one orbital (NPAR=cpu/NCORE).      |
|     This setting can greatly improve the performance of VASP for DFT.       |
|     The default, NCORE=1 might be grossly inefficient on modern             |
|     multi-core architectures or massively parallel machines. Do your        |
|     own testing! More info at https://www.vasp.at/wiki/index.php/NCORE      |
|     Unfortunately you need to use the default for GW and RPA                |
|     calculations (for HF NCORE is supported but not extensively tested      |
|     yet).                                                                   |
|                                                                             |
 -----------------------------------------------------------------------------

 POTCAR:    PAW_PBE Mg_pv 13Apr2007               
   SHA256 =  f474ac0dd33840b9ae76c01d57fea79fdf77cdfbb07d5ade72c65f83c709b62b Mg_pv/POTCAR          
   COPYR  = (c) Copyright 13Apr2007 Georg Kresse                                                    
   COPYR  = This file is part of the software VASP. Any use, copying, and all other rights are regul
   COPYR  = If you do not have a valid VASP license, you may not use, copy or distribute this file. 
   VRHFIN =Mg: p6s2                                                                                 
   LEXCH  = PE                                                                                      
   EATOM  =  1056.7344 eV,   77.6678 Ry                                                             
                                                                                                    
   TITEL  = PAW_PBE Mg_pv 13Apr2007                                                                 
   LULTRA =        F    use ultrasoft PP ?                                                          
   IUNSCR =        1    unscreen: 0-lin 1-nonlin 2-no                                               
   RPACOR =    1.500    partial core radius                                                         
   POMASS =   24.305; ZVAL   =    8.000    mass and valenz                                          
   RCORE  =    2.000    outmost cutoff radius                                                       
   RWIGS  =    2.000; RWIGS  =    1.058    wigner-seitz radius (au A)                               
   ENMAX  =  403.929; ENMIN  =  302.947 eV                                                          
   RCLOC  =    1.506    cutoff for local pot                                                        
   LCOR   =        T    correct aug charges                                                         
   LPAW   =        T    paw PP                                                                      
   EAUG   =  758.780                                                                                
   DEXC   =    0.000                                                                                
   RMAX   =    2.045    core radius for proj-oper                                                   
   RAUG   =    1.300    factor for augmentation sphere                                              
   RDEP   =    2.025    radius for radial grids                                                     
   RDEPT  =    1.557    core radius for aug-charge                                                  
                                                                                                    
   Atomic configuration                                                                             
    5 entries                                                                                       
     n  l   j            E        occ.                                                              
     1  0  0.50     -1259.6230   2.0000                                                             
     2  0  0.50       -79.8442   2.0000                                                             
     2  1  1.50       -46.6121   6.0000                                                             
     3  0  0.50        -4.7055   2.0000                                                             
     3  2  1.50        -1.3606   0.0000                                                             
   Description                                                                                      
     l       E           TYP  RCUT    TYP  RCUT                                                     
     1    -46.6121073     23  1.600                                                                 
     1      2.7211652     23  1.600                                                                 
     0     -4.7054661     23  2.000                                                                 
     0     61.2262170     23  2.000                                                                 
     2     -1.3605826     23  2.000                                                                 
  local pseudopotential read in
  partial core-charges read in
  partial kinetic energy density read in
  atomic valenz-charges read in
  non local Contribution for L=           1  read in
    real space projection operators read in
  non local Contribution for L=           1  read in
    real space projection operators read in
  non local Contribution for L=           0  read in
    real space projection operators read in
  non local Contribution for L=           0  read in
    real space projection operators read in
  non local Contribution for L=           2  read in
    real space projection operators read in
    PAW grid and wavefunctions read in
 
   number of l-projection  operators is LMAX  =           5
   number of lm-projection operators is LMMAX =          13
 
 POTCAR:    PAW_PBE O 08Apr2002                   
   SHA256 =  818f92134a0a090dccd8ba1447fa70422a3b330e708bb4f08108d8ae51209ddf O/POTCAR              
   COPYR  = (c) Copyright 08Apr2002 Georg Kresse                                                    
   COPYR  = This file is part of the software VASP. Any use, copying, and all other rights are regul
   COPYR  = If you do not have a valid VASP license, you may not use, copy or distribute this file. 
   VRHFIN =O: s2p4                                                                                  
   LEXCH  = PE                                                                                      
   EATOM  =   432.3788 eV,   31.7789 Ry                                                             
                                                                                                    
   TITEL  = PAW_PBE O 08Apr2002                                                                     
   LULTRA =        F    use ultrasoft PP ?                                                          
   IUNSCR =        1    unscreen: 0-lin 1-nonlin 2-no                                               
   RPACOR =    1.200    partial core radius                                                         
   POMASS =   16.000; ZVAL   =    6.000    mass and valenz                                          
   RCORE  =    1.520    outmost cutoff radius                                                       
   RWIGS  =    1.550; RWIGS  =    0.820    wigner-seitz radius (au A)                               
   ENMAX  =  400.000; ENMIN  =  300.000 eV                                                          
   ICORE  =        2    local potential                                                             
   LCOR   =        T    correct aug charges                                                         
   LPAW   =        T    paw PP                                                                      
   EAUG   =  605.392                                                                                
   DEXC   =    0.000                                                                                
   RMAX   =    1.553    core radius for proj-oper                                                   
   RAUG   =    1.300    factor for augmentation sphere                                              
   RDEP   =    1.550    radius for radial grids                                                     
   RDEPT  =    1.329    core radius for aug-charge                                                  
                                                                                                    
   Atomic configuration                                                                             
    4 entries                                                                                       
     n  l   j            E        occ.                                                              
     1  0  0.50      -514.6923   2.0000                                                             
     2  0  0.50       -23.9615   2.0000                                                             
     2  1  0.50        -9.0305   4.0000                                                             
     3  2  1.50        -9.5241   0.0000                                                             
   Description                                                                                      
     l       E           TYP  RCUT    TYP  RCUT                                                     
     0    -23.9615318     23  1.200                                                                 
     0     -9.5240782     23  1.200                                                                 
     1     -9.0304911     23  1.520                                                                 
     1      8.1634956     23  1.520                                                                 
     2     -9.5240782      7  1.500                                                                 
  local pseudopotential read in
  partial core-charges read in
  partial kinetic energy density read in
  kinetic energy density of atom read in
  atomic valenz-charges read in
  non local Contribution for L=           0  read in
    real space projection operators read in
  non local Contribution for L=           0  read in
    real space projection operators read in
  non local Contribution for L=           1  read in
    real space projection operators read in
  non local Contribution for L=           1  read in
    real space projection operators read in
    PAW grid and wavefunctions read in
 
   number of l-projection  operators is LMAX  =           4
   number of lm-projection operators is LMMAX =           8
 
 Optimization of the real space projectors (new method)

 maximal supplied QI-value         = 18.90
 optimisation between [QCUT,QGAM] = [ 11.53, 23.24] = [ 37.21,151.29] Ry 
 Optimized for a Real-space Cutoff    1.28 Angstroem

   l    n(q)    QCUT    max X(q) W(low)/X(q) W(high)/X(q)  e(spline) 
   1      8    11.527     2.974    0.44E-04    0.56E-04    0.12E-06
   1      8    11.527     4.279    0.12E-03    0.12E-03    0.26E-06
   0      9    11.527    16.381    0.46E-04    0.64E-04    0.78E-07
   0      9    11.527     5.611    0.26E-04    0.43E-04    0.55E-07
   2      8    11.527     4.652    0.22E-03    0.72E-04    0.47E-07
 Optimization of the real space projectors (new method)

 maximal supplied QI-value         = 24.76
 optimisation between [QCUT,QGAM] = [ 11.64, 23.27] = [ 37.91,151.63] Ry 
 Optimized for a Real-space Cutoff    1.14 Angstroem

   l    n(q)    QCUT    max X(q) W(low)/X(q) W(high)/X(q)  e(spline) 
   0      8    11.635    20.381    0.10E-03    0.33E-03    0.24E-06
   0      8    11.635    15.268    0.11E-03    0.35E-03    0.26E-06
   1      7    11.635     5.964    0.24E-03    0.31E-03    0.30E-06
   1      7    11.635     5.382    0.22E-03    0.25E-03    0.26E-06
 -----------------------------------------------------------------------------
|                                                                             |
|               ----> ADVICE to this user running VASP <----                  |
|                                                                             |
|     You enforced a specific xc type in the INCAR file but a different       |
|     type was found in the POTCAR file.                                      |
|     I HOPE YOU KNOW WHAT YOU ARE DOING!                                     |
|                                                                             |
 -----------------------------------------------------------------------------

  PAW_PBE Mg_pv 13Apr2007               :
 energy of atom  1       EATOM=-1056.7344
 kinetic energy error for atom=    0.0340 (will be added to EATOM!!)
  PAW_PBE O 08Apr2002                   :
 energy of atom  2       EATOM= -432.3788
 kinetic energy error for atom=    0.0208 (will be added to EATOM!!)
 
 
 POSCAR: Mg  O
  positions in direct lattice
  No initial velocities read in
 -----------------------------------------------------------------------------
|                                                                             |
|           W    W    AA    RRRRR   N    N  II  N    N   GGGG   !!!           |
|           W    W   A  A   R    R  NN   N  II  NN   N  G    G  !!!           |
|           W    W  A    A  R    R  N N  N  II  N N  N  G       !!!           |
|           W WW W  AAAAAA  RRRRR   N  N N  II  N  N N  G  GGG   !            |
|           WW  WW  A    A  R   R   N   NN  II  N   NN  G    G                |
|           W    W  A    A  R    R  N    N  II  N    N   GGGG   !!!           |
|                                                                             |
|     Specifying the vdW parameters                                           |
|     VDW_S8 = 1.747                                                          |
|     VDW_A1 = 0.536                                                          |
|     VDW_A2 = 3.073                                                          |
|     in the INCAR file will overwrite the defaults for revpbe. Please        |
|     make sure that is what you intended.                                    |
|                                                                             |
 -----------------------------------------------------------------------------

 exchange correlation table for  LEXCH =       40
   RHO(1)=    0.500       N(1)  =     2000
   RHO(2)=  100.500       N(2)  =     4000
 


--------------------------------------------------------------------------------------------------------


 ion  position               nearest neighbor table
   1  0.125  0.000  0.353- 131 2.09 132 2.09 148 2.09 171 2.09 129 2.09
   2  0.250  0.125  0.353- 131 2.09 132 2.09 140 2.09 147 2.09 130 2.09
   3  0.125  0.125  0.451- 129 2.09 130 2.09 137 2.09 146 2.09 131 2.09 135 2.09
   4  0.250  0.000  0.451- 129 2.09 130 2.09 145 2.09 170 2.09 132 2.09 136 2.09
   5  0.125  0.000  0.549- 136 2.09 135 2.09 152 2.09 175 2.09 129 2.09 133 2.12
   6  0.250  0.125  0.549- 151 2.09 144 2.09 135 2.09 136 2.09 130 2.10 134 2.12
   7  0.125  0.125  0.647- 135 2.07 134 2.09 141 2.09 133 2.09 150 2.09
   8  0.250  0.000  0.647- 136 2.08 134 2.09 149 2.09 174 2.09 133 2.09
   9  0.125  0.250  0.353- 131 2.09 139 2.09 140 2.09 156 2.09 137 2.09
  10  0.250  0.375  0.353- 139 2.09 140 2.09 155 2.09 164 2.09 138 2.09
  11  0.125  0.375  0.451- 137 2.09 138 2.09 154 2.09 161 2.09 139 2.09 143 2.09
  12  0.250  0.250  0.451- 130 2.09 137 2.09 138 2.09 153 2.09 140 2.09 144 2.09
  13  0.125  0.250  0.549- 144 2.09 143 2.09 135 2.09 160 2.09 137 2.10 141 2.12
  14  0.250  0.375  0.549- 159 2.08 144 2.09 168 2.09 143 2.09 138 2.10 142 2.12
  15  0.125  0.375  0.647- 143 2.07 165 2.09 141 2.09 158 2.09 142 2.09
  16  0.250  0.250  0.647- 144 2.07 157 2.09 142 2.09 134 2.09 141 2.09
  17  0.375  0.000  0.353- 132 2.09 147 2.09 187 2.09 212 2.09 145 2.09
  18  0.000  0.125  0.353- 131 2.09 148 2.09 156 2.09 211 2.09 146 2.09
  19  0.375  0.125  0.451- 130 2.09 145 2.09 153 2.09 210 2.09 147 2.09 151 2.09
  20  0.000  0.000  0.451- 129 2.09 146 2.09 186 2.09 209 2.09 148 2.09 152 2.09
  21  0.375  0.000  0.549- 151 2.09 216 2.09 136 2.09 191 2.09 145 2.10 149 2.12
  22  1.000  0.125  0.549- 160 2.09 135 2.09 215 2.09 152 2.09 146 2.10 150 2.12
  23  0.375  0.125  0.647- 151 2.07 157 2.09 214 2.09 134 2.09 149 2.09
  24  1.000  0.000  0.647- 152 2.07 213 2.09 150 2.09 133 2.09 190 2.09
  25  0.375  0.250  0.353- 140 2.09 147 2.09 155 2.09 220 2.09 153 2.09
  26  0.000  0.375  0.353- 139 2.09 156 2.09 180 2.09 219 2.09 154 2.09
  27  0.375  0.375  0.451- 159 2.09 153 2.09 138 2.09 177 2.09 218 2.09 155 2.09
  28  0.000  0.250  0.451- 137 2.09 146 2.09 154 2.09 217 2.09 156 2.09 160 2.09
  29  0.375  0.250  0.549- 159 2.08 224 2.09 144 2.09 151 2.09 153 2.10 157 2.12
  30  1.000  0.375  0.549- 160 2.09 184 2.09 143 2.09 223 2.09 154 2.10 158 2.12
  31  0.376  0.375  0.647- 222 2.08 159 2.08 181 2.09 157 2.09 142 2.10
  32  1.000  0.250  0.647- 160 2.08 158 2.09 150 2.09 141 2.09 221 2.09
  33  0.125  0.500  0.353- 139 2.09 163 2.09 164 2.09 180 2.09 161 2.09
  34  0.250  0.625  0.353- 163 2.09 164 2.09 172 2.09 179 2.09 162 2.09
  35  0.125  0.625  0.451- 161 2.09 162 2.09 169 2.09 178 2.09 163 2.09 167 2.09
  36  0.250  0.500  0.451- 138 2.09 161 2.09 162 2.09 177 2.09 164 2.09 168 2.09
  37  0.125  0.500  0.549- 168 2.09 143 2.09 184 2.09 167 2.09 161 2.09 165 2.12
  38  0.250  0.625  0.549- 183 2.09 168 2.09 167 2.09 176 2.09 162 2.09 166 2.12
  39  0.125  0.625  0.647- 167 2.08 166 2.09 165 2.09 182 2.09 173 2.09
  40  0.250  0.500  0.647- 168 2.07 181 2.08 142 2.09 166 2.09 165 2.09
  41  0.125  0.750  0.353- 163 2.09 171 2.09 172 2.09 188 2.09 169 2.09
  42  0.250  0.875  0.353- 132 2.09 171 2.09 172 2.09 187 2.09 170 2.09
  43  0.125  0.875  0.451- 129 2.09 169 2.09 170 2.09 186 2.09 171 2.09 175 2.09
  44  0.250  0.750  0.451- 162 2.09 169 2.09 170 2.09 185 2.09 172 2.09 176 2.09
  45  0.125  0.750  0.549- 167 2.09 176 2.09 175 2.09 192 2.09 169 2.10 173 2.12
  46  0.250  0.875  0.549- 191 2.09 176 2.09 175 2.09 136 2.09 170 2.10 174 2.12
  47  0.125  0.875  0.647- 175 2.07 190 2.09 173 2.09 133 2.09 174 2.09
  48  0.250  0.750  0.647- 176 2.08 166 2.09 189 2.09 173 2.09 174 2.09
  49  0.375  0.500  0.353- 155 2.09 164 2.09 179 2.09 244 2.09 177 2.09
  50  0.000  0.625  0.353- 163 2.09 180 2.09 188 2.09 243 2.09 178 2.09
  51  0.375  0.625  0.451- 162 2.09 177 2.09 185 2.09 242 2.09 179 2.09 183 2.09
  52  0.000  0.500  0.451- 154 2.09 161 2.09 178 2.09 241 2.09 180 2.09 184 2.09
  53  0.375  0.500  0.549- 248 2.08 159 2.09 183 2.09 168 2.09 177 2.10 181 2.11
  54  1.000  0.625  0.549- 247 2.09 167 2.09 192 2.09 184 2.09 178 2.09 182 2.12
  55  0.375  0.625  0.647- 183 2.07 181 2.08 246 2.09 166 2.09 189 2.09
  56  0.000  0.500  0.647- 184 2.07 158 2.09 165 2.09 182 2.09 245 2.09
  57  0.375  0.750  0.353- 172 2.09 179 2.09 187 2.09 252 2.09 185 2.09
  58  0.000  0.875  0.353- 148 2.09 171 2.09 188 2.09 251 2.09 186 2.09
  59  0.375  0.875  0.451- 145 2.09 170 2.09 185 2.09 250 2.09 187 2.09 191 2.09
  60  0.000  0.750  0.451- 169 2.09 178 2.09 186 2.09 249 2.09 188 2.09 192 2.09
  61  0.375  0.750  0.549- 183 2.09 256 2.09 176 2.09 191 2.09 185 2.10 189 2.12
  62  1.000  0.875  0.549- 192 2.09 255 2.09 175 2.09 152 2.09 186 2.09 190 2.12
  63  0.375  0.875  0.647- 191 2.08 254 2.09 174 2.09 189 2.09 149 2.09
  64  0.000  0.750  0.647- 192 2.08 173 2.09 253 2.09 182 2.09 190 2.09
  65  0.625  0.000  0.353- 195 2.09 196 2.09 212 2.09 235 2.09 193 2.09
  66  0.750  0.125  0.353- 195 2.09 196 2.09 204 2.09 211 2.09 194 2.09
  67  0.625  0.125  0.451- 193 2.09 194 2.09 201 2.09 210 2.09 195 2.09 199 2.09
  68  0.750  0.000  0.451- 193 2.09 194 2.09 209 2.09 234 2.09 196 2.09 200 2.09
  69  0.625  0.000  0.549- 199 2.09 216 2.09 200 2.09 239 2.09 193 2.09 197 2.12
  70  0.750  0.125  0.549- 199 2.09 208 2.09 215 2.09 200 2.09 194 2.10 198 2.12
  71  0.625  0.125  0.647- 199 2.07 205 2.08 214 2.09 198 2.09 197 2.09
  72  0.750  0.000  0.647- 200 2.08 198 2.09 238 2.09 197 2.09 213 2.09
  73  0.625  0.250  0.353- 195 2.09 203 2.09 204 2.09 220 2.09 201 2.09
  74  0.750  0.375  0.353- 203 2.09 204 2.09 219 2.09 228 2.09 202 2.09
  75  0.625  0.375  0.451- 207 2.09 202 2.09 201 2.09 218 2.09 225 2.09 203 2.09
  76  0.750  0.250  0.451- 194 2.09 201 2.09 202 2.09 217 2.09 204 2.09 208 2.09
  77  0.625  0.250  0.549- 207 2.08 224 2.09 208 2.09 199 2.09 201 2.10 205 2.12
  78  0.750  0.375  0.549- 207 2.08 208 2.09 232 2.09 223 2.09 202 2.10 206 2.13
  79  0.624  0.375  0.647- 222 2.08 207 2.09 229 2.09 205 2.09 206 2.10
  80  0.750  0.250  0.647- 208 2.07 205 2.08 206 2.09 198 2.09 221 2.09
  81  0.875  0.000  0.353- 148 2.09 196 2.09 211 2.09 251 2.09 209 2.09
  82  0.500  0.125  0.353- 147 2.09 195 2.09 212 2.09 220 2.09 210 2.09
  83  0.875  0.125  0.451- 146 2.09 194 2.09 209 2.09 217 2.09 211 2.09 215 2.09
  84  0.500  0.000  0.451- 145 2.09 193 2.09 210 2.09 250 2.09 212 2.09 216 2.09
  85  0.875  0.000  0.549- 215 2.09 200 2.09 255 2.09 152 2.09 209 2.10 213 2.12
  86  0.500  0.125  0.549- 224 2.08 199 2.09 151 2.09 216 2.09 210 2.10 214 2.12
  87  0.875  0.125  0.647- 215 2.08 198 2.09 221 2.09 213 2.09 150 2.09
  88  0.500  0.000  0.647- 216 2.07 197 2.09 149 2.09 254 2.09 214 2.09
  89  0.875  0.250  0.353- 156 2.09 204 2.09 211 2.09 219 2.09 217 2.09
  90  0.500  0.375  0.353- 155 2.09 203 2.09 220 2.09 244 2.09 218 2.09
  91  0.875  0.375  0.451- 154 2.09 202 2.09 217 2.09 241 2.09 219 2.09 223 2.09
  92  0.500  0.250  0.451- 224 2.08 201 2.09 210 2.09 218 2.09 153 2.09 220 2.09
  93  0.875  0.250  0.549- 208 2.09 223 2.09 215 2.09 160 2.09 217 2.10 221 2.12
  94  0.500  0.375  0.549- 222 2.07 218 2.09 248 2.09 207 2.09 159 2.09 224 2.09
  95  0.875  0.375  0.647- 223 2.07 245 2.09 221 2.09 206 2.09 158 2.09
  96  0.500  0.251  0.647- 222 2.08 224 2.08 205 2.09 157 2.09 214 2.10
  97  0.625  0.500  0.353- 203 2.09 227 2.09 228 2.09 244 2.09 225 2.09
  98  0.750  0.625  0.353- 227 2.09 228 2.09 236 2.09 243 2.09 226 2.09
  99  0.625  0.625  0.451- 231 2.09 226 2.09 225 2.09 233 2.09 242 2.09 227 2.09
 100  0.750  0.500  0.451- 232 2.09 225 2.09 226 2.09 202 2.09 241 2.09 228 2.09
 101  0.625  0.500  0.549- 207 2.09 248 2.09 231 2.09 232 2.09 225 2.10 229 2.11
 102  0.750  0.625  0.549- 232 2.09 231 2.09 240 2.09 247 2.09 226 2.09 230 2.12
 103  0.625  0.625  0.646- 231 2.07 229 2.08 246 2.09 237 2.09 230 2.09
 104  0.750  0.500  0.646- 232 2.07 229 2.08 206 2.09 230 2.09 245 2.09
 105  0.625  0.750  0.353- 227 2.09 235 2.09 236 2.09 252 2.09 233 2.09
 106  0.750  0.875  0.353- 196 2.09 235 2.09 236 2.09 251 2.09 234 2.09
 107  0.625  0.875  0.451- 193 2.09 233 2.09 234 2.09 250 2.09 235 2.09 239 2.09
 108  0.750  0.750  0.451- 226 2.09 233 2.09 234 2.09 249 2.09 236 2.09 240 2.09
 109  0.625  0.750  0.549- 231 2.09 239 2.09 256 2.09 240 2.09 233 2.09 237 2.12
 110  0.750  0.875  0.549- 240 2.09 255 2.09 239 2.09 200 2.09 234 2.10 238 2.12
 111  0.625  0.875  0.647- 239 2.07 254 2.09 237 2.09 238 2.09 197 2.09
 112  0.750  0.750  0.647- 240 2.08 230 2.09 237 2.09 238 2.09 253 2.09
 113  0.875  0.500  0.353- 180 2.09 219 2.09 228 2.09 243 2.09 241 2.09
 114  0.500  0.625  0.353- 179 2.09 227 2.09 244 2.09 252 2.09 242 2.09
 115  0.875  0.625  0.451- 178 2.09 226 2.09 241 2.09 249 2.09 243 2.09 247 2.09
 116  0.500  0.500  0.451- 248 2.09 218 2.09 225 2.09 242 2.09 177 2.09 244 2.09
 117  0.875  0.500  0.549- 232 2.08 223 2.09 184 2.09 247 2.09 241 2.09 245 2.12
 118  0.500  0.625  0.549- 248 2.08 183 2.09 231 2.09 256 2.09 242 2.10 246 2.13
 119  0.875  0.625  0.647- 247 2.08 230 2.09 245 2.09 182 2.09 253 2.09
 120  0.500  0.499  0.647- 222 2.08 248 2.09 181 2.09 229 2.09 246 2.10
 121  0.875  0.750  0.353- 188 2.09 236 2.09 243 2.09 251 2.09 249 2.09
 122  0.500  0.875  0.353- 187 2.09 212 2.09 235 2.09 252 2.09 250 2.09
 123  0.875  0.875  0.451- 186 2.09 209 2.09 234 2.09 249 2.09 251 2.09 255 2.09
 124  0.500  0.750  0.451- 185 2.09 233 2.09 242 2.09 250 2.09 252 2.09 256 2.09
 125  0.875  0.750  0.549- 247 2.09 240 2.09 192 2.09 255 2.09 249 2.10 253 2.12
 126  0.500  0.875  0.549- 191 2.09 256 2.09 239 2.09 216 2.09 250 2.10 254 2.12
 127  0.875  0.875  0.647- 255 2.07 213 2.09 253 2.09 190 2.09 238 2.09
 128  0.500  0.750  0.647- 256 2.07 189 2.09 237 2.09 246 2.09 254 2.09
 129  0.125  0.000  0.451-   3 2.09   4 2.09  20 2.09  43 2.09   1 2.09   5 2.09
 130  0.250  0.125  0.451-   3 2.09   4 2.09  12 2.09  19 2.09   2 2.09   6 2.10
 131  0.125  0.125  0.353-   1 2.09   2 2.09   9 2.09  18 2.09   3 2.09
 132  0.250  0.000  0.353-   1 2.09   2 2.09  17 2.09  42 2.09   4 2.09
 133  0.125  1.000  0.649-  24 2.09  47 2.09   7 2.09   8 2.09   5 2.12
 134  0.250  0.125  0.649-   8 2.09   7 2.09  23 2.09  16 2.09   6 2.12
 135  0.125  0.125  0.549-   7 2.07   5 2.09  13 2.09  22 2.09   6 2.09   3 2.09
 136  0.250  1.000  0.549-   8 2.08   5 2.09  21 2.09  46 2.09   6 2.09   4 2.09
 137  0.125  0.250  0.451-   3 2.09  11 2.09  12 2.09  28 2.09   9 2.09  13 2.10
 138  0.250  0.375  0.451-  11 2.09  12 2.09  27 2.09  36 2.09  10 2.09  14 2.10
 139  0.125  0.375  0.353-   9 2.09  10 2.09  26 2.09  33 2.09  11 2.09
 140  0.250  0.250  0.353-   2 2.09   9 2.09  10 2.09  25 2.09  12 2.09
 141  0.125  0.250  0.649-  15 2.09   7 2.09  32 2.09  16 2.09  13 2.12
 142  0.250  0.375  0.649-  40 2.09  16 2.09  15 2.09  31 2.10  14 2.12
 143  0.125  0.375  0.549-  15 2.07  13 2.09  37 2.09  30 2.09  14 2.09  11 2.09
 144  0.250  0.250  0.549-  16 2.07  13 2.09   6 2.09  14 2.09  29 2.09  12 2.09
 145  0.375  0.000  0.451-   4 2.09  19 2.09  59 2.09  84 2.09  17 2.09  21 2.10
 146  0.000  0.125  0.451-   3 2.09  20 2.09  28 2.09  83 2.09  18 2.09  22 2.10
 147  0.375  0.125  0.353-   2 2.09  17 2.09  25 2.09  82 2.09  19 2.09
 148  0.000  0.000  0.353-   1 2.09  18 2.09  58 2.09  81 2.09  20 2.09
 149  0.375  1.000  0.649-  88 2.09   8 2.09  63 2.09  23 2.09  21 2.12
 150  1.000  0.125  0.649-  32 2.09  24 2.09  87 2.09   7 2.09  22 2.12
 151  0.375  0.125  0.549-  23 2.07   6 2.09  21 2.09  86 2.09  19 2.09  29 2.09
 152  0.000  0.000  0.549-  24 2.07  22 2.09  62 2.09   5 2.09  85 2.09  20 2.09
 153  0.375  0.250  0.451-  12 2.09  19 2.09  27 2.09  92 2.09  25 2.09  29 2.10
 154  0.000  0.375  0.451-  11 2.09  28 2.09  52 2.09  91 2.09  26 2.09  30 2.10
 155  0.375  0.375  0.353-  10 2.09  25 2.09  49 2.09  90 2.09  27 2.09
 156  0.000  0.250  0.353-   9 2.09  18 2.09  26 2.09  89 2.09  28 2.09
 157  0.375  0.250  0.649-  23 2.09  16 2.09  96 2.09  31 2.09  29 2.12
 158  1.000  0.375  0.649-  56 2.09  32 2.09  95 2.09  15 2.09  30 2.12
 159  0.375  0.375  0.549-  14 2.08  31 2.08  29 2.08  27 2.09  53 2.09  94 2.09
 160  1.000  0.250  0.549-  32 2.08  30 2.09  22 2.09  93 2.09  13 2.09  28 2.09
 161  0.125  0.500  0.451-  11 2.09  35 2.09  36 2.09  52 2.09  33 2.09  37 2.09
 162  0.250  0.625  0.451-  35 2.09  36 2.09  44 2.09  51 2.09  34 2.09  38 2.09
 163  0.125  0.625  0.353-  33 2.09  34 2.09  41 2.09  50 2.09  35 2.09
 164  0.250  0.500  0.353-  10 2.09  33 2.09  34 2.09  49 2.09  36 2.09
 165  0.125  0.500  0.649-  39 2.09  15 2.09  56 2.09  40 2.09  37 2.12
 166  0.250  0.625  0.649-  39 2.09  48 2.09  40 2.09  55 2.09  38 2.12
 167  0.125  0.625  0.549-  39 2.08  45 2.09  54 2.09  38 2.09  37 2.09  35 2.09
 168  0.250  0.500  0.549-  40 2.07  37 2.09  38 2.09  14 2.09  36 2.09  53 2.09
 169  0.125  0.750  0.451-  35 2.09  43 2.09  44 2.09  60 2.09  41 2.09  45 2.10
 170  0.250  0.875  0.451-   4 2.09  43 2.09  44 2.09  59 2.09  42 2.09  46 2.10
 171  0.125  0.875  0.353-   1 2.09  41 2.09  42 2.09  58 2.09  43 2.09
 172  0.250  0.750  0.353-  34 2.09  41 2.09  42 2.09  57 2.09  44 2.09
 173  0.125  0.750  0.649-  64 2.09  47 2.09  39 2.09  48 2.09  45 2.12
 174  0.250  0.875  0.649-  63 2.09  47 2.09   8 2.09  48 2.09  46 2.12
 175  0.125  0.875  0.549-  47 2.07  46 2.09  45 2.09  62 2.09   5 2.09  43 2.09
 176  0.250  0.750  0.549-  48 2.08  45 2.09  46 2.09  61 2.09  38 2.09  44 2.09
 177  0.375  0.500  0.451-  27 2.09  36 2.09  51 2.09 116 2.09  49 2.09  53 2.10
 178  0.000  0.625  0.451-  35 2.09  52 2.09  60 2.09 115 2.09  50 2.09  54 2.09
 179  0.375  0.625  0.353-  34 2.09  49 2.09  57 2.09 114 2.09  51 2.09
 180  0.000  0.500  0.353-  26 2.09  33 2.09  50 2.09 113 2.09  52 2.09
 181  0.375  0.500  0.649-  40 2.08  55 2.08  31 2.09 120 2.09  53 2.11
 182  1.000  0.625  0.649-  64 2.09 119 2.09  56 2.09  39 2.09  54 2.12
 183  0.375  0.625  0.549-  55 2.07  61 2.09  38 2.09 118 2.09  51 2.09  53 2.09
 184  0.000  0.500  0.549-  56 2.07  30 2.09  54 2.09  37 2.09 117 2.09  52 2.09
 185  0.375  0.750  0.451-  44 2.09  51 2.09  59 2.09 124 2.09  57 2.09  61 2.10
 186  0.000  0.875  0.451-  20 2.09  43 2.09  60 2.09 123 2.09  58 2.09  62 2.09
 187  0.375  0.875  0.353-  17 2.09  42 2.09  57 2.09 122 2.09  59 2.09
 188  0.000  0.750  0.353-  41 2.09  50 2.09  58 2.09 121 2.09  60 2.09
 189  0.375  0.750  0.649- 128 2.09  48 2.09  63 2.09  55 2.09  61 2.12
 190  1.000  0.875  0.649-  47 2.09 127 2.09  24 2.09  64 2.09  62 2.12
 191  0.375  0.875  0.549-  63 2.08  46 2.09 126 2.09  61 2.09  21 2.09  59 2.09
 192  1.000  0.750  0.549-  64 2.08  54 2.09  62 2.09 125 2.09  45 2.09  60 2.09
 193  0.625  0.000  0.451-  67 2.09  68 2.09  84 2.09 107 2.09  65 2.09  69 2.09
 194  0.750  0.125  0.451-  67 2.09  68 2.09  76 2.09  83 2.09  66 2.09  70 2.10
 195  0.625  0.125  0.353-  65 2.09  66 2.09  73 2.09  82 2.09  67 2.09
 196  0.750  0.000  0.353-  65 2.09  66 2.09  81 2.09 106 2.09  68 2.09
 197  0.625  1.000  0.649-  88 2.09  72 2.09 111 2.09  71 2.09  69 2.12
 198  0.750  0.125  0.649-  72 2.09  87 2.09  71 2.09  80 2.09  70 2.12
 199  0.625  0.125  0.549-  71 2.07  69 2.09  70 2.09  86 2.09  67 2.09  77 2.09
 200  0.750  1.000  0.549-  72 2.08  85 2.09 110 2.09  69 2.09  70 2.09  68 2.09
 201  0.625  0.250  0.451-  67 2.09  75 2.09  76 2.09  92 2.09  73 2.09  77 2.10
 202  0.750  0.375  0.451-  75 2.09  76 2.09  91 2.09 100 2.09  74 2.09  78 2.10
 203  0.625  0.375  0.353-  73 2.09  74 2.09  90 2.09  97 2.09  75 2.09
 204  0.750  0.250  0.353-  66 2.09  73 2.09  74 2.09  89 2.09  76 2.09
 205  0.625  0.250  0.649-  71 2.08  80 2.08  96 2.09  79 2.09  77 2.12
 206  0.750  0.375  0.649- 104 2.09  80 2.09  95 2.09  79 2.10  78 2.13
 207  0.625  0.375  0.549-  78 2.08  77 2.08 101 2.09  75 2.09  79 2.09  94 2.09
 208  0.750  0.250  0.549-  80 2.07  93 2.09  70 2.09  78 2.09  76 2.09  77 2.09
 209  0.875  0.000  0.451-  20 2.09  68 2.09  83 2.09 123 2.09  81 2.09  85 2.10
 210  0.500  0.125  0.451-  19 2.09  67 2.09  84 2.09  92 2.09  82 2.09  86 2.10
 211  0.875  0.125  0.353-  18 2.09  66 2.09  81 2.09  89 2.09  83 2.09
 212  0.500  0.000  0.353-  17 2.09  65 2.09  82 2.09 122 2.09  84 2.09
 213  0.875  1.000  0.649- 127 2.09  24 2.09  87 2.09  72 2.09  85 2.12
 214  0.500  0.125  0.649-  23 2.09  71 2.09  88 2.09  96 2.10  86 2.12
 215  0.875  0.125  0.549-  87 2.08  85 2.09  22 2.09  93 2.09  70 2.09  83 2.09
 216  0.500  0.000  0.549-  88 2.07  21 2.09  69 2.09 126 2.09  86 2.09  84 2.09
 217  0.875  0.250  0.451-  28 2.09  76 2.09  83 2.09  91 2.09  89 2.09  93 2.10
 218  0.500  0.375  0.451-  27 2.09  75 2.09  92 2.09 116 2.09  90 2.09  94 2.09
 219  0.875  0.375  0.353-  26 2.09  74 2.09  89 2.09 113 2.09  91 2.09
 220  0.500  0.250  0.353-  25 2.09  73 2.09  82 2.09  90 2.09  92 2.09
 221  0.875  0.250  0.649-  87 2.09  32 2.09  95 2.09  80 2.09  93 2.12
 222  0.500  0.375  0.647-  94 2.07  31 2.08  96 2.08  79 2.08 120 2.08
 223  0.875  0.375  0.549-  95 2.07  93 2.09 117 2.09  30 2.09  91 2.09  78 2.09
 224  0.500  0.250  0.549-  86 2.08  96 2.08  92 2.08  29 2.09  77 2.09  94 2.09
 225  0.625  0.500  0.451-  75 2.09  99 2.09 100 2.09 116 2.09  97 2.09 101 2.10
 226  0.750  0.625  0.451-  99 2.09 100 2.09 108 2.09 115 2.09  98 2.09 102 2.09
 227  0.625  0.625  0.353-  97 2.09  98 2.09 105 2.09 114 2.09  99 2.09
 228  0.750  0.500  0.353-  74 2.09  97 2.09  98 2.09 113 2.09 100 2.09
 229  0.625  0.500  0.649- 103 2.08 104 2.08  79 2.09 120 2.09 101 2.11
 230  0.750  0.625  0.649- 112 2.09 119 2.09 104 2.09 103 2.09 102 2.12
 231  0.625  0.625  0.549- 103 2.07 109 2.09 102 2.09  99 2.09 118 2.09 101 2.09
 232  0.750  0.500  0.549- 104 2.07 117 2.08 102 2.09 100 2.09  78 2.09 101 2.09
 233  0.625  0.750  0.451-  99 2.09 107 2.09 108 2.09 124 2.09 105 2.09 109 2.09
 234  0.750  0.875  0.451-  68 2.09 107 2.09 108 2.09 123 2.09 106 2.09 110 2.10
 235  0.625  0.875  0.353-  65 2.09 105 2.09 106 2.09 122 2.09 107 2.09
 236  0.750  0.750  0.353-  98 2.09 105 2.09 106 2.09 121 2.09 108 2.09
 237  0.625  0.750  0.649- 128 2.09 111 2.09 112 2.09 103 2.09 109 2.12
 238  0.750  0.875  0.649-  72 2.09 127 2.09 111 2.09 112 2.09 110 2.12
 239  0.625  0.875  0.549- 111 2.07 109 2.09 110 2.09 126 2.09  69 2.09 107 2.09
 240  0.750  0.750  0.549- 112 2.08 110 2.09 125 2.09 102 2.09 109 2.09 108 2.09
 241  0.875  0.500  0.451-  52 2.09  91 2.09 100 2.09 115 2.09 113 2.09 117 2.09
 242  0.500  0.625  0.451-  51 2.09  99 2.09 116 2.09 124 2.09 114 2.09 118 2.10
 243  0.875  0.625  0.353-  50 2.09  98 2.09 113 2.09 121 2.09 115 2.09
 244  0.500  0.500  0.353-  49 2.09  90 2.09  97 2.09 114 2.09 116 2.09
 245  0.875  0.500  0.649- 119 2.09  95 2.09  56 2.09 104 2.09 117 2.12
 246  0.500  0.625  0.649-  55 2.09 103 2.09 128 2.09 120 2.10 118 2.13
 247  0.875  0.625  0.549- 119 2.08 125 2.09  54 2.09 102 2.09 117 2.09 115 2.09
 248  0.500  0.500  0.549- 118 2.08  53 2.08 101 2.09 116 2.09 120 2.09  94 2.09
 249  0.875  0.750  0.451-  60 2.09 108 2.09 115 2.09 123 2.09 121 2.09 125 2.10
 250  0.500  0.875  0.451-  59 2.09  84 2.09 107 2.09 124 2.09 122 2.09 126 2.10
 251  0.875  0.875  0.353-  58 2.09  81 2.09 106 2.09 121 2.09 123 2.09
 252  0.500  0.750  0.353-  57 2.09 105 2.09 114 2.09 122 2.09 124 2.09
 253  0.875  0.750  0.649-  64 2.09 127 2.09 119 2.09 112 2.09 125 2.12
 254  0.500  0.875  0.649- 111 2.09  63 2.09 128 2.09  88 2.09 126 2.12
 255  0.875  0.875  0.549- 127 2.07 110 2.09  62 2.09 125 2.09  85 2.09 123 2.09
 256  0.500  0.750  0.549- 128 2.07  61 2.09 109 2.09 126 2.09 118 2.09 124 2.09
 

IMPORTANT INFORMATION: All symmetrisations will be switched off!
NOSYMM: (Re-)initialisation of all symmetry stuff for point group C_1.


----------------------------------------------------------------------------------------

                                     Primitive cell                                     

  volume of cell :    5928.4515

  direct lattice vectors                    reciprocal lattice vectors
    16.698223653  0.000000000  0.000000000     0.059886610  0.000000000  0.000000000
     0.000000000 16.698223653  0.000000000     0.000000000  0.059886610  0.000000000
     0.000000000  0.000000000 21.261833870     0.000000000  0.000000000  0.047032632

  length of vectors
    16.698223653 16.698223653 21.261833870     0.059886610  0.059886610  0.047032632

  position of ions in fractional coordinates (direct lattice)
     0.125000000  0.000000000  0.352744737
     0.250000000  0.125000000  0.352744737
     0.125000000  0.125000000  0.450914912
     0.250000000  0.000000000  0.450914912
     0.125018514  0.000012952  0.549447386
     0.250042342  0.125033739  0.549475851
     0.125024383  0.125002606  0.646748844
     0.250014119  0.000008099  0.646765434
     0.125000000  0.250000000  0.352744737
     0.250000000  0.375000000  0.352744737
     0.125000000  0.375000000  0.450914912
     0.250000000  0.250000000  0.450914912
     0.125036090  0.250004967  0.549476191
     0.250123754  0.374997639  0.549488672
     0.125039994  0.374992645  0.646766312
     0.250109693  0.250076520  0.646750662
     0.375000000  0.000000000  0.352744737
     0.000000000  0.125000000  0.352744737
     0.375000000  0.125000000  0.450914912
     0.000000000  0.000000000  0.450914912
     0.374999097  0.000010652  0.549464890
     0.999995980  0.125020858  0.549448477
     0.375089973  0.125101860  0.646686439
     0.999995193  0.000001852  0.646703095
     0.375000000  0.250000000  0.352744737
     0.000000000  0.375000000  0.352744737
     0.375000000  0.375000000  0.450914912
     0.000000000  0.250000000  0.450914912
     0.375094953  0.250129870  0.549483579
     0.999998692  0.374974566  0.549460616
     0.375625540  0.375090461  0.646956077
     0.999999168  0.249996492  0.646755541
     0.125000000  0.500000000  0.352744737
     0.250000000  0.625000000  0.352744737
     0.125000000  0.625000000  0.450914912
     0.250000000  0.500000000  0.450914912
     0.125021752  0.499982227  0.549437445
     0.250011017  0.624975066  0.549438326
     0.125016908  0.624976962  0.646732725
     0.250095005  0.499944196  0.646620967
     0.125000000  0.750000000  0.352744737
     0.250000000  0.875000000  0.352744737
     0.125000000  0.875000000  0.450914912
     0.250000000  0.750000000  0.450914912
     0.125011528  0.749987145  0.549450587
     0.250008501  0.874984402  0.549463117
     0.124992405  0.874996512  0.646707654
     0.249998708  0.749970545  0.646772116
     0.375000000  0.500000000  0.352744737
     0.000000000  0.625000000  0.352744737
     0.375000000  0.625000000  0.450914912
     0.000000000  0.500000000  0.450914912
     0.375124141  0.499899837  0.549483122
     0.999997287  0.624986652  0.549434877
     0.375035065  0.624870940  0.646575863
     0.000008818  0.499976806  0.646700018
     0.375000000  0.750000000  0.352744737
     0.000000000  0.875000000  0.352744737
     0.375000000  0.875000000  0.450914912
     0.000000000  0.750000000  0.450914912
     0.374998545  0.749976114  0.549458097
     0.999994446  0.874990739  0.549417144
     0.374997017  0.874979205  0.646752291
     0.000000130  0.749981054  0.646704381
     0.625000000  0.000000000  0.352744737
     0.750000000  0.125000000  0.352744737
     0.625000000  0.125000000  0.450914912
     0.750000000  0.000000000  0.450914912
     0.624984390  0.000004456  0.549443692
     0.749959599  0.125023130  0.549459162
     0.624915611  0.125083281  0.646605089
     0.749972552  0.000000478  0.646754050
     0.625000000  0.250000000  0.352744737
     0.750000000  0.375000000  0.352744737
     0.625000000  0.375000000  0.450914912
     0.750000000  0.250000000  0.450914912
     0.624899720  0.250148853  0.549495531
     0.749817890  0.374990901  0.549495576
     0.624333060  0.375094437  0.647263582
     0.749870218  0.250051647  0.646670749
     0.875000000  0.000000000  0.352744737
     0.500000000  0.125000000  0.352744737
     0.875000000  0.125000000  0.450914912
     0.500000000  0.000000000  0.450914912
     0.874979301  0.000010133  0.549449258
     0.499994774  0.125120714  0.549451968
     0.874972996  0.125000982  0.646749972
     0.499988032  0.000034665  0.646753411
     0.875000000  0.250000000  0.352744737
     0.500000000  0.375000000  0.352744737
     0.875000000  0.375000000  0.450914912
     0.500000000  0.250000000  0.450914912
     0.874960746  0.250007734  0.549468098
     0.500039615  0.375076452  0.549274351
     0.874959914  0.375003986  0.646754782
     0.500042035  0.250633638  0.646837090
     0.625000000  0.500000000  0.352744737
     0.750000000  0.625000000  0.352744737
     0.625000000  0.625000000  0.450914912
     0.750000000  0.500000000  0.450914912
     0.624881458  0.499881111  0.549454781
     0.749989601  0.624988105  0.549410956
     0.624934351  0.624920007  0.646423181
     0.749911978  0.499958989  0.646480312
     0.625000000  0.750000000  0.352744737
     0.750000000  0.875000000  0.352744737
     0.625000000  0.875000000  0.450914912
     0.750000000  0.750000000  0.450914912
     0.624979370  0.750003630  0.549425749
     0.749990700  0.874981896  0.549461968
     0.624976022  0.874983182  0.646729081
     0.749987045  0.749971715  0.646765139
     0.875000000  0.500000000  0.352744737
     0.500000000  0.625000000  0.352744737
     0.875000000  0.625000000  0.450914912
     0.500000000  0.500000000  0.450914912
     0.874989763  0.499974688  0.549414852
     0.499984910  0.624829716  0.549477064
     0.874992308  0.624965839  0.646737658
     0.500031821  0.499361570  0.647298303
     0.875000000  0.750000000  0.352744737
     0.500000000  0.875000000  0.352744737
     0.875000000  0.875000000  0.450914912
     0.500000000  0.750000000  0.450914912
     0.874987151  0.749979321  0.549455846
     0.499980264  0.874967722  0.549474983
     0.874995906  0.874992511  0.646710954
     0.499986100  0.749928715  0.646791170
     0.125000000  0.000000000  0.450914912
     0.250000000  0.125000000  0.450914912
     0.125000000  0.125000000  0.352744737
     0.250000000  0.000000000  0.352744737
     0.124994836  0.999996698  0.649070509
     0.250004474  0.124981052  0.649199346
     0.125005923  0.124999985  0.549157198
     0.250000509  0.999991359  0.549152526
     0.125000000  0.250000000  0.450914912
     0.250000000  0.375000000  0.450914912
     0.125000000  0.375000000  0.352744737
     0.250000000  0.250000000  0.352744737
     0.124995642  0.249998397  0.649164905
     0.250073464  0.375020791  0.649424099
     0.125039209  0.374981311  0.549182068
     0.249964790  0.249979957  0.549193986
     0.375000000  0.000000000  0.450914912
     0.000000000  0.125000000  0.450914912
     0.375000000  0.125000000  0.352744737
     0.000000000  0.000000000  0.352744737
     0.375004819  0.999998800  0.649138434
     0.999993134  0.124999216  0.649073506
     0.374965113  0.124962555  0.549174454
     0.000001497  0.000007612  0.549133673
     0.375000000  0.250000000  0.450914912
     0.000000000  0.375000000  0.450914912
     0.375000000  0.375000000  0.352744737
     0.000000000  0.250000000  0.352744737
     0.374951111  0.249934993  0.649187067
     0.999999740  0.374987928  0.649094025
     0.374696104  0.374979043  0.548983225
     0.999997529  0.250005607  0.549151712
     0.125000000  0.500000000  0.450914912
     0.250000000  0.625000000  0.450914912
     0.125000000  0.625000000  0.352744737
     0.250000000  0.500000000  0.352744737
     0.125006596  0.499988556  0.649099234
     0.249966398  0.625005721  0.649170687
     0.124992790  0.625005579  0.549138311
     0.249917590  0.500018412  0.549125199
     0.125000000  0.750000000  0.450914912
     0.250000000  0.875000000  0.450914912
     0.125000000  0.875000000  0.352744737
     0.250000000  0.750000000  0.352744737
     0.124975149  0.749998141  0.649088238
     0.249995831  0.875002009  0.649110177
     0.125006012  0.874992643  0.549126574
     0.249993908  0.749999977  0.549158734
     0.375000000  0.500000000  0.450914912
     0.000000000  0.625000000  0.450914912
     0.375000000  0.625000000  0.352744737
     0.000000000  0.500000000  0.352744737
     0.374765061  0.500167441  0.648916285
     0.999997397  0.624983943  0.649064503
     0.374956055  0.625085570  0.549138124
     0.000006074  0.499971545  0.549143852
     0.375000000  0.750000000  0.450914912
     0.000000000  0.875000000  0.450914912
     0.375000000  0.875000000  0.352744737
     0.000000000  0.750000000  0.352744737
     0.375004195  0.749973158  0.649167503
     0.999998885  0.874992190  0.648998109
     0.374988119  0.874983037  0.549158846
     0.999995014  0.749985143  0.549107487
     0.625000000  0.000000000  0.450914912
     0.750000000  0.125000000  0.450914912
     0.625000000  0.125000000  0.352744737
     0.750000000  0.000000000  0.352744737
     0.624967562  0.999996436  0.649117221
     0.749995209  0.124957598  0.649181261
     0.625014885  0.124932921  0.549135140
     0.749990157  0.999985609  0.549153013
     0.625000000  0.250000000  0.450914912
     0.750000000  0.375000000  0.450914912
     0.625000000  0.375000000  0.352744737
     0.750000000  0.250000000  0.352744737
     0.625110335  0.249815633  0.649010352
     0.749950886  0.375029365  0.649474692
     0.625300454  0.374974691  0.549017329
     0.750053228  0.249973635  0.549169292
     0.875000000  0.000000000  0.450914912
     0.500000000  0.125000000  0.450914912
     0.875000000  0.125000000  0.352744737
     0.500000000  0.000000000  0.352744737
     0.875000082  0.999985077  0.649065203
     0.499996993  0.125104716  0.649316531
     0.874985502  0.124994753  0.549153466
     0.499981506  0.000014626  0.549184693
     0.875000000  0.250000000  0.450914912
     0.500000000  0.375000000  0.450914912
     0.875000000  0.375000000  0.352744737
     0.500000000  0.250000000  0.352744737
     0.874991886  0.249991541  0.649171278
     0.499973905  0.374992589  0.646591892
     0.874954347  0.374977899  0.549185131
     0.499979177  0.249706010  0.548951421
     0.625000000  0.500000000  0.450914912
     0.750000000  0.625000000  0.450914912
     0.625000000  0.625000000  0.352744737
     0.750000000  0.500000000  0.352744737
     0.625310135  0.500334602  0.648575905
     0.750024070  0.625010445  0.649180074
     0.625026673  0.625135154  0.549062601
     0.750136665  0.500031519  0.549062022
     0.625000000  0.750000000  0.450914912
     0.750000000  0.875000000  0.450914912
     0.625000000  0.875000000  0.352744737
     0.750000000  0.750000000  0.352744737
     0.624978400  0.749979437  0.649119740
     0.749986460  0.874995640  0.649114663
     0.624987686  0.874994037  0.549142135
     0.750004089  0.750002450  0.549157833
     0.875000000  0.500000000  0.450914912
     0.500000000  0.625000000  0.450914912
     0.875000000  0.625000000  0.352744737
     0.500000000  0.500000000  0.352744737
     0.874996246  0.499994322  0.649082243
     0.499986513  0.624934916  0.649449384
     0.875006113  0.625008348  0.549141001
     0.499971701  0.500321273  0.549017981
     0.875000000  0.750000000  0.450914912
     0.500000000  0.875000000  0.450914912
     0.875000000  0.875000000  0.352744737
     0.500000000  0.750000000  0.352744737
     0.875022343  0.749999070  0.649093947
     0.499991824  0.874977569  0.649112937
     0.874983299  0.874993975  0.549127040
     0.499982895  0.749960762  0.549200767

  ion indices of the primitive-cell ions
   primitive index   ion index
                 1           1
                 2           2
                 3           3
                 4           4
                 5           5
                 6           6
                 7           7
                 8           8
                 9           9
                10          10
                11          11
                12          12
                13          13
                14          14
                15          15
                16          16
                17          17
                18          18
                19          19
                20          20
                21          21
                22          22
                23          23
                24          24
                25          25
                26          26
                27          27
                28          28
                29          29
                30          30
                31          31
                32          32
                33          33
                34          34
                35          35
                36          36
                37          37
                38          38
                39          39
                40          40
                41          41
                42          42
                43          43
                44          44
                45          45
                46          46
                47          47
                48          48
                49          49
                50          50
                51          51
                52          52
                53          53
                54          54
                55          55
                56          56
                57          57
                58          58
                59          59
                60          60
                61          61
                62          62
                63          63
                64          64
                65          65
                66          66
                67          67
                68          68
                69          69
                70          70
                71          71
                72          72
                73          73
                74          74
                75          75
                76          76
                77          77
                78          78
                79          79
                80          80
                81          81
                82          82
                83          83
                84          84
                85          85
                86          86
                87          87
                88          88
                89          89
                90          90
                91          91
                92          92
                93          93
                94          94
                95          95
                96          96
                97          97
                98          98
                99          99
               100         100
               101         101
               102         102
               103         103
               104         104
               105         105
               106         106
               107         107
               108         108
               109         109
               110         110
               111         111
               112         112
               113         113
               114         114
               115         115
               116         116
               117         117
               118         118
               119         119
               120         120
               121         121
               122         122
               123         123
               124         124
               125         125
               126         126
               127         127
               128         128
               129         129
               130         130
               131         131
               132         132
               133         133
               134         134
               135         135
               136         136
               137         137
               138         138
               139         139
               140         140
               141         141
               142         142
               143         143
               144         144
               145         145
               146         146
               147         147
               148         148
               149         149
               150         150
               151         151
               152         152
               153         153
               154         154
               155         155
               156         156
               157         157
               158         158
               159         159
               160         160
               161         161
               162         162
               163         163
               164         164
               165         165
               166         166
               167         167
               168         168
               169         169
               170         170
               171         171
               172         172
               173         173
               174         174
               175         175
               176         176
               177         177
               178         178
               179         179
               180         180
               181         181
               182         182
               183         183
               184         184
               185         185
               186         186
               187         187
               188         188
               189         189
               190         190
               191         191
               192         192
               193         193
               194         194
               195         195
               196         196
               197         197
               198         198
               199         199
               200         200
               201         201
               202         202
               203         203
               204         204
               205         205
               206         206
               207         207
               208         208
               209         209
               210         210
               211         211
               212         212
               213         213
               214         214
               215         215
               216         216
               217         217
               218         218
               219         219
               220         220
               221         221
               222         222
               223         223
               224         224
               225         225
               226         226
               227         227
               228         228
               229         229
               230         230
               231         231
               232         232
               233         233
               234         234
               235         235
               236         236
               237         237
               238         238
               239         239
               240         240
               241         241
               242         242
               243         243
               244         244
               245         245
               246         246
               247         247
               248         248
               249         249
               250         250
               251         251
               252         252
               253         253
               254         254
               255         255
               256         256

----------------------------------------------------------------------------------------

 
 
 KPOINTS: pymatgen v2020.8.13 with grid density = 

Automatic generation of k-mesh.
 Grid dimensions read from file:
 generate k-points for:    1    1    1

 Generating k-lattice:

  Cartesian coordinates                     Fractional coordinates (reciprocal lattice)
     0.059886610  0.000000000  0.000000000     1.000000000  0.000000000  0.000000000
     0.000000000  0.059886610  0.000000000     0.000000000  1.000000000  0.000000000
     0.000000000  0.000000000  0.047032632     0.000000000  0.000000000  1.000000000

  Length of vectors
     0.059886610  0.059886610  0.047032632

  Shift w.r.t. Gamma in fractional coordinates (k-lattice)
     0.000000000  0.000000000  0.000000000

 
 Subroutine IBZKPT returns following result:
 ===========================================
 
 Found      1 irreducible k-points:
 
 Following reciprocal coordinates:
            Coordinates               Weight
  0.000000  0.000000  0.000000      1.000000
 
 Following cartesian coordinates:
            Coordinates               Weight
  0.000000  0.000000  0.000000      1.000000
 


--------------------------------------------------------------------------------------------------------




 Dimension of arrays:
   k-points           NKPTS =      1   k-points in BZ     NKDIM =      1   number of bands    NBANDS=   1216
   number of dos      NEDOS =    301   number of ions     NIONS =    256
   non local maximal  LDIM  =      5   non local SUM 2l+1 LMDIM =     13
   total plane-waves  NPLWV = ******
   max r-space proj   IRMAX =   3854   max aug-charges    IRDMAX=   8643
   dimension x,y,z NGX =   126 NGY =  126 NGZ =  160
   dimension x,y,z NGXF=   252 NGYF=  252 NGZF=  320
   support grid    NGXF=   252 NGYF=  252 NGZF=  320
   ions per type =             128 128
   NGX,Y,Z   is equivalent  to a cutoff of  12.54, 12.54, 12.51 a.u.
   NGXF,Y,Z  is equivalent  to a cutoff of  25.09, 25.09, 25.02 a.u.

 SYSTEM =  MgO-rocksalt                            
 POSCAR =  Mg  O                                   

--------------------------------------------------------------------------------------------------------


  energy-cutoff  :      520.00
  volume of cell :     5928.45
      direct lattice vectors                 reciprocal lattice vectors
    16.698223653  0.000000000  0.000000000     0.059886610  0.000000000  0.000000000
     0.000000000 16.698223653  0.000000000     0.000000000  0.059886610  0.000000000
     0.000000000  0.000000000 21.261833870     0.000000000  0.000000000  0.047032632

  length of vectors
    16.698223653 16.698223653 21.261833870     0.059886610  0.059886610  0.047032632


 
 k-points in units of 2pi/SCALE and weight: pymatgen v2020.8.13 with grid density = 
   0.00000000  0.00000000  0.00000000       1.000
 
 k-points in reciprocal lattice and weights: pymatgen v2020.8.13 with grid density = 
   0.00000000  0.00000000  0.00000000       1.000
 
 position of ions in fractional coordinates (direct lattice) 
   0.12500000  0.00000000  0.35274474
   0.25000000  0.12500000  0.35274474
   0.12500000  0.12500000  0.45091491
   0.25000000  0.00000000  0.45091491
   0.12501851  0.00001295  0.54944739
   0.25004234  0.12503374  0.54947585
   0.12502438  0.12500261  0.64674884
   0.25001412  0.00000810  0.64676543
   0.12500000  0.25000000  0.35274474
   0.25000000  0.37500000  0.35274474
   0.12500000  0.37500000  0.45091491
   0.25000000  0.25000000  0.45091491
   0.12503609  0.25000497  0.54947619
   0.25012375  0.37499764  0.54948867
   0.12503999  0.37499264  0.64676631
   0.25010969  0.25007652  0.64675066
   0.37500000  0.00000000  0.35274474
   0.00000000  0.12500000  0.35274474
   0.37500000  0.12500000  0.45091491
   0.00000000  0.00000000  0.45091491
   0.37499910  0.00001065  0.54946489
   0.99999598  0.12502086  0.54944848
   0.37508997  0.12510186  0.64668644
   0.99999519  0.00000185  0.64670310
   0.37500000  0.25000000  0.35274474
   0.00000000  0.37500000  0.35274474
   0.37500000  0.37500000  0.45091491
   0.00000000  0.25000000  0.45091491
   0.37509495  0.25012987  0.54948358
   0.99999869  0.37497457  0.54946062
   0.37562554  0.37509046  0.64695608
   0.99999917  0.24999649  0.64675554
   0.12500000  0.50000000  0.35274474
   0.25000000  0.62500000  0.35274474
   0.12500000  0.62500000  0.45091491
   0.25000000  0.50000000  0.45091491
   0.12502175  0.49998223  0.54943745
   0.25001102  0.62497507  0.54943833
   0.12501691  0.62497696  0.64673272
   0.25009501  0.49994420  0.64662097
   0.12500000  0.75000000  0.35274474
   0.25000000  0.87500000  0.35274474
   0.12500000  0.87500000  0.45091491
   0.25000000  0.75000000  0.45091491
   0.12501153  0.74998714  0.54945059
   0.25000850  0.87498440  0.54946312
   0.12499241  0.87499651  0.64670765
   0.24999871  0.74997054  0.64677212
   0.37500000  0.50000000  0.35274474
   0.00000000  0.62500000  0.35274474
   0.37500000  0.62500000  0.45091491
   0.00000000  0.50000000  0.45091491
   0.37512414  0.49989984  0.54948312
   0.99999729  0.62498665  0.54943488
   0.37503507  0.62487094  0.64657586
   0.00000882  0.49997681  0.64670002
   0.37500000  0.75000000  0.35274474
   0.00000000  0.87500000  0.35274474
   0.37500000  0.87500000  0.45091491
   0.00000000  0.75000000  0.45091491
   0.37499854  0.74997611  0.54945810
   0.99999445  0.87499074  0.54941714
   0.37499702  0.87497921  0.64675229
   0.00000013  0.74998105  0.64670438
   0.62500000  0.00000000  0.35274474
   0.75000000  0.12500000  0.35274474
   0.62500000  0.12500000  0.45091491
   0.75000000  0.00000000  0.45091491
   0.62498439  0.00000446  0.54944369
   0.74995960  0.12502313  0.54945916
   0.62491561  0.12508328  0.64660509
   0.74997255  0.00000048  0.64675405
   0.62500000  0.25000000  0.35274474
   0.75000000  0.37500000  0.35274474
   0.62500000  0.37500000  0.45091491
   0.75000000  0.25000000  0.45091491
   0.62489972  0.25014885  0.54949553
   0.74981789  0.37499090  0.54949558
   0.62433306  0.37509444  0.64726358
   0.74987022  0.25005165  0.64667075
   0.87500000  0.00000000  0.35274474
   0.50000000  0.12500000  0.35274474
   0.87500000  0.12500000  0.45091491
   0.50000000  0.00000000  0.45091491
   0.87497930  0.00001013  0.54944926
   0.49999477  0.12512071  0.54945197
   0.87497300  0.12500098  0.64674997
   0.49998803  0.00003467  0.64675341
   0.87500000  0.25000000  0.35274474
   0.50000000  0.37500000  0.35274474
   0.87500000  0.37500000  0.45091491
   0.50000000  0.25000000  0.45091491
   0.87496075  0.25000773  0.54946810
   0.50003962  0.37507645  0.54927435
   0.87495991  0.37500399  0.64675478
   0.50004204  0.25063364  0.64683709
   0.62500000  0.50000000  0.35274474
   0.75000000  0.62500000  0.35274474
   0.62500000  0.62500000  0.45091491
   0.75000000  0.50000000  0.45091491
   0.62488146  0.49988111  0.54945478
   0.74998960  0.62498811  0.54941096
   0.62493435  0.62492001  0.64642318
   0.74991198  0.49995899  0.64648031
   0.62500000  0.75000000  0.35274474
   0.75000000  0.87500000  0.35274474
   0.62500000  0.87500000  0.45091491
   0.75000000  0.75000000  0.45091491
   0.62497937  0.75000363  0.54942575
   0.74999070  0.87498190  0.54946197
   0.62497602  0.87498318  0.64672908
   0.74998705  0.74997172  0.64676514
   0.87500000  0.50000000  0.35274474
   0.50000000  0.62500000  0.35274474
   0.87500000  0.62500000  0.45091491
   0.50000000  0.50000000  0.45091491
   0.87498976  0.49997469  0.54941485
   0.49998491  0.62482972  0.54947706
   0.87499231  0.62496584  0.64673766
   0.50003182  0.49936157  0.64729830
   0.87500000  0.75000000  0.35274474
   0.50000000  0.87500000  0.35274474
   0.87500000  0.87500000  0.45091491
   0.50000000  0.75000000  0.45091491
   0.87498715  0.74997932  0.54945585
   0.49998026  0.87496772  0.54947498
   0.87499591  0.87499251  0.64671095
   0.49998610  0.74992872  0.64679117
   0.12500000  0.00000000  0.45091491
   0.25000000  0.12500000  0.45091491
   0.12500000  0.12500000  0.35274474
   0.25000000  0.00000000  0.35274474
   0.12499484  0.99999670  0.64907051
   0.25000447  0.12498105  0.64919935
   0.12500592  0.12499998  0.54915720
   0.25000051  0.99999136  0.54915253
   0.12500000  0.25000000  0.45091491
   0.25000000  0.37500000  0.45091491
   0.12500000  0.37500000  0.35274474
   0.25000000  0.25000000  0.35274474
   0.12499564  0.24999840  0.64916491
   0.25007346  0.37502079  0.64942410
   0.12503921  0.37498131  0.54918207
   0.24996479  0.24997996  0.54919399
   0.37500000  0.00000000  0.45091491
   0.00000000  0.12500000  0.45091491
   0.37500000  0.12500000  0.35274474
   0.00000000  0.00000000  0.35274474
   0.37500482  0.99999880  0.64913843
   0.99999313  0.12499922  0.64907351
   0.37496511  0.12496256  0.54917445
   0.00000150  0.00000761  0.54913367
   0.37500000  0.25000000  0.45091491
   0.00000000  0.37500000  0.45091491
   0.37500000  0.37500000  0.35274474
   0.00000000  0.25000000  0.35274474
   0.37495111  0.24993499  0.64918707
   0.99999974  0.37498793  0.64909403
   0.37469610  0.37497904  0.54898323
   0.99999753  0.25000561  0.54915171
   0.12500000  0.50000000  0.45091491
   0.25000000  0.62500000  0.45091491
   0.12500000  0.62500000  0.35274474
   0.25000000  0.50000000  0.35274474
   0.12500660  0.49998856  0.64909923
   0.24996640  0.62500572  0.64917069
   0.12499279  0.62500558  0.54913831
   0.24991759  0.50001841  0.54912520
   0.12500000  0.75000000  0.45091491
   0.25000000  0.87500000  0.45091491
   0.12500000  0.87500000  0.35274474
   0.25000000  0.75000000  0.35274474
   0.12497515  0.74999814  0.64908824
   0.24999583  0.87500201  0.64911018
   0.12500601  0.87499264  0.54912657
   0.24999391  0.74999998  0.54915873
   0.37500000  0.50000000  0.45091491
   0.00000000  0.62500000  0.45091491
   0.37500000  0.62500000  0.35274474
   0.00000000  0.50000000  0.35274474
   0.37476506  0.50016744  0.64891628
   0.99999740  0.62498394  0.64906450
   0.37495605  0.62508557  0.54913812
   0.00000607  0.49997154  0.54914385
   0.37500000  0.75000000  0.45091491
   0.00000000  0.87500000  0.45091491
   0.37500000  0.87500000  0.35274474
   0.00000000  0.75000000  0.35274474
   0.37500419  0.74997316  0.64916750
   0.99999888  0.87499219  0.64899811
   0.37498812  0.87498304  0.54915885
   0.99999501  0.74998514  0.54910749
   0.62500000  0.00000000  0.45091491
   0.75000000  0.12500000  0.45091491
   0.62500000  0.12500000  0.35274474
   0.75000000  0.00000000  0.35274474
   0.62496756  0.99999644  0.64911722
   0.74999521  0.12495760  0.64918126
   0.62501488  0.12493292  0.54913514
   0.74999016  0.99998561  0.54915301
   0.62500000  0.25000000  0.45091491
   0.75000000  0.37500000  0.45091491
   0.62500000  0.37500000  0.35274474
   0.75000000  0.25000000  0.35274474
   0.62511033  0.24981563  0.64901035
   0.74995089  0.37502936  0.64947469
   0.62530045  0.37497469  0.54901733
   0.75005323  0.24997363  0.54916929
   0.87500000  0.00000000  0.45091491
   0.50000000  0.12500000  0.45091491
   0.87500000  0.12500000  0.35274474
   0.50000000  0.00000000  0.35274474
   0.87500008  0.99998508  0.64906520
   0.49999699  0.12510472  0.64931653
   0.87498550  0.12499475  0.54915347
   0.49998151  0.00001463  0.54918469
   0.87500000  0.25000000  0.45091491
   0.50000000  0.37500000  0.45091491
   0.87500000  0.37500000  0.35274474
   0.50000000  0.25000000  0.35274474
   0.87499189  0.24999154  0.64917128
   0.49997391  0.37499259  0.64659189
   0.87495435  0.37497790  0.54918513
   0.49997918  0.24970601  0.54895142
   0.62500000  0.50000000  0.45091491
   0.75000000  0.62500000  0.45091491
   0.62500000  0.62500000  0.35274474
   0.75000000  0.50000000  0.35274474
   0.62531014  0.50033460  0.64857591
   0.75002407  0.62501044  0.64918007
   0.62502667  0.62513515  0.54906260
   0.75013666  0.50003152  0.54906202
   0.62500000  0.75000000  0.45091491
   0.75000000  0.87500000  0.45091491
   0.62500000  0.87500000  0.35274474
   0.75000000  0.75000000  0.35274474
   0.62497840  0.74997944  0.64911974
   0.74998646  0.87499564  0.64911466
   0.62498769  0.87499404  0.54914214
   0.75000409  0.75000245  0.54915783
   0.87500000  0.50000000  0.45091491
   0.50000000  0.62500000  0.45091491
   0.87500000  0.62500000  0.35274474
   0.50000000  0.50000000  0.35274474
   0.87499625  0.49999432  0.64908224
   0.49998651  0.62493492  0.64944938
   0.87500611  0.62500835  0.54914100
   0.49997170  0.50032127  0.54901798
   0.87500000  0.75000000  0.45091491
   0.50000000  0.87500000  0.45091491
   0.87500000  0.87500000  0.35274474
   0.50000000  0.75000000  0.35274474
   0.87502234  0.74999907  0.64909395
   0.49999182  0.87497757  0.64911294
   0.87498330  0.87499398  0.54912704
   0.49998289  0.74996076  0.54920077
 
 position of ions in cartesian coordinates  (Angst):
   2.08727796  0.00000000  7.50000000
   4.17455591  2.08727796  7.50000000
   2.08727796  2.08727796  9.58727796
   4.17455591  0.00000000  9.58727796
   2.08758711  0.00021627 11.68225903
   4.17526295  2.08784134 11.68286426
   2.08768511  2.08732147 13.75106648
   4.17479168  0.00013524 13.75141921
   2.08727796  4.17455591  7.50000000
   4.17455591  6.26183387  7.50000000
   2.08727796  6.26183387  9.58727796
   4.17455591  4.17455591  9.58727796
   2.08788059  4.17463886 11.68287148
   4.17662239  6.26179444 11.68313686
   2.08794579  6.26171105 13.75143787
   4.17638759  4.17583366 13.75110514
   6.26183387  0.00000000  7.50000000
   0.00000000  2.08727796  7.50000000
   6.26183387  2.08727796  9.58727796
   0.00000000  0.00000000  9.58727796
   6.26181880  0.00017787 11.68263120
  16.69815652  2.08762625 11.68228224
   6.26333626  2.08897884 13.74973964
  16.69814338  0.00003093 13.75009377
   6.26183387  4.17455591  7.50000000
   0.00000000  6.26183387  7.50000000
   6.26183387  6.26183387  9.58727796
   0.00000000  4.17455591  9.58727796
   6.26341942  4.17672451 11.68302857
  16.69820182  6.26140917 11.68254033
   6.27227928  6.26334441 13.75547262
  16.69820976  4.17449734 13.75120886
   2.08727796  8.34911183  7.50000000
   4.17455591 10.43638978  7.50000000
   2.08727796 10.43638978  9.58727796
   4.17455591  8.34911183  9.58727796
   2.08764118  8.34881505 11.68204768
   4.17473988 10.43597343 11.68206642
   2.08756028 10.43600509 13.75072375
   4.17614233  8.34818000 13.74834758
   2.08727796 12.52366774  7.50000000
   4.17455591 14.61094570  7.50000000
   2.08727796 14.61094570  9.58727796
   4.17455591 12.52366774  9.58727796
   2.08747045 12.52345308 11.68232709
   4.17469787 14.61068524 11.68259352
   2.08715114 14.61088746 13.75019069
   4.17453433 12.52317589 13.75156128
   6.26183387  8.34911183  7.50000000
   0.00000000 10.43638978  7.50000000
   6.26183387 10.43638978  9.58727796
   0.00000000  8.34911183  9.58727796
   6.26390680  8.34743928 11.68301885
  16.69817835 10.43616690 11.68199309
   6.26241940 10.43423471 13.74738858
   0.00014725  8.34872452 13.75002834
   6.26183387 12.52366774  7.50000000
   0.00000000 14.61094570  7.50000000
   6.26183387 14.61094570  9.58727796
   0.00000000 12.52366774  9.58727796
   6.26180957 12.52326888 11.68248678
  16.69813091 14.61079105 11.68161605
   6.26178405 14.61059846 13.75113977
   0.00000217 12.52335138 13.75012111
  10.43638978  0.00000000  7.50000000
  12.52366774  2.08727796  7.50000000
  10.43638978  2.08727796  9.58727796
  12.52366774  0.00000000  9.58727796
  10.43612913  0.00007441 11.68218050
  12.52299311  2.08766418 11.68250942
  10.43498063  2.08866860 13.74800999
  12.52320941  0.00000799 13.75117717
  10.43638978  4.17455591  7.50000000
  12.52366774  6.26183387  7.50000000
  10.43638978  6.26183387  9.58727796
  12.52366774  4.17455591  9.58727796
  10.43471528  4.17704149 11.68328269
  12.52062682  6.26168193 11.68328365
  10.42525306  6.26341080 13.76201074
  12.52150061  4.17541832 13.74940603
  14.61094570  0.00000000  7.50000000
   8.34911183  2.08727796  7.50000000
  14.61094570  2.08727796  9.58727796
   8.34911183  0.00000000  9.58727796
  14.61060006  0.00016921 11.68229884
   8.34902457  2.08929367 11.68235647
  14.61049477  2.08729436 13.75109046
   8.34891198  0.00057885 13.75116357
  14.61094570  4.17455591  7.50000000
   8.34911183  6.26183387  7.50000000
  14.61094570  6.26183387  9.58727796
   8.34911183  4.17455591  9.58727796
  14.61029022  4.17468506 11.68269941
   8.34977334  6.26311048 11.67858000
  14.61027633  6.26190042 13.75119274
   8.34981374  4.18513654 13.75294276
  10.43638978  8.34911183  7.50000000
  12.52366774 10.43638978  7.50000000
  10.43638978 10.43638978  9.58727796
  12.52366774  8.34911183  9.58727796
  10.43441035  8.34712659 11.68241628
  12.52349410 10.43619117 11.68148447
  10.43529357 10.43505405 13.74414229
  12.52219792  8.34842701 13.74535700
  10.43638978 12.52366774  7.50000000
  12.52366774 14.61094570  7.50000000
  10.43638978 14.61094570  9.58727796
  12.52366774 12.52366774  9.58727796
  10.43604530 12.52372836 11.68179901
  12.52351244 14.61064340 11.68256908
  10.43598940 14.61066486 13.75064629
  12.52345142 12.52319543 13.75141294
  14.61094570  8.34911183  7.50000000
   8.34911183 10.43638978  7.50000000
  14.61094570 10.43638978  9.58727796
   8.34911183  8.34911183  9.58727796
  14.61077475  8.34868917 11.68156731
   8.34885985 10.43354634 11.68289006
  14.61081725 10.43581936 13.75082864
   8.34964318  8.33845119 13.76274898
  14.61094570 12.52366774  7.50000000
   8.34911183 14.61094570  7.50000000
  14.61094570 14.61094570  9.58727796
   8.34911183 12.52366774  9.58727796
  14.61073114 12.52332243 11.68243891
   8.34878227 14.61040671 11.68284581
  14.61087733 14.61082064 13.75026086
   8.34887972 12.52247741 13.75196642
   2.08727796  0.00000000  9.58727796
   4.17455591  2.08727796  9.58727796
   2.08727796  2.08727796  7.50000000
   4.17455591  0.00000000  7.50000000
   2.08719173 16.69816852 13.80042933
   4.17463062  2.08696156 13.80316864
   2.08737687  2.08727770 11.67608912
   4.17456442 16.69807936 11.67598978
   2.08727796  4.17455591  9.58727796
   4.17455591  6.26183387  9.58727796
   2.08727796  6.26183387  7.50000000
   4.17455591  4.17455591  7.50000000
   2.08720519  4.17452915 13.80243637
   4.17578263  6.26218104 13.80794730
   2.08793268  6.26152179 11.67661790
   4.17396797  4.17422124 11.67687129
   6.26183387  0.00000000  9.58727796
   0.00000000  2.08727796  9.58727796
   6.26183387  2.08727796  7.50000000
   0.00000000  0.00000000  7.50000000
   6.26191434 16.69820362 13.80187355
  16.69810901  2.08726487 13.80049306
   6.26125133  2.08665270 11.67645601
   0.00002499  0.00012710 11.67558892
   6.26183387  4.17455591  9.58727796
   0.00000000  6.26183387  9.58727796
   6.26183387  6.26183387  7.50000000
   0.00000000  4.17455591  7.50000000
   6.26101750  4.17347041 13.80290757
  16.69821931  6.26163229 13.80092933
   6.25675935  6.26148392 11.67239014
  16.69818239  4.17464954 11.67597248
   2.08727796  8.34911183  9.58727796
   4.17455591 10.43638978  9.58727796
   2.08727796 10.43638978  7.50000000
   4.17455591  8.34911183  7.50000000
   2.08738810  8.34892073 13.80104008
   4.17399482 10.43648531 13.80255930
   2.08715756 10.43648294 11.67568754
   4.17317982  8.34941928 11.67540876
   2.08727796 12.52366774  9.58727796
   4.17455591 14.61094570  9.58727796
   2.08727796 14.61094570  7.50000000
   4.17455591 12.52366774  7.50000000
   2.08686300 12.52363670 13.80080628
   4.17448629 14.61097925 13.80127275
   2.08737835 14.61082285 11.67543799
   4.17445419 12.52366735 11.67612176
   6.26183387  8.34911183  9.58727796
   0.00000000 10.43638978  9.58727796
   6.26183387 10.43638978  7.50000000
   0.00000000  8.34911183  7.50000000
   6.25791081  8.35190779 13.79715025
  16.69818018 10.43612166 13.80030163
   6.26110006 10.43781865 11.67568357
   0.00010143  8.34863667 11.67580536
   6.26183387 12.52366774  9.58727796
   0.00000000 14.61094570  9.58727796
   6.26183387 14.61094570  7.50000000
   0.00000000 12.52366774  7.50000000
   6.26190392 12.52321953 13.80249161
  16.69820503 14.61081528 13.79888998
   6.26163548 14.61066244 11.67612415
  16.69814039 12.52341965 11.67503217
  10.43638978  0.00000000  9.58727796
  12.52366774  2.08727796  9.58727796
  10.43638978  2.08727796  7.50000000
  12.52366774  0.00000000  7.50000000
  10.43584813 16.69816414 13.80142251
  12.52358773  2.08656993 13.80278412
  10.43663833  2.08615785 11.67562013
  12.52350337 16.69798334 11.67600012
  10.43638978  4.17455591  9.58727796
  12.52366774  6.26183387  9.58727796
  10.43638978  6.26183387  7.50000000
  12.52366774  4.17455591  7.50000000
  10.43823217  4.17147730 13.79915028
  12.52284762  6.26232421 13.80902300
  10.44140684  6.26141126 11.67311523
  12.52455655  4.17411566 11.67634626
  14.61094570  0.00000000  9.58727796
   8.34911183  2.08727796  9.58727796
  14.61094570  2.08727796  7.50000000
   8.34911183  0.00000000  7.50000000
  14.61094707 16.69797447 13.80031652
   8.34906162  2.08902654 13.80566021
  14.61070360  2.08719034 11.67600976
   8.34880301  0.00024424 11.67667370
  14.61094570  4.17455591  9.58727796
   8.34911183  6.26183387  9.58727796
  14.61094570  6.26183387  7.50000000
   8.34911183  4.17455591  7.50000000
  14.61081021  4.17441467 13.80257187
   8.34867609  6.26171012 13.74772940
  14.61018337  6.26146483 11.67668301
   8.34876412  4.16964680 11.67171391
  10.43638978  8.34911183  9.58727796
  12.52366774 10.43638978  9.58727796
  10.43638978 10.43638978  7.50000000
  12.52366774  8.34911183  7.50000000
  10.44156849  8.35469909 13.78991315
  12.52406967 10.43656419 13.80275889
  10.43683517 10.43864662 11.67407781
  12.52594980  8.34963814 11.67406550
  10.43638978 12.52366774  9.58727796
  12.52366774 14.61094570  9.58727796
  10.43638978 14.61094570  7.50000000
  12.52366774 12.52366774  7.50000000
  10.43602910 12.52332438 13.80147608
  12.52344165 14.61087288 13.80136812
  10.43618416 14.61084612 11.67576885
  12.52373602 12.52370865 11.67610262
  14.61094570  8.34911183  9.58727796
   8.34911183 10.43638978  9.58727796
  14.61094570 10.43638978  7.50000000
   8.34911183  8.34911183  7.50000000
  14.61088301  8.34901702 13.80067881
   8.34888663 10.43530300 13.80848490
  14.61104777 10.43652919 11.67574474
   8.34863928  8.35447652 11.67312910
  14.61094570 12.52366774  9.58727796
   8.34911183 14.61094570  9.58727796
  14.61094570 14.61094570  7.50000000
   8.34911183 12.52366774  7.50000000
  14.61131878 12.52365221 13.80092766
   8.34897530 14.61057115 13.80133142
  14.61066682 14.61084509 11.67544789
   8.34882620 12.52301254 11.67701547
 


--------------------------------------------------------------------------------------------------------

--------------------------------------- Iteration      FINAL  ---------------------------------------


--------------------OUTCAR has been truncated-------------------------


--------------------OUTCAR has been truncated-------------------------


--------------------OUTCAR has been truncated-------------------------


--------------------OUTCAR has been truncated-------------------------


--------------------OUTCAR has been truncated-------------------------


--------------------OUTCAR has been truncated-------------------------


--------------------OUTCAR has been truncated-------------------------


--------------------OUTCAR has been truncated-------------------------


--------------------OUTCAR has been truncated-------------------------


--------------------OUTCAR has been truncated-------------------------



  FORCE on cell =-STRESS in cart. coord.  units (eV):
  Direction    XX          YY          ZZ          XY          YZ          ZX
  --------------------------------------------------------------------------------------
  Alpha Z  3590.10834  3590.10834  3590.10834
  Ewald  666062.19646666062.22608************    -0.00853     0.05937    -0.01145
  Hartree706113.59489706113.61409************    -0.00191     0.01463    -0.01907
  E(xc)   -9878.49475 -9878.49483 -9911.81937    -0.00001     0.00004    -0.00013
  Local  ************************************     0.00986    -0.06682     0.03492
[...]
      2.08747     12.52345     11.68233        -0.003469      0.002091     -0.004141
      4.17470     14.61069     11.68259        -0.002347      0.002632     -0.003905
      2.08715     14.61089     13.75019        -0.000074      0.000299      0.264540
      4.17453     12.52318     13.75156         0.001690      0.003206      0.264335
      6.26183      8.34911      7.50000        -0.001391      0.001231      0.176132
      0.00000     10.43639      7.50000        -0.000077      0.000675      0.177260
      6.26183     10.43639      9.58728         0.001650      0.001039      0.053315
      0.00000      8.34911      9.58728         0.000460      0.000220      0.058849
      6.26391      8.34744     11.68302        -0.024843      0.023630     -0.046097
     16.69818     10.43617     11.68199         0.000062      0.001366     -0.000892
      6.26242     10.43423     13.74739        -0.008921      0.053964      0.293177
      0.00015      8.34872     13.75003        -0.001909      0.000729      0.267401
      6.26183     12.52367      7.50000        -0.000352      0.000596      0.176857
      0.00000     14.61095      7.50000        -0.000057     -0.000143      0.177261
      6.26183     14.61095      9.58728        -0.001256      0.000137      0.058138
      0.00000     12.52367      9.58728        -0.000339     -0.000289      0.059336
      6.26181     12.52327     11.68249        -0.000631      0.011065     -0.000361
     16.69813     14.61079     11.68162         0.000202      0.001391     -0.000891
      6.26178     14.61060     13.75114         0.001673      0.000760      0.266638
      0.00000     12.52335     13.75012        -0.000871      0.000775      0.261547
     10.43639      0.00000      7.50000         0.000416     -0.000557      0.176807
     12.52367      2.08728      7.50000         0.000676     -0.000457      0.176544
     10.43639      2.08728      9.58728        -0.000970      0.000142      0.055044
     12.52367      0.00000      9.58728         0.000863     -0.001553      0.061435
     10.43613      0.00007     11.68218         0.000616     -0.008996      0.000247
     12.52299      2.08766     11.68251         0.011278     -0.012035     -0.003850
     10.43498      2.08867     13.74801         0.007980     -0.046728      0.289392
     12.52321      0.00001     13.75118        -0.001347     -0.002037      0.263059
     10.43639      4.17456      7.50000         0.001488     -0.001197      0.176415
     12.52367      6.26183      7.50000         0.001562     -0.000259      0.178348
     10.43639      6.26183      9.58728         0.015500     -0.001508      0.037616
     12.52367      4.17456      9.58728         0.000548      0.001753      0.057760
     10.43472      4.17704     11.68328         0.025171     -0.027237     -0.043642
     12.52063      6.26168     11.68328         0.033951     -0.000764     -0.003732
     10.42525      6.26341     13.76201         0.222943     -0.015688      0.075203
     12.52150      4.17542     13.74941         0.047641     -0.008026      0.282835
     14.61095      0.00000      7.50000         0.000260     -0.000442      0.177312
      8.34911      2.08728      7.50000         0.000003     -0.001408      0.177721
     14.61095      2.08728      9.58728         0.000597     -0.000782      0.058233
      8.34911      0.00000      9.58728        -0.000603      0.001300      0.062527
     14.61060      0.00017     11.68230         0.002564     -0.002398     -0.003565
      8.34902      2.08929     11.68236        -0.001708     -0.031455     -0.000132
     14.61049      2.08729     13.75109         0.002512      0.001170      0.265573
      8.34891      0.00058     13.75116         0.000840     -0.007069      0.270008
     14.61095      4.17456      7.50000         0.000299     -0.000211      0.176975
      8.34911      6.26183      7.50000         0.000036     -0.000145      0.171050
     14.61095      6.26183      9.58728        -0.004338     -0.001060      0.060131
      8.34911      4.17456      9.58728        -0.000007     -0.013600      0.039602
     14.61029      4.17469     11.68270         0.011913     -0.002308     -0.001395
      8.34977      6.26311     11.67858        -0.001666     -0.003076     -0.165119
     14.61028      6.26190     13.75119         0.009647     -0.000307      0.275340
      8.34981      4.18514     13.75294        -0.010987     -0.211925      0.156290
     10.43639      8.34911      7.50000         0.001405      0.001172      0.175804
     12.52367     10.43639      7.50000         0.000772      0.000876      0.176513
     10.43639     10.43639      9.58728        -0.002421      0.002254      0.050302
     12.52367      8.34911      9.58728         0.002189     -0.002745      0.053617
     10.43441      8.34713     11.68242         0.022368      0.023426     -0.053928
     12.52349     10.43619     11.68148         0.013247      0.012075     -0.000052
     10.43529     10.43505     13.74414         0.015554      0.057077      0.306422
     12.52220      8.34843     13.74536         0.058376      0.013098      0.294768
     10.43639     12.52367      7.50000         0.000376      0.000703      0.176954
     12.52367     14.61095      7.50000         0.000536     -0.000121      0.177445
     10.43639     14.61095      9.58728         0.000750      0.000685      0.056599
     12.52367     12.52367      9.58728         0.001511      0.002085      0.059151
     10.43605     12.52373     11.68180         0.001901      0.011132      0.001222
     12.52351     14.61064     11.68257         0.001271      0.002738     -0.003841
     10.43599     14.61066     13.75065        -0.000121      0.000134      0.267682
     12.52345     12.52320     13.75141        -0.001128      0.001171      0.265333
     14.61095      8.34911      7.50000         0.000467      0.000192      0.176984
      8.34911     10.43639      7.50000        -0.000058      0.001733      0.178094
     14.61095     10.43639      9.58728         0.001737      0.001455      0.056213
      8.34911      8.34911      9.58728        -0.001259      0.015832      0.040077
     14.61077      8.34869     11.68157         0.012821      0.002777      0.001796
      8.34886     10.43355     11.68289        -0.000796      0.032871     -0.002850
     14.61082     10.43582     13.75083         0.000880      0.001071      0.265786
      8.34964      8.33845     13.76275        -0.007066      0.219983      0.067021
     14.61095     12.52367      7.50000         0.000286      0.000494      0.177587
      8.34911     14.61095      7.50000         0.000028     -0.000144      0.176362
     14.61095     14.61095      9.58728        -0.000775     -0.000331      0.057400
      8.34911     12.52367      9.58728        -0.000717     -0.003826      0.063253
     14.61073     12.52332     11.68244         0.002838      0.003256     -0.004254
      8.34878     14.61041     11.68285         0.000907      0.004160     -0.001197
     14.61088     14.61082     13.75026         0.000472     -0.000207      0.264516
      8.34888     12.52248     13.75197         0.000774      0.011652      0.270609
      2.08728      0.00000      9.58728         0.001996      0.001321      0.058863
      4.17456      2.08728      9.58728         0.002402     -0.000127      0.060903
      2.08728      2.08728      7.50000         0.000778      0.000851     -0.652201
      4.17456      0.00000      7.50000         0.000690      0.000684     -0.654118
      2.08719     16.69817     13.80043         0.002323      0.000525      0.128450
      4.17463      2.08696     13.80317         0.012766      0.012561      0.113577
      2.08738      2.08728     11.67609         0.004259      0.003646     -0.027059
      4.17456     16.69808     11.67599         0.002985      0.004948     -0.029386
      2.08728      4.17456      9.58728        -0.001009      0.000588      0.060233
      4.17456      6.26183      9.58728        -0.003403      0.001890      0.055688
      2.08728      6.26183      7.50000         0.000154     -0.000109     -0.652376
      4.17456      4.17456      7.50000         0.001150      0.000290     -0.653799
      2.08721      4.17453     13.80244         0.005704      0.002149      0.118353
      4.17578      6.26218     13.80795         0.042401      0.002204      0.092262
      2.08793      6.26152     11.67662         0.007176      0.000749     -0.026893
      4.17397      4.17422     11.67687         0.022658      0.007804     -0.022425
      6.26183      0.00000      9.58728         0.000007      0.001225      0.062215
      0.00000      2.08728      9.58728        -0.000020      0.002465      0.059693
      6.26183      2.08728      7.50000         0.000211      0.001333     -0.652029
      0.00000      0.00000      7.50000         0.000012      0.000418     -0.652788
      6.26191     16.69820     13.80187         0.001109      0.006040      0.119185
     16.69811      2.08726     13.80049         0.000948      0.000604      0.127684
      6.26125      2.08665     11.67646         0.009004      0.022499     -0.023014
      0.00002      0.00013     11.67559        -0.000573      0.000540     -0.026078
      6.26183      4.17456      9.58728         0.003074      0.001098      0.061280
      0.00000      6.26183      9.58728        -0.000195     -0.001202      0.063162
      6.26183      6.26183      7.50000         0.003003     -0.000082     -0.650475
      0.00000      4.17456      7.50000         0.000057      0.000460     -0.653971
      6.26102      4.17347     13.80291         0.077563      0.080631      0.145356
     16.69822      6.26163     13.80093         0.000249     -0.000254      0.124298
      6.25676      6.26148     11.67239         0.059078      0.004579      0.028161
     16.69818      4.17465     11.67597         0.000199      0.000030     -0.031176
      2.08728      8.34911      9.58728         0.001123     -0.001245      0.059572
      4.17456     10.43639      9.58728         0.002008     -0.004616      0.058353
      2.08728     10.43639      7.50000         0.000941     -0.000547     -0.652092
      4.17456      8.34911      7.50000         0.001158     -0.000140     -0.653897
      2.08739      8.34892     13.80104         0.007051     -0.001497      0.118449
      4.17399     10.43649     13.80256         0.015260     -0.017103      0.111041
      2.08716     10.43648     11.67569         0.004991     -0.003702     -0.026982
      4.17318      8.34942     11.67541         0.028226     -0.006224     -0.020119
      2.08728     12.52367      9.58728        -0.001211     -0.001209      0.055723
      4.17456     14.61095      9.58728         0.001637      0.002559      0.057259
      2.08728     14.61095      7.50000         0.000527     -0.000163     -0.652549
      4.17456     12.52367      7.50000         0.000730     -0.000787     -0.653787
      2.08686     12.52364     13.80081         0.001440     -0.001365      0.127646
      4.17449     14.61098     13.80127         0.000015      0.000441      0.126138
      2.08738     14.61082     11.67544         0.001743     -0.000001     -0.026772
      4.17445     12.52367     11.67612         0.002842     -0.004528     -0.026828
      6.26183      8.34911      9.58728         0.000437     -0.001029      0.064780
      0.00000     10.43639      9.58728         0.000042     -0.001758      0.057997
      6.26183     10.43639      7.50000        -0.000089     -0.000987     -0.652049
      0.00000      8.34911      7.50000         0.000122     -0.000441     -0.652479
      6.25791      8.35191     13.79715         0.110812     -0.091398      0.191127
     16.69818     10.43612     13.80030         0.001621      0.000687      0.126684
      6.26110     10.43782     11.67568         0.008481     -0.028210     -0.020907
      0.00010      8.34864     11.67581        -0.000329      0.000861     -0.029299
      6.26183     12.52367      9.58728         0.003694     -0.000623      0.058486
      0.00000     14.61095      9.58728        -0.000135     -0.000472      0.056773
      6.26183     14.61095      7.50000         0.000283     -0.000172     -0.652130
      0.00000     12.52367      7.50000         0.000068     -0.000423     -0.654445
      6.26190     12.52322     13.80249         0.002225     -0.006256      0.114206
     16.69821     14.61082     13.79889         0.000025      0.000689      0.134238
      6.26164     14.61066     11.67612         0.002209      0.000473     -0.028413
     16.69814     12.52342     11.67503         0.001090      0.000534     -0.025006
     10.43639      0.00000      9.58728        -0.000751      0.000550      0.060225
     12.52367      2.08728      9.58728        -0.002149     -0.000699      0.059674
     10.43639      2.08728      7.50000        -0.000281      0.001285     -0.652052
     12.52367      0.00000      7.50000        -0.000751      0.000727     -0.654074
     10.43585     16.69816     13.80142         0.001007      0.005840      0.116544
     12.52359      2.08657     13.80278        -0.013712      0.014512      0.112205
     10.43664      2.08616     11.67562        -0.006913      0.026567     -0.019892
     12.52350     16.69798     11.67600        -0.002309      0.004749     -0.031235
     10.43639      4.17456      9.58728        -0.003816      0.001602      0.062166
     12.52367      6.26183      9.58728         0.002126      0.001307      0.055359
     10.43639      6.26183      7.50000        -0.003113      0.000091     -0.650551
     12.52367      4.17456      7.50000        -0.001168      0.000133     -0.653916
     10.43823      4.17148     13.79915        -0.085135      0.104014      0.176056
     12.52285      6.26232     13.80902        -0.058090      0.001560      0.092478
     10.44141      6.26141     11.67312        -0.056368      0.003955      0.033371
     12.52456      4.17412     11.67635        -0.025289      0.008606     -0.020617
     14.61095      0.00000      9.58728        -0.002080      0.001218      0.058950
      8.34911      2.08728      9.58728        -0.001021     -0.003463      0.056719
     14.61095      2.08728      7.50000        -0.000789      0.000825     -0.652216
      8.34911      0.00000      7.50000        -0.000031      0.000071     -0.652601
     14.61095     16.69797     13.80032        -0.002348      0.001734      0.129145
      8.34906      2.08903     13.80566         0.001808      0.037012      0.096837
     14.61070      2.08719     11.67601        -0.003094      0.004123     -0.026694
      8.34880      0.00024     11.67667         0.001248      0.007744     -0.028452
     14.61095      4.17456      9.58728         0.001658      0.000477      0.059196
      8.34911      6.26183      9.58728         0.000799      0.001506      0.068353
     14.61095      6.26183      7.50000        -0.000126     -0.000098     -0.652444
      8.34911      4.17456      7.50000        -0.000083      0.003078     -0.652318
     14.61081      4.17441     13.80257        -0.005469      0.003218      0.114677
      8.34868      6.26171     13.74773         0.017640      0.024950      0.575963
     14.61018      6.26146     11.67668        -0.009149      0.000557     -0.027556
      8.34876      4.16965     11.67171         0.002689      0.057881      0.026267
     10.43639      8.34911      9.58728        -0.001725     -0.002299      0.064148
     12.52367     10.43639      9.58728        -0.001139     -0.003548      0.055327
     10.43639     10.43639      7.50000        -0.000040     -0.001123     -0.651926
     12.52367      8.34911      7.50000        -0.001356     -0.000048     -0.653890
     10.44157      8.35470     13.78991        -0.123982     -0.121614      0.239368
     12.52407     10.43656     13.80276        -0.014521     -0.015846      0.102319
     10.43684     10.43865     11.67408        -0.008724     -0.031959     -0.018099
     12.52595      8.34964     11.67407        -0.032565     -0.008259     -0.018902
     10.43639     12.52367      9.58728        -0.004466      0.001894      0.055304
     12.52367     14.61095      9.58728        -0.001937      0.002565      0.056977
     10.43639     14.61095      7.50000        -0.000384     -0.000103     -0.652225
     12.52367     12.52367      7.50000        -0.000858     -0.000780     -0.653848
     10.43603     12.52332     13.80148        -0.003017     -0.005591      0.114315
     12.52344     14.61087     13.80137         0.000081      0.001692      0.124578
     10.43618     14.61085     11.67577        -0.001480     -0.000291     -0.027754
     12.52374     12.52371     11.67610        -0.003080     -0.003566     -0.028559
     14.61095      8.34911      9.58728         0.001431     -0.001301      0.056975
      8.34911     10.43639      9.58728        -0.001698      0.003879      0.057132
     14.61095     10.43639      7.50000        -0.000895     -0.000587     -0.652180
      8.34911      8.34911      7.50000         0.000100     -0.003041     -0.650766
     14.61088      8.34902     13.80068        -0.006713     -0.002824      0.116384
      8.34889     10.43530     13.80848         0.001473     -0.057697      0.091587
     14.61105     10.43653     11.67574        -0.003910     -0.003522     -0.028480
      8.34864      8.35448     11.67313         0.002355     -0.056948      0.035828
     14.61095     12.52367      9.58728         0.001162     -0.001259      0.055622
      8.34911     14.61095      9.58728        -0.000723     -0.002088      0.064207
     14.61095     14.61095      7.50000        -0.000517     -0.000119     -0.652619
      8.34911     12.52367      7.50000        -0.000020     -0.000071     -0.654244
     14.61132     12.52365     13.80093        -0.000994     -0.001154      0.126760
      8.34898     14.61057     13.80133        -0.000679      0.000474      0.122539
     14.61067     14.61085     11.67545        -0.000153     -0.000539     -0.026720
      8.34883     12.52301     11.67702         0.000263     -0.012329     -0.030129
 -----------------------------------------------------------------------------------
    total drift:                                0.002879     -0.003831     -0.079871


--------------------------------------------------------------------------------------------------------



  FREE ENERGIE OF THE ION-ELECTRON SYSTEM (eV)
  ---------------------------------------------------
  free  energy   TOTEN  =     -1484.79801927 eV

  energy  without entropy=    -1484.79801927  energy(sigma->0) =    -1484.79801927
 


--------------------------------------------------------------------------------------------------------


    POTLOK:  cpu time      0.2258: real time      0.2263


--------------------------------------------------------------------------------------------------------


     LOOP+:  cpu time    147.4757: real time    148.0920
    4ORBIT:  cpu time      0.0000: real time      0.0000

 total amount of memory used by VASP MPI-rank0   217003. kBytes
=======================================================================

   base      :      30000. kBytes
   nonlr-proj:      58996. kBytes
   fftplans  :      40336. kBytes
   grid      :      55466. kBytes
   one-center:       1038. kBytes
   wavefun   :      31167. kBytes
 
  
  
 General timing and accounting informations for this job:
 ========================================================
  
                  Total CPU time used (sec):      157.904
                            User time (sec):      155.592
                          System time (sec):        2.312
                         Elapsed time (sec):      159.229
  
                   Maximum memory used (kb):      721316.
                   Average memory used (kb):          N/A
  
                          Minor page faults:       165872
                          Major page faults:          111
                 Voluntary context switches:         2938
