 **********************************************************************
                          MRCC program system
 **********************************************************************
 
                              Written by
     Mihaly Kallay, Peter R. Nagy, David Mester, Laszlo Gyevi-Nagy,
        Jozsef Csoka, P. Bernat Szabo, Zoltan Rolik, Gyula Samu,
     Jozsef Csontos, Bence Hegely, Adam Ganyecz, Istvan Ladjanszki,
       Lorant Szegedy, Bence Ladoczki, Klara Petrov, Mate Farkas,
                    Pal D. Mezei, and Reka A. Horvath
 
        Department of Physical Chemistry and Materials Science
            Budapest University of Technology and Economics
                  Budapest P.O.Box 91, H-1521 Hungary
 
                              www.mrcc.hu
 
                      Release date: March 18, 2022

 ************************ 2023-02-04 11:47:21 *************************
 Executing minp...

 Reading input from MINP...
 
 Input file:
 
calc=FNO-CCSD(T)
verbosity=3
mem=220GB
unit=angs
scfiguess=small
scfalg=locfit1
ccmaxit=400
ccsdalg=dfdirect
ccsdthreads=4
ccsdmkl=thr
ptthreads=4
lnoepsv=1e-5
naf_cor=1e-2
basis=aug-cc-pVQZ
basis_sm=def2-SVP
dfbasis_scf=def2-QZVPP-RI-JK
dfbasis_cor=aug-cc-pVQZ-RI
unit=angs
geom=xyz
10

C    29.54344629    29.54344629    16.97505516
H    29.54344670    30.44187631    17.60392580
H    29.54344662    28.64496649    17.60393442
H    30.44658454    29.54342777    16.34911135
H    28.64030918    29.54342779    16.34911130
C    37.98440048    25.32292238    16.97524142
H    37.98441909    26.22572171    16.34882843
H    37.08590860    25.32292262    17.60416815
H    38.88294233    25.32292258    17.60417697
H    37.98441903    24.42012416    16.34882759

--------------------Output has been truncated-------------------------


--------------------Output has been truncated-------------------------


--------------------Output has been truncated-------------------------


--------------------Output has been truncated-------------------------


--------------------Output has been truncated-------------------------


--------------------Output has been truncated-------------------------


--------------------Output has been truncated-------------------------


--------------------Output has been truncated-------------------------


--------------------Output has been truncated-------------------------


--------------------Output has been truncated-------------------------


 
 Reference energy [au]:                       -80.431229635728
 DF-MP2 singlet pair energy [au]:              -0.347508782937
 DF-MP2 triplet pair energy [au]:              -0.074998581769
 DF-SCS-MP2 correlation energy [au]:           -0.442010066781
 DF-SCS-MP2 energy [au]:                      -80.873239702508
 DF-SOS-MP2 correlation energy [au]:           -0.451761417818
 DF-SOS-MP2 energy [au]:                      -80.882991053546
 DF-MP2 correlation energy [au]:               -0.422507364706
 DF-MP2 energy [au]:                          -80.853737000434

 Results in FNO basis:
 
 
 Reference energy [au]:                       -80.431229635728
 DF-MP2 singlet pair energy [au]:              -0.341238624851
 DF-MP2 triplet pair energy [au]:              -0.074715759152
 DF-SCS-MP2 correlation energy [au]:           -0.434391602872
 DF-SCS-MP2 energy [au]:                      -80.865621238600
 DF-SOS-MP2 correlation energy [au]:           -0.443610212307
 DF-SOS-MP2 energy [au]:                      -80.874839848035
 DF-MP2 correlation energy [au]:               -0.415954384003
 DF-MP2 energy [au]:                          -80.847184019731

 Results in NAF basis:
 
 
 Reference energy [au]:                       -80.431229635728
 DF-MP2 singlet pair energy [au]:              -0.341204765402
 DF-MP2 triplet pair energy [au]:              -0.074728758836
 DF-SCS-MP2 correlation energy [au]:           -0.434355304761
 DF-SCS-MP2 energy [au]:                      -80.865584940489
 DF-SOS-MP2 correlation energy [au]:           -0.443566195023
 DF-SOS-MP2 energy [au]:                      -80.874795830750
 DF-MP2 correlation energy [au]:               -0.415933524238
 DF-MP2 energy [au]:                          -80.847163159966

 ************************ 2023-02-04 11:48:00 *************************
 Executing ccsd...

 Allocation of 220.0 Gbytes of memory...

 Direct DF-CCSD(T) calculation
 
 Convergence criterion:  1.0E-06
 
 Number of occupied/virtual/auxiliary orbitals:     8   202   640
   1312.15 MB is the minimal memory requirement for (T)
    293.11 MB is the minimal memory requirement for CCSD
 
 Reference energy [au]:             -80.431229635728
 T1 contribution [au]:                0.000000000000
 Same spin MP2 energy [au]:          -0.074722250812
 Opposite spin MP2 energy [au]:      -0.341221678367
 MP2 correlation energy [au]:        -0.415943929179
 Total MP2 energy [au]:             -80.847173564906
 MP2 correction [au]:                -0.006563435527
 
 
 CPU time [min]:     0.486                   Wall time [min]:     0.057
 
 Starting CCSD iterations...
 
                     Residual norm          Energy
 Iteration  1        0.196125203210      -80.873063696998
 Iteration  2        0.050029928740      -80.884111110173
 Iteration  3        0.013819991164      -80.885276643581
 Iteration  4        0.002858163791      -80.885285647780
 Iteration  5        0.000530218921      -80.885298668835
 Iteration  6        0.000119933865      -80.885298422415
 Iteration  7        0.000028603696      -80.885299802610
 Iteration  8        0.000005288148      -80.885299916556
 Iteration  9        0.000001125939      -80.885299892590
 
 CCSD iteration has converged in  9 steps.
     6687.81 MB memory was utilized by CCSD
 
 T1 diagnostic:      7.996E-03            D1 diagnostic:      1.292E-02
 
 T1 contribution [au]:                                  0.000000000000
 PPL energy contribution [au]:                          0.121206383190
 Scaled PPL energy contribution [au]:                   0.123120010611

 OS-PPL energy contribution [au]:                       0.107549426355
 Scaled OS-PPL energy contribution [au]:                0.109535404318
 SS-PPL energy contribution [au]:                       0.013656956834
 Scaled SS-PPL energy contribution [au]:                0.013705650814

 Opposite spin CCSD energy [au]:                       -0.382010058257
 Same spin CCSD energy [au]:                           -0.072073159621
 CCSD correlation energy [au]:                         -0.454083217878
 CCSD correlation energy + MP2 correction [au]:        -0.460646653405
 CCSD correlation energy + MP2 + PPL corr. [au]:       -0.458733025984
 Total CCSD energy [au]:                              -80.885312853606
 Total CCSD energy + MP2 correction [au]:             -80.891876289133
 Total CCSD energy + MP2 + PPL corr. [au]:            -80.889962661711
 
 CPU time [min]:    13.192                   Wall time [min]:     0.420
 
 Calculation of (T) correction...
 
 
     1275.43 MB memory is utilized for (T)

 0%       25%       50%       75%       100%
 |---------|---------|---------|---------| 
 
 (T) correction [au]:                                    -0.013884279009
 (T*) correction [au]:                                   -0.014103367601
 (T+) correction [au]:                                   -0.014102535743
 CCSD(T) correlation energy [au]:                        -0.467967496887
 CCSD(T) correlation energy + MP2 correction [au]:       -0.474530932414
 CCSD(T+) correlation en. + MP2 + PPL corr. [au]:        -0.472835561726
 Total CCSD(T) energy [au]:                             -80.899197132615
 Total CCSD(T) energy + MP2 correction [au]:            -80.905760568142
 Total CCSD(T+) energy + MP2 + PPL corr. [au]:          -80.904065197454
 
 CPU time [min]:    17.194                   Wall time [min]:     0.550
 
 ************************ 2023-02-04 11:48:33 *************************
                      Normal termination of mrcc.
 **********************************************************************
