 **********************************************************************
                          MRCC program system
 **********************************************************************
 
                              Written by
     Mihaly Kallay, Peter R. Nagy, David Mester, Laszlo Gyevi-Nagy,
        Jozsef Csoka, P. Bernat Szabo, Zoltan Rolik, Gyula Samu,
     Jozsef Csontos, Bence Hegely, Adam Ganyecz, Istvan Ladjanszki,
       Lorant Szegedy, Bence Ladoczki, Klara Petrov, Mate Farkas,
                    Pal D. Mezei, and Reka A. Horvath
 
        Department of Physical Chemistry and Materials Science
            Budapest University of Technology and Economics
                  Budapest P.O.Box 91, H-1521 Hungary
 
                              www.mrcc.hu
 
                      Release date: March 18, 2022

 ************************ 2023-02-08 15:52:27 *************************
 Executing minp...

 Reading input from MINP...
 
 Input file:
 
calc=FNO-CCSD(T)
verbosity=3
mem=220GB
unit=angs
scfiguess=small
scfalg=locfit1
ccmaxit=400
ccsdalg=dfdirect
ccsdthreads=4
ccsdmkl=thr
ptthreads=4
lnoepsv=1e-5
naf_cor=1e-2
basis=aug-cc-pVTZ
basis_sm=def2-SVP
dfbasis_scf=def2-QZVPP-RI-JK
dfbasis_cor=aug-cc-pVTZ-RI
unit=angs
geom=xyz
24

C     8.91743909     9.38861166    16.94386881
H     8.77937038     9.17436022    18.01572156
H     9.32474419     7.57458841    16.20042911
H     9.96120462     9.68473591    16.75955150
H     8.26216376    10.20870566    16.63144535
O     8.58013534     8.23566087    16.14248498
C     5.39043169     6.77043676    16.96372580
H     5.62104886     6.61569915    18.02985674
H     7.19266907     7.20768543    16.20481162
H     5.07879877     7.81332482    16.80230521
H     4.57390209     6.11070185    16.65132737
O     6.53598138     6.45977854    16.14177089
C     8.00607278     3.27806493    16.96650180
H     8.16761995     3.51291001    18.03069694
H     7.56045335     5.07715886    16.20067817
H     6.96269365     2.96357801    16.81281908
H     8.66602896     2.46206947    16.65295800
O     8.30924475     4.42059882    16.13812694
C    11.50091996     5.85103456    16.93856975
H    11.28826038     5.99608128    18.00997076
H     9.68539973     5.44621463    16.19473390
H    11.79288236     4.80523239    16.75951410
H    12.32302124     6.50195744    16.62167972
O    10.34897249     6.18933226    16.13686330

--------------------Output has been truncated-------------------------


--------------------Output has been truncated-------------------------


--------------------Output has been truncated-------------------------


--------------------Output has been truncated-------------------------


--------------------Output has been truncated-------------------------


--------------------Output has been truncated-------------------------


--------------------Output has been truncated-------------------------


--------------------Output has been truncated-------------------------


--------------------Output has been truncated-------------------------


--------------------Output has been truncated-------------------------


 
 Reference energy [au]:                      -115.087850595059
 DF-MP2 singlet pair energy [au]:              -0.339653535047
 DF-MP2 triplet pair energy [au]:              -0.100588076922
 DF-SCS-MP2 correlation energy [au]:           -0.441113601031
 DF-SCS-MP2 energy [au]:                     -115.528964196090
 DF-SOS-MP2 correlation energy [au]:           -0.441549595562
 DF-SOS-MP2 energy [au]:                     -115.529400190621
 DF-MP2 correlation energy [au]:               -0.440241611969
 DF-MP2 energy [au]:                         -115.528092207028

 Results in FNO basis:
 
 
 Reference energy [au]:                      -115.087850595059
 DF-MP2 singlet pair energy [au]:              -0.338714655541
 DF-MP2 triplet pair energy [au]:              -0.100491867947
 DF-SCS-MP2 correlation energy [au]:           -0.439954875965
 DF-SCS-MP2 energy [au]:                     -115.527805471024
 DF-SOS-MP2 correlation energy [au]:           -0.440329052203
 DF-SOS-MP2 energy [au]:                     -115.528179647263
 DF-MP2 correlation energy [au]:               -0.439206523488
 DF-MP2 energy [au]:                         -115.527057118547

 Results in NAF basis:
 
 
 Reference energy [au]:                      -115.087850595059
 DF-MP2 singlet pair energy [au]:              -0.338631637482
 DF-MP2 triplet pair energy [au]:              -0.100560030280
 DF-SCS-MP2 correlation energy [au]:           -0.439877975072
 DF-SCS-MP2 energy [au]:                     -115.527728570132
 DF-SOS-MP2 correlation energy [au]:           -0.440221128727
 DF-SOS-MP2 energy [au]:                     -115.528071723786
 DF-MP2 correlation energy [au]:               -0.439191667763
 DF-MP2 energy [au]:                         -115.527042262822

 ************************ 2023-02-08 15:54:33 *************************
 Executing ccsd...

 Allocation of 220.0 Gbytes of memory...

 Direct DF-CCSD(T) calculation
 
 Convergence criterion:  1.0E-06
 
 Number of occupied/virtual/auxiliary orbitals:     7   122   328
    286.11 MB is the minimal memory requirement for (T)
     68.32 MB is the minimal memory requirement for CCSD
 
 Reference energy [au]:            -115.087850595059
 T1 contribution [au]:                0.000000000000
 Same spin MP2 energy [au]:          -0.100525845924
 Opposite spin MP2 energy [au]:      -0.338672881684
 MP2 correlation energy [au]:        -0.439198727607
 Total MP2 energy [au]:            -115.527049322666
 MP2 correction [au]:                -0.001042884362
 
 
 CPU time [min]:     0.306                   Wall time [min]:     0.023
 
 Starting CCSD iterations...
 
                     Residual norm          Energy
 Iteration  1        0.201281896539     -115.532654735319
 Iteration  2        0.047475399394     -115.542839524617
 Iteration  3        0.016939233226     -115.544963947402
 Iteration  4        0.003915497901     -115.544793357615
 Iteration  5        0.001282390569     -115.544827321796
 Iteration  6        0.000315024371     -115.544838277470
 Iteration  7        0.000112497694     -115.544834533573
 Iteration  8        0.000036303599     -115.544834565709
 Iteration  9        0.000011266017     -115.544834553262
 Iteration 10        0.000003514905     -115.544834464094
 
 CCSD iteration has converged in 10 steps.
      928.19 MB memory was utilized by CCSD
 
 T1 diagnostic:      9.847E-03            D1 diagnostic:      2.253E-02
 
 T1 contribution [au]:                                  0.000000000000
 PPL energy contribution [au]:                          0.104366947968
 Scaled PPL energy contribution [au]:                   0.104617465498

 OS-PPL energy contribution [au]:                       0.088874581664
 Scaled OS-PPL energy contribution [au]:                0.089142938233
 SS-PPL energy contribution [au]:                       0.015492366304
 Scaled SS-PPL energy contribution [au]:                0.015497407417

 Opposite spin CCSD energy [au]:                       -0.366305550357
 Same spin CCSD energy [au]:                           -0.090698843956
 CCSD correlation energy [au]:                         -0.457004394313
 CCSD correlation energy + MP2 correction [au]:        -0.458047278674
 CCSD correlation energy + MP2 + PPL corr. [au]:       -0.457796761144
 Total CCSD energy [au]:                             -115.544854989372
 Total CCSD energy + MP2 correction [au]:            -115.545897873734
 Total CCSD energy + MP2 + PPL corr. [au]:           -115.545647356203
 
 CPU time [min]:     2.168                   Wall time [min]:     0.085
 
 Calculation of (T) correction...
 
 
      265.11 MB memory is utilized for (T)

 0%       25%       50%       75%       100%
 |---------|---------|---------|---------| 
 
 (T) correction [au]:                                    -0.016241684519
 (T*) correction [au]:                                   -0.016280250658
 (T+) correction [au]:                                   -0.016280073860
 CCSD(T) correlation energy [au]:                        -0.473246078832
 CCSD(T) correlation energy + MP2 correction [au]:       -0.474288963194
 CCSD(T+) correlation en. + MP2 + PPL corr. [au]:        -0.474076835004
 Total CCSD(T) energy [au]:                            -115.561096673891
 Total CCSD(T) energy + MP2 correction [au]:           -115.562139558253
 Total CCSD(T+) energy + MP2 + PPL corr. [au]:         -115.561927430063
 
 CPU time [min]:     2.608                   Wall time [min]:     0.099
 
 ************************ 2023-02-08 15:54:39 *************************
                      Normal termination of mrcc.
 **********************************************************************
