 vasp.6.3.0 20Jan22 (build Mar 11 2022 13:48:16) complex                        
  
 executed on             LinuxIFC date 2023.12.30  22:34:31
 running on  608 total cores
 distrk:  each k-point on  608 cores,    1 groups
 distr:  one band on NCORE=  19 cores,   32 groups


--------------------------------------------------------------------------------------------------------


 INCAR:
   SYSTEM = TiO2
   ISMEAR = 0
   SIGMA = 0.05
   EDIFF = 1E-7
   ALGO = ALL
   ISTART = 0
   IBRION = 2
   NSW = 1000
   ISYM = 0
   ISIF = 2
   EDIFFG = -0.015
   DIPOL = 0.5 0.5 0.5
   IDIPOL = 3
   LDIPOL = .TRUE.
   METAGGA = R2SCAN
   LUSE_VDW = .TRUE.
   BPARAM = 11.95
   CPARAM = 0.0093
   LASPH = .TRUE.
   ENCUT = 600
   PREC = Accurate
   LASPH = .TRUE.
   LREAL = .FALSE.
   ISPIN = 1
   NELM = 200
   NELMIN = 8
   NCORE = 19
   KPAR = 1
   LWAVE = .FALSE.
   LCHARG = .FALSE.

 POTCAR:    PAW_PBE C 08Apr2002                   
 POTCAR:    PAW_PBE O 08Apr2002                   
 POTCAR:    PAW_PBE Ti_pv 07Sep2000               
 POTCAR:    PAW_PBE O 08Apr2002                   
 -----------------------------------------------------------------------------
|                                                                             |
|               ----> ADVICE to this user running VASP <----                  |
|                                                                             |
|     You have switched on vdW-DFT.                                           |
|     This routine was written and supplied by Jiri Klimes. We recommend      |
|     that you carefully read and cite the following publications:            |
|       J. Klimes, D.R. Bowler, A. Michelides                                 |
|          J. Phys.: Cond Matt. 22 022201 (2010)                              |
|       J. Klimes, D.R. Bowler, A. Michelides                                 |
|          Phys. Rev. B. 83, 195131 (2011)                                    |
|     and references therein.                                                 |
|                                                                             |
 -----------------------------------------------------------------------------

 POTCAR:    PAW_PBE C 08Apr2002                   
   SHA256 =  253f7b50bb8d59471dbedb8285d89021f4a42ed1a2c5d38a03a736e69125dd95 C/POTCAR              
   COPYR  = (c) Copyright 08Apr2002 Georg Kresse                                                    
   COPYR  = This file is part of the software VASP. Any use, copying, and all other rights are regul
   COPYR  = If you do not have a valid VASP license, you may not use, copy or distribute this file. 
   VRHFIN =C: s2p2                                                                                  
   LEXCH  = PE                                                                                      
   EATOM  =   147.1560 eV,   10.8157 Ry                                                             
                                                                                                    
   TITEL  = PAW_PBE C 08Apr2002                                                                     
   LULTRA =        F    use ultrasoft PP ?                                                          
   IUNSCR =        1    unscreen: 0-lin 1-nonlin 2-no                                               
   RPACOR =    1.200    partial core radius                                                         
   POMASS =   12.011; ZVAL   =    4.000    mass and valenz                                          
   RCORE  =    1.500    outmost cutoff radius                                                       
   RWIGS  =    1.630; RWIGS  =    0.863    wigner-seitz radius (au A)                               
   ENMAX  =  400.000; ENMIN  =  300.000 eV                                                          
   ICORE  =        2    local potential                                                             
   LCOR   =        T    correct aug charges                                                         
   LPAW   =        T    paw PP                                                                      
   EAUG   =  644.873                                                                                
   DEXC   =    0.000                                                                                
   RMAX   =    1.529    core radius for proj-oper                                                   
   RAUG   =    1.300    factor for augmentation sphere                                              
   RDEP   =    1.501    radius for radial grids                                                     
   RDEPT  =    1.300    core radius for aug-charge                                                  
                                                                                                    
   Atomic configuration                                                                             
    4 entries                                                                                       
     n  l   j            E        occ.                                                              
     1  0  0.50      -273.3789   2.0000                                                             
     2  0  0.50       -13.7508   2.0000                                                             
     2  1  0.50        -5.2854   2.0000                                                             
     3  2  1.50        -5.4423   0.0000                                                             
   Description                                                                                      
     l       E           TYP  RCUT    TYP  RCUT                                                     
     0    -13.7508458     23  1.200                                                                 
     0     -8.2022199     23  1.200                                                                 
     1     -5.2854383     23  1.500                                                                 
     1     34.0145650     23  1.500                                                                 
     2     -5.4423304      7  1.500                                                                 
  local pseudopotential read in
  partial core-charges read in
  partial kinetic energy density read in
  atomic valenz-charges read in
  non local Contribution for L=           0  read in
    real space projection operators read in
  non local Contribution for L=           0  read in
    real space projection operators read in
  non local Contribution for L=           1  read in
    real space projection operators read in
  non local Contribution for L=           1  read in
    real space projection operators read in
    PAW grid and wavefunctions read in
 
   number of l-projection  operators is LMAX  =           4
   number of lm-projection operators is LMMAX =           8
 
 POTCAR:    PAW_PBE O 08Apr2002                   
   SHA256 =  818f92134a0a090dccd8ba1447fa70422a3b330e708bb4f08108d8ae51209ddf O/POTCAR              
   COPYR  = (c) Copyright 08Apr2002 Georg Kresse                                                    
   COPYR  = This file is part of the software VASP. Any use, copying, and all other rights are regul
   COPYR  = If you do not have a valid VASP license, you may not use, copy or distribute this file. 
   VRHFIN =O: s2p4                                                                                  
   LEXCH  = PE                                                                                      
   EATOM  =   432.3788 eV,   31.7789 Ry                                                             
                                                                                                    
   TITEL  = PAW_PBE O 08Apr2002                                                                     
   LULTRA =        F    use ultrasoft PP ?                                                          
   IUNSCR =        1    unscreen: 0-lin 1-nonlin 2-no                                               
   RPACOR =    1.200    partial core radius                                                         
   POMASS =   16.000; ZVAL   =    6.000    mass and valenz                                          
   RCORE  =    1.520    outmost cutoff radius                                                       
   RWIGS  =    1.550; RWIGS  =    0.820    wigner-seitz radius (au A)                               
   ENMAX  =  400.000; ENMIN  =  300.000 eV                                                          
   ICORE  =        2    local potential                                                             
   LCOR   =        T    correct aug charges                                                         
   LPAW   =        T    paw PP                                                                      
   EAUG   =  605.392                                                                                
   DEXC   =    0.000                                                                                
   RMAX   =    1.553    core radius for proj-oper                                                   
   RAUG   =    1.300    factor for augmentation sphere                                              
   RDEP   =    1.550    radius for radial grids                                                     
   RDEPT  =    1.329    core radius for aug-charge                                                  
                                                                                                    
   Atomic configuration                                                                             
    4 entries                                                                                       
     n  l   j            E        occ.                                                              
     1  0  0.50      -514.6923   2.0000                                                             
     2  0  0.50       -23.9615   2.0000                                                             
     2  1  0.50        -9.0305   4.0000                                                             
     3  2  1.50        -9.5241   0.0000                                                             
   Description                                                                                      
     l       E           TYP  RCUT    TYP  RCUT                                                     
     0    -23.9615318     23  1.200                                                                 
     0     -9.5240782     23  1.200                                                                 
     1     -9.0304911     23  1.520                                                                 
     1      8.1634956     23  1.520                                                                 
     2     -9.5240782      7  1.500                                                                 
  local pseudopotential read in
  partial core-charges read in
  partial kinetic energy density read in
  kinetic energy density of atom read in
  atomic valenz-charges read in
  non local Contribution for L=           0  read in
    real space projection operators read in
  non local Contribution for L=           0  read in
    real space projection operators read in
  non local Contribution for L=           1  read in
    real space projection operators read in
  non local Contribution for L=           1  read in
    real space projection operators read in
    PAW grid and wavefunctions read in
 
   number of l-projection  operators is LMAX  =           4
   number of lm-projection operators is LMMAX =           8
 
 POTCAR:    PAW_PBE Ti_pv 07Sep2000               
   SHA256 =  f757a1b2c6d082f4c628fa3d987464a8763bf92e53844ac0500b0e2ddc9ce5c0 Ti_pv/POTCAR          
   COPYR  = (c) Copyright 07Sep2000 Georg Kresse                                                    
   COPYR  = This file is part of the software VASP. Any use, copying, and all other rights are regul
   COPYR  = If you do not have a valid VASP license, you may not use, copy or distribute this file. 
   VRHFIN =Ti: d3 s1                                                                                
   LEXCH  = PE                                                                                      
   EATOM  =  1042.5995 eV,   76.6289 Ry                                                             
                                                                                                    
   TITEL  = PAW_PBE Ti_pv 07Sep2000                                                                 
   LULTRA =        F    use ultrasoft PP ?                                                          
   IUNSCR =        1    unscreen: 0-lin 1-nonlin 2-no                                               
   RPACOR =    2.200    partial core radius                                                         
   POMASS =   47.880; ZVAL   =   10.000    mass and valenz                                          
   RCORE  =    2.500    outmost cutoff radius                                                       
   RWIGS  =    2.500; RWIGS  =    1.323    wigner-seitz radius (au A)                               
   ENMAX  =  222.335; ENMIN  =  166.751 eV                                                          
   RCLOC  =    1.701    cutoff for local pot                                                        
   LCOR   =        T    correct aug charges                                                         
   LPAW   =        T    paw PP                                                                      
   EAUG   =  482.848                                                                                
   DEXC   =    0.000                                                                                
   RMAX   =    2.564    core radius for proj-oper                                                   
   RAUG   =    1.300    factor for augmentation sphere                                              
   RDEP   =    2.538    radius for radial grids                                                     
   RDEPT  =    1.952    core radius for aug-charge                                                  
                                                                                                    
   Atomic configuration                                                                             
    8 entries                                                                                       
     n  l   j            E        occ.                                                              
     1  0  0.50     -4865.3608   2.0000                                                             
     2  0  0.50      -533.1368   2.0000                                                             
     2  1  1.50      -440.5031   6.0000                                                             
     3  0  0.50       -59.3186   2.0000                                                             
     3  1  1.50       -35.7012   6.0000                                                             
     3  2  2.50        -1.9157   3.0000                                                             
     4  0  0.50        -3.7291   1.0000                                                             
     4  3  2.50        -1.3606   0.0000                                                             
   Description                                                                                      
     l       E           TYP  RCUT    TYP  RCUT                                                     
     1    -35.7012140     23  2.300                                                                 
     1     -1.3605826     23  2.300                                                                 
     2     -1.9156996     23  2.500                                                                 
     2     -0.4063033     23  2.500                                                                 
     0     -3.7290856     23  2.500                                                                 
     0     20.4087390     23  2.500                                                                 
  local pseudopotential read in
  partial core-charges read in
  partial kinetic energy density read in
  atomic valenz-charges read in
  non local Contribution for L=           1  read in
    real space projection operators read in
  non local Contribution for L=           1  read in
    real space projection operators read in
  non local Contribution for L=           2  read in
    real space projection operators read in
  non local Contribution for L=           2  read in
    real space projection operators read in
  non local Contribution for L=           0  read in
    real space projection operators read in
  non local Contribution for L=           0  read in
    real space projection operators read in
    PAW grid and wavefunctions read in
 
   number of l-projection  operators is LMAX  =           6
   number of lm-projection operators is LMMAX =          18
 
 POTCAR:    PAW_PBE O 08Apr2002                   
   SHA256 =  818f92134a0a090dccd8ba1447fa70422a3b330e708bb4f08108d8ae51209ddf O/POTCAR              
   COPYR  = (c) Copyright 08Apr2002 Georg Kresse                                                    
   COPYR  = This file is part of the software VASP. Any use, copying, and all other rights are regul
   COPYR  = If you do not have a valid VASP license, you may not use, copy or distribute this file. 
   VRHFIN =O: s2p4                                                                                  
   LEXCH  = PE                                                                                      
   EATOM  =   432.3788 eV,   31.7789 Ry                                                             
                                                                                                    
   TITEL  = PAW_PBE O 08Apr2002                                                                     
   LULTRA =        F    use ultrasoft PP ?                                                          
   IUNSCR =        1    unscreen: 0-lin 1-nonlin 2-no                                               
   RPACOR =    1.200    partial core radius                                                         
   POMASS =   16.000; ZVAL   =    6.000    mass and valenz                                          
   RCORE  =    1.520    outmost cutoff radius                                                       
   RWIGS  =    1.550; RWIGS  =    0.820    wigner-seitz radius (au A)                               
   ENMAX  =  400.000; ENMIN  =  300.000 eV                                                          
   ICORE  =        2    local potential                                                             
   LCOR   =        T    correct aug charges                                                         
   LPAW   =        T    paw PP                                                                      
   EAUG   =  605.392                                                                                
   DEXC   =    0.000                                                                                
   RMAX   =    1.553    core radius for proj-oper                                                   
   RAUG   =    1.300    factor for augmentation sphere                                              
   RDEP   =    1.550    radius for radial grids                                                     
   RDEPT  =    1.329    core radius for aug-charge                                                  
                                                                                                    
   Atomic configuration                                                                             
    4 entries                                                                                       
     n  l   j            E        occ.                                                              
     1  0  0.50      -514.6923   2.0000                                                             
     2  0  0.50       -23.9615   2.0000                                                             
     2  1  0.50        -9.0305   4.0000                                                             
     3  2  1.50        -9.5241   0.0000                                                             
   Description                                                                                      
     l       E           TYP  RCUT    TYP  RCUT                                                     
     0    -23.9615318     23  1.200                                                                 
     0     -9.5240782     23  1.200                                                                 
     1     -9.0304911     23  1.520                                                                 
     1      8.1634956     23  1.520                                                                 
     2     -9.5240782      7  1.500                                                                 
  local pseudopotential read in
  partial core-charges read in
  partial kinetic energy density read in
  kinetic energy density of atom read in
  atomic valenz-charges read in
  non local Contribution for L=           0  read in
    real space projection operators read in
  non local Contribution for L=           0  read in
    real space projection operators read in
  non local Contribution for L=           1  read in
    real space projection operators read in
  non local Contribution for L=           1  read in
    real space projection operators read in
    PAW grid and wavefunctions read in
 
   number of l-projection  operators is LMAX  =           4
   number of lm-projection operators is LMMAX =           8
 
 -----------------------------------------------------------------------------
|                                                                             |
|               ----> ADVICE to this user running VASP <----                  |
|                                                                             |
|     You have a (more or less) 'large supercell' and for larger cells it     |
|     might be more efficient to use real-space projection operators.         |
|     Therefore, try LREAL= Auto in the INCAR file.                           |
|     Mind: For very accurate calculation, you might also keep the            |
|     reciprocal projection scheme (i.e. LREAL=.FALSE.).                      |
|                                                                             |
 -----------------------------------------------------------------------------

  PAW_PBE C 08Apr2002                   :
 energy of atom  1       EATOM= -147.1560
 kinetic energy error for atom=    0.0057 (will be added to EATOM!!)
  PAW_PBE O 08Apr2002                   :
 energy of atom  2       EATOM= -432.3788
 kinetic energy error for atom=    0.0168 (will be added to EATOM!!)
  PAW_PBE Ti_pv 07Sep2000               :
 energy of atom  3       EATOM=-1042.5995
 kinetic energy error for atom=    0.0007 (will be added to EATOM!!)
  PAW_PBE O 08Apr2002                   :
 energy of atom  4       EATOM= -432.3788
 kinetic energy error for atom=    0.0168 (will be added to EATOM!!)
 
 
 POSCAR:  C  O Ti  O
  positions in direct lattice
  velocities in cartesian coordinates

 METAGGA = R2SCA    LMAXTAU =  6    LMIXTAU =  F

 exchange correlation table for  LEXCH =        8
   RHO(1)=    0.500       N(1)  =     2000
   RHO(2)=  100.500       N(2)  =     4000
 


--------------------------------------------------------------------------------------------------------


 ion  position               nearest neighbor table
   1  0.500  0.609  0.799-   2 1.16   3 1.17
   2  0.500  0.706  0.805-   1 1.16
   3  0.500  0.512  0.791-   1 1.17  83 2.50
   4  0.750  0.625  0.287-  85 1.95 145 1.95 144 1.95  84 1.95  87 1.97 166 1.97  14 2.96  34 2.96

   5  0.000  0.750  0.287-  86 1.95  87 1.95 106 1.95 107 1.95  88 1.97  35 2.96  15 2.96
   6  0.000  0.625  0.394-  88 1.95  89 1.95 148 1.95 149 1.95  90 1.97  91 1.97  16 2.96  36 2.96

   7  0.750  0.750  0.394-  90 1.95 110 1.95 171 1.95 191 1.95  92 1.97  85 1.97  17 2.96  37 2.96

   8  0.750  0.625  0.500-  92 1.95  93 1.95 152 1.95 153 1.95  95 1.97 174 1.97  18 2.96  38 2.96

   9  0.000  0.750  0.500-  94 1.95  95 1.95 114 1.95 115 1.95  89 1.97  96 1.99  19 2.96  39 2.96

  10  1.000  0.625  0.604-  96 1.90 156 1.90  98 1.95  99 1.95  97 2.01 157 2.01  20 2.96  40 2.96

  11  0.750  0.750  0.610- 100 1.87 199 1.97 179 1.97  98 1.97 118 1.97  93 2.09  21 2.96  41 2.96

  12  0.750  0.625  0.719- 101 1.83 161 1.83 103 2.03 182 2.03 100 2.08 160 2.09  22 2.96  42 2.96

  13  0.000  0.750  0.708-  97 1.81 123 1.94 122 1.94 103 1.94 102 1.94  23 2.96  43 2.96
  14  0.750  0.875  0.287-  85 1.95 105 1.95 104 1.95  84 1.95 107 1.97 186 1.97   4 2.96  24 2.96

  15  0.000  0.000  0.287- 106 1.95 107 1.95 126 1.95 127 1.95 108 1.97  25 2.96   5 2.96
  16  0.000  0.875  0.394-  88 1.95  89 1.95 108 1.95 109 1.95 110 1.97 111 1.97   6 2.96  26 2.96

  17  0.750  0.000  0.394- 110 1.95 130 1.95 191 1.95 211 1.95 112 1.97 105 1.97   7 2.96  27 2.96

  18  0.750  0.875  0.500-  92 1.95  93 1.95 112 1.95 113 1.95 115 1.97 194 1.97   8 2.96  28 2.96

  19  0.000  0.000  0.500- 114 1.95 115 1.95 134 1.95 135 1.95 109 1.97 116 1.99   9 2.96  29 2.96

  20  1.000  0.875  0.604- 116 1.90  96 1.90 118 1.95 119 1.95 117 2.01  97 2.01  30 2.96  10 2.96

  21  0.750  0.000  0.610- 120 1.87 219 1.97 199 1.97 118 1.97 138 1.97 113 2.09  31 2.96  11 2.96

  22  0.750  0.875  0.720- 121 1.83 101 1.83 202 2.02 123 2.03 120 2.09 100 2.09  12 2.96  32 2.96

  23  0.000  0.000  0.708- 117 1.81 142 1.94 143 1.94 122 1.94 123 1.94  13 2.96  33 2.96
  24  0.750  0.125  0.287- 105 1.95 125 1.95 124 1.95 104 1.95 127 1.97 206 1.97  14 2.96  34 2.96

  25  0.000  0.250  0.287- 126 1.95 127 1.95 146 1.95 147 1.95 128 1.97  35 2.96  15 2.96
  26  0.000  0.125  0.394- 108 1.95 109 1.95 128 1.95 129 1.95 130 1.97 131 1.97  16 2.96  36 2.96

  27  0.750  0.250  0.394- 130 1.95 150 1.95 211 1.95 231 1.95 132 1.97 125 1.97  17 2.96  37 2.96

  28  0.750  0.125  0.500- 112 1.95 113 1.95 132 1.95 133 1.95 135 1.97 214 1.97  18 2.96  38 2.96

  29  0.000  0.250  0.500- 134 1.95 135 1.95 154 1.95 155 1.95 129 1.97 136 1.99  19 2.96  39 2.96

  30  1.000  0.125  0.604- 116 1.90 136 1.90 138 1.95 139 1.95 117 2.01 137 2.01  20 2.96  40 2.96

  31  0.750  0.250  0.610- 140 1.87 219 1.97 239 1.97 158 1.97 138 1.97 133 2.09  21 2.96  41 2.96

  32  0.750  0.125  0.720- 121 1.83 141 1.83 222 2.03 143 2.03 140 2.09 120 2.09  22 2.96  42 2.96

  33  0.000  0.250  0.708- 137 1.81 142 1.94 143 1.94 163 1.94 162 1.94  23 2.96  43 2.96
  34  0.750  0.375  0.287- 125 1.95 145 1.95 144 1.95 124 1.95 147 1.97 226 1.97   4 2.96  24 2.96

  35  0.000  0.500  0.287-  86 1.95  87 1.95 146 1.95 147 1.95 148 1.97  25 2.96   5 2.96
  36  0.000  0.375  0.394- 128 1.95 129 1.95 148 1.95 149 1.95 150 1.97 151 1.97   6 2.96  26 2.96

  37  0.750  0.500  0.394-  90 1.95 150 1.95 171 1.95 231 1.95 145 1.97 152 1.97   7 2.96  27 2.96

  38  0.750  0.375  0.500- 132 1.95 133 1.95 152 1.95 153 1.95 155 1.97 234 1.97   8 2.96  28 2.96

  39  0.000  0.500  0.500-  94 1.95  95 1.95 154 1.95 155 1.95 149 1.97 156 1.99   9 2.96  29 2.96

  40  1.000  0.375  0.604- 136 1.90 156 1.90 158 1.95 159 1.95 137 2.01 157 2.01  30 2.96  10 2.96

  41  0.750  0.500  0.610- 160 1.87 239 1.97 179 1.97 158 1.97  98 1.97 153 2.09  31 2.96  11 2.96

  42  0.750  0.375  0.720- 141 1.83 161 1.83 242 2.03 163 2.03 160 2.09 140 2.09  32 2.96  12 2.96

  43  0.000  0.500  0.708- 157 1.81 163 1.94 162 1.94 103 1.94 102 1.94  13 2.96  33 2.96
  44  0.250  0.625  0.287- 165 1.95 225 1.95 224 1.95 164 1.95  86 1.97 167 1.97  54 2.96  74 2.96

  45  0.500  0.750  0.287- 166 1.95 167 1.95 186 1.95 187 1.95 168 1.97  75 2.96  55 2.96
  46  0.500  0.625  0.394- 168 1.95 169 1.95 228 1.95 229 1.95 170 1.97 171 1.97  56 2.96  76 2.96

  47  0.250  0.750  0.394-  91 1.95 111 1.95 170 1.95 190 1.95 172 1.97 165 1.97  57 2.96  77 2.96

  48  0.250  0.625  0.500- 172 1.95 173 1.95 232 1.95 233 1.95  94 1.97 175 1.97  58 2.96  78 2.96

  49  0.500  0.750  0.500- 174 1.95 175 1.95 194 1.95 195 1.95 169 1.97 176 1.99  59 2.96  79 2.96

  50  0.500  0.625  0.605- 236 1.90 176 1.91 178 1.95 179 1.95 177 2.00 237 2.00  80 2.95  60 2.96

  51  0.250  0.750  0.610- 180 1.87 198 1.97 178 1.97  99 1.97 119 1.97 173 2.09  61 2.96  81 2.96

  52  0.250  0.625  0.719- 181 1.83 241 1.83 102 2.03 183 2.03 180 2.08 240 2.09  62 2.96  82 2.96

  53  0.500  0.751  0.708- 177 1.81 183 1.94 182 1.94 203 1.94 202 1.94  63 2.95  83 2.98
  54  0.250  0.875  0.287- 165 1.95 185 1.95 184 1.95 164 1.95 106 1.97 187 1.97  44 2.96  64 2.96

  55  0.500  0.000  0.287- 186 1.95 187 1.95 206 1.95 207 1.95 188 1.97  65 2.96  45 2.96
  56  0.500  0.875  0.394- 168 1.95 169 1.95 188 1.95 189 1.95 190 1.97 191 1.97  46 2.96  66 2.96

  57  0.250  0.000  0.394- 111 1.95 131 1.95 190 1.95 210 1.95 192 1.97 185 1.97  47 2.96  67 2.96

  58  0.250  0.875  0.500- 172 1.95 173 1.95 192 1.95 193 1.95 114 1.97 195 1.97  48 2.96  68 2.96

  59  0.500  0.000  0.500- 194 1.95 195 1.95 214 1.95 215 1.95 189 1.97 196 1.98  49 2.96  69 2.96

  60  0.500  0.875  0.604- 176 1.90 196 1.90 198 1.95 199 1.95 177 2.00 197 2.01  50 2.96  70 2.96

  61  0.250  0.000  0.610- 200 1.87 218 1.97 198 1.97 119 1.97 139 1.97 193 2.09  71 2.96  51 2.96

  62  0.250  0.875  0.720- 201 1.83 181 1.83 203 2.02 122 2.03 200 2.09 180 2.09  52 2.96  72 2.96

  63  0.500  0.000  0.708- 197 1.81 203 1.94 202 1.94 223 1.94 222 1.94  53 2.95  73 2.95
  64  0.250  0.125  0.287- 185 1.95 205 1.95 204 1.95 184 1.95 126 1.97 207 1.97  54 2.96  74 2.96

  65  0.500  0.250  0.287- 206 1.95 207 1.95 226 1.95 227 1.95 208 1.97  75 2.96  55 2.96
  66  0.500  0.125  0.394- 188 1.95 189 1.95 208 1.95 209 1.95 210 1.97 211 1.97  56 2.96  76 2.96

  67  0.250  0.250  0.394- 131 1.95 151 1.95 210 1.95 230 1.95 212 1.97 205 1.97  57 2.96  77 2.96

  68  0.250  0.125  0.500- 192 1.95 193 1.95 212 1.95 213 1.95 134 1.97 215 1.97  58 2.96  78 2.96

  69  0.500  0.250  0.500- 214 1.95 215 1.95 234 1.95 235 1.95 209 1.97 216 1.99  59 2.96  79 2.96

  70  0.500  0.125  0.604- 216 1.90 196 1.90 218 1.95 219 1.95 217 2.00 197 2.01  80 2.96  60 2.96

  71  0.250  0.250  0.610- 220 1.87 218 1.97 238 1.97 159 1.97 139 1.97 213 2.09  61 2.96  81 2.96

  72  0.250  0.125  0.720- 201 1.83 221 1.83 223 2.03 142 2.03 220 2.09 200 2.09  62 2.96  82 2.96

  73  0.500  0.250  0.708- 217 1.81 242 1.94 243 1.94 223 1.94 222 1.94  83 2.95  63 2.95
  74  0.250  0.375  0.287- 205 1.95 225 1.95 224 1.95 204 1.95 146 1.97 227 1.97  44 2.96  64 2.96

  75  0.500  0.500  0.287- 166 1.95 167 1.95 226 1.95 227 1.95 228 1.97  65 2.96  45 2.96
  76  0.500  0.375  0.394- 208 1.95 209 1.95 228 1.95 229 1.95 230 1.97 231 1.97  46 2.96  66 2.96

  77  0.250  0.500  0.394-  91 1.95 151 1.95 170 1.95 230 1.95 225 1.97 232 1.97  47 2.96  67 2.96

  78  0.250  0.375  0.500- 212 1.95 213 1.95 232 1.95 233 1.95 154 1.97 235 1.97  48 2.96  68 2.96

  79  0.500  0.500  0.500- 174 1.95 175 1.95 234 1.95 235 1.95 229 1.97 236 1.99  49 2.96  69 2.96

  80  0.500  0.376  0.605- 236 1.90 216 1.91 238 1.95 239 1.95 237 2.00 217 2.01  50 2.95  70 2.96

  81  0.250  0.500  0.610- 240 1.87 238 1.97 178 1.97 159 1.97  99 1.97 233 2.09  71 2.96  51 2.96

  82  0.250  0.375  0.720- 221 1.83 241 1.83 243 2.03 162 2.03 240 2.09 220 2.09  72 2.96  52 2.96

  83  0.500  0.499  0.709- 237 1.83 243 1.93 242 1.93 183 1.96 182 1.96   3 2.50  73 2.95  53 2.98

  84  0.750  0.750  0.246-   4 1.95  14 1.95
  85  0.750  0.750  0.329-   4 1.95  14 1.95   7 1.97
  86  0.098  0.625  0.287-   5 1.95  35 1.95  44 1.97
  87  0.902  0.625  0.287-   5 1.95  35 1.95   4 1.97
  88  0.000  0.750  0.352-   6 1.95  16 1.95   5 1.97
  89  0.000  0.750  0.435-   6 1.95  16 1.95   9 1.97
  90  0.848  0.625  0.394-   7 1.95  37 1.95   6 1.97
  91  0.152  0.625  0.394-  47 1.95  77 1.95   6 1.97
  92  0.750  0.750  0.458-   8 1.95  18 1.95   7 1.97
  93  0.750  0.750  0.542-   8 1.95  18 1.95  11 2.09
  94  0.098  0.625  0.500-   9 1.95  39 1.95  48 1.97
  95  0.902  0.625  0.500-   9 1.95  39 1.95   8 1.97
  96  1.000  0.750  0.565-  10 1.90  20 1.90   9 1.99
  97  0.000  0.750  0.649-  13 1.81  10 2.01  20 2.01
  98  0.850  0.625  0.607-  10 1.95  11 1.97  41 1.97
  99  0.150  0.625  0.607-  10 1.95  51 1.97  81 1.97
 100  0.751  0.750  0.671-  11 1.87  12 2.08  22 2.09
 101  0.749  0.750  0.755-  12 1.83  22 1.83
 102  0.094  0.625  0.719-  43 1.94  13 1.94  52 2.03
 103  0.906  0.625  0.719-  43 1.94  13 1.94  12 2.03
 104  0.750  0.000  0.246-  14 1.95  24 1.95
 105  0.750  0.000  0.329-  14 1.95  24 1.95  17 1.97
 106  0.098  0.875  0.287-   5 1.95  15 1.95  54 1.97
 107  0.902  0.875  0.287-   5 1.95  15 1.95  14 1.97
 108  0.000  0.000  0.352-  16 1.95  26 1.95  15 1.97
 109  0.000  0.000  0.435-  16 1.95  26 1.95  19 1.97
 110  0.848  0.875  0.394-   7 1.95  17 1.95  16 1.97
 111  0.152  0.875  0.394-  47 1.95  57 1.95  16 1.97
 112  0.750  0.000  0.458-  18 1.95  28 1.95  17 1.97
 113  0.750  0.000  0.542-  18 1.95  28 1.95  21 2.09
 114  0.098  0.875  0.500-   9 1.95  19 1.95  58 1.97
 115  0.902  0.875  0.500-   9 1.95  19 1.95  18 1.97
 116  1.000  0.000  0.565-  30 1.90  20 1.90  19 1.99
 117  0.000  1.000  0.649-  23 1.81  20 2.01  30 2.01
 118  0.850  0.875  0.607-  20 1.95  21 1.97  11 1.97
 119  0.150  0.875  0.607-  20 1.95  61 1.97  51 1.97
 120  0.750  0.000  0.671-  21 1.87  22 2.09  32 2.09
 121  0.750  0.000  0.755-  22 1.83  32 1.83
 122  0.094  0.875  0.718-  13 1.94  23 1.94  62 2.03
 123  0.906  0.875  0.718-  13 1.94  23 1.94  22 2.03
 124  0.750  0.250  0.246-  24 1.95  34 1.95
 125  0.750  0.250  0.329-  24 1.95  34 1.95  27 1.97
 126  0.098  0.125  0.287-  15 1.95  25 1.95  64 1.97
 127  0.902  0.125  0.287-  15 1.95  25 1.95  24 1.97
 128  0.000  0.250  0.352-  26 1.95  36 1.95  25 1.97
 129  0.000  0.250  0.435-  26 1.95  36 1.95  29 1.97
 130  0.848  0.125  0.394-  17 1.95  27 1.95  26 1.97
 131  0.152  0.125  0.394-  57 1.95  67 1.95  26 1.97
 132  0.750  0.250  0.458-  28 1.95  38 1.95  27 1.97
 133  0.750  0.250  0.542-  28 1.95  38 1.95  31 2.09
 134  0.098  0.125  0.500-  19 1.95  29 1.95  68 1.97
 135  0.902  0.125  0.500-  19 1.95  29 1.95  28 1.97
 136  1.000  0.250  0.565-  40 1.90  30 1.90  29 1.99
 137  0.000  0.250  0.649-  33 1.81  40 2.01  30 2.01
 138  0.850  0.125  0.607-  30 1.95  21 1.97  31 1.97
 139  0.150  0.125  0.607-  30 1.95  61 1.97  71 1.97
 140  0.751  0.250  0.671-  31 1.87  32 2.09  42 2.09
 141  0.750  0.250  0.755-  42 1.83  32 1.83
 142  0.094  0.125  0.718-  33 1.94  23 1.94  72 2.03
 143  0.906  0.125  0.718-  33 1.94  23 1.94  32 2.03
 144  0.750  0.500  0.246-   4 1.95  34 1.95
 145  0.750  0.500  0.329-   4 1.95  34 1.95  37 1.97
 146  0.098  0.375  0.287-  25 1.95  35 1.95  74 1.97
 147  0.902  0.375  0.287-  25 1.95  35 1.95  34 1.97
 148  0.000  0.500  0.352-   6 1.95  36 1.95  35 1.97
 149  0.000  0.500  0.435-   6 1.95  36 1.95  39 1.97
 150  0.848  0.375  0.394-  27 1.95  37 1.95  36 1.97
 151  0.152  0.375  0.394-  67 1.95  77 1.95  36 1.97
 152  0.750  0.500  0.458-   8 1.95  38 1.95  37 1.97
 153  0.750  0.500  0.542-   8 1.95  38 1.95  41 2.09
 154  0.098  0.375  0.500-  29 1.95  39 1.95  78 1.97
 155  0.902  0.375  0.500-  29 1.95  39 1.95  38 1.97
 156  1.000  0.500  0.565-  40 1.90  10 1.90  39 1.99
 157  0.000  0.500  0.649-  43 1.81  10 2.01  40 2.01
 158  0.850  0.375  0.607-  40 1.95  41 1.97  31 1.97
 159  0.150  0.375  0.607-  40 1.95  81 1.97  71 1.97
 160  0.751  0.500  0.671-  41 1.87  12 2.09  42 2.09
 161  0.748  0.500  0.755-  42 1.83  12 1.83
 162  0.094  0.375  0.719-  43 1.94  33 1.94  82 2.03
 163  0.906  0.375  0.719-  43 1.94  33 1.94  42 2.03
 164  0.250  0.750  0.246-  44 1.95  54 1.95
 165  0.250  0.750  0.329-  44 1.95  54 1.95  47 1.97
 166  0.598  0.625  0.287-  45 1.95  75 1.95   4 1.97
 167  0.402  0.625  0.287-  45 1.95  75 1.95  44 1.97
 168  0.500  0.750  0.352-  46 1.95  56 1.95  45 1.97
 169  0.500  0.750  0.435-  46 1.95  56 1.95  49 1.97
 170  0.348  0.625  0.394-  47 1.95  77 1.95  46 1.97
 171  0.652  0.625  0.394-   7 1.95  37 1.95  46 1.97
 172  0.250  0.750  0.458-  48 1.95  58 1.95  47 1.97
 173  0.250  0.750  0.542-  48 1.95  58 1.95  51 2.09
 174  0.598  0.625  0.500-  49 1.95  79 1.95   8 1.97
 175  0.402  0.625  0.500-  49 1.95  79 1.95  48 1.97
 176  0.500  0.749  0.565-  60 1.90  50 1.91  49 1.99
 177  0.500  0.751  0.648-  53 1.81  60 2.00  50 2.00
 178  0.350  0.625  0.607-  50 1.95  81 1.97  51 1.97
 179  0.650  0.625  0.607-  50 1.95  41 1.97  11 1.97
 180  0.249  0.750  0.671-  51 1.87  52 2.08  62 2.09
 181  0.251  0.750  0.755-  52 1.83  62 1.83
 182  0.594  0.626  0.718-  53 1.94  83 1.96  12 2.03
 183  0.406  0.626  0.718-  53 1.94  83 1.96  52 2.03
 184  0.250  0.000  0.246-  54 1.95  64 1.95
 185  0.250  0.000  0.329-  54 1.95  64 1.95  57 1.97
 186  0.598  0.875  0.287-  45 1.95  55 1.95  14 1.97
 187  0.402  0.875  0.287-  45 1.95  55 1.95  54 1.97
 188  0.500  0.000  0.352-  56 1.95  66 1.95  55 1.97
 189  0.500  0.000  0.435-  56 1.95  66 1.95  59 1.97
 190  0.348  0.875  0.394-  47 1.95  57 1.95  56 1.97
 191  0.652  0.875  0.394-   7 1.95  17 1.95  56 1.97
 192  0.250  0.000  0.458-  58 1.95  68 1.95  57 1.97
 193  0.250  0.000  0.542-  58 1.95  68 1.95  61 2.09
 194  0.598  0.875  0.500-  49 1.95  59 1.95  18 1.97
 195  0.402  0.875  0.500-  49 1.95  59 1.95  58 1.97
 196  0.500  0.000  0.565-  70 1.90  60 1.90  59 1.98
 197  0.500  0.000  0.648-  63 1.81  70 2.01  60 2.01
 198  0.350  0.875  0.607-  60 1.95  61 1.97  51 1.97
 199  0.650  0.875  0.607-  60 1.95  21 1.97  11 1.97
 200  0.250  0.000  0.671-  61 1.87  62 2.09  72 2.09
 201  0.250  0.000  0.755-  62 1.83  72 1.83
 202  0.594  0.876  0.718-  63 1.94  53 1.94  22 2.02
 203  0.406  0.876  0.718-  63 1.94  53 1.94  62 2.02
 204  0.250  0.250  0.246-  64 1.95  74 1.95
 205  0.250  0.250  0.329-  64 1.95  74 1.95  67 1.97
 206  0.598  0.125  0.287-  55 1.95  65 1.95  24 1.97
 207  0.402  0.125  0.287-  55 1.95  65 1.95  64 1.97
 208  0.500  0.250  0.352-  66 1.95  76 1.95  65 1.97
 209  0.500  0.250  0.435-  66 1.95  76 1.95  69 1.97
 210  0.348  0.125  0.394-  57 1.95  67 1.95  66 1.97
 211  0.652  0.125  0.394-  17 1.95  27 1.95  66 1.97
 212  0.250  0.250  0.458-  68 1.95  78 1.95  67 1.97
 213  0.250  0.250  0.542-  68 1.95  78 1.95  71 2.09
 214  0.598  0.125  0.500-  59 1.95  69 1.95  28 1.97
 215  0.402  0.125  0.500-  59 1.95  69 1.95  68 1.97
 216  0.500  0.251  0.565-  70 1.90  80 1.91  69 1.99
 217  0.500  0.249  0.648-  73 1.81  70 2.00  80 2.01
 218  0.350  0.125  0.607-  70 1.95  61 1.97  71 1.97
 219  0.650  0.125  0.607-  70 1.95  21 1.97  31 1.97
 220  0.249  0.250  0.671-  71 1.87  72 2.09  82 2.09
 221  0.250  0.250  0.755-  82 1.83  72 1.83
 222  0.594  0.125  0.718-  73 1.94  63 1.94  32 2.03
 223  0.406  0.125  0.718-  73 1.94  63 1.94  72 2.03
 224  0.250  0.500  0.246-  44 1.95  74 1.95
 225  0.250  0.500  0.329-  44 1.95  74 1.95  77 1.97
 226  0.598  0.375  0.287-  65 1.95  75 1.95  34 1.97
 227  0.402  0.375  0.287-  65 1.95  75 1.95  74 1.97
 228  0.500  0.500  0.352-  46 1.95  76 1.95  75 1.97
 229  0.500  0.500  0.435-  46 1.95  76 1.95  79 1.97
 230  0.348  0.375  0.394-  67 1.95  77 1.95  76 1.97
 231  0.652  0.375  0.394-  27 1.95  37 1.95  76 1.97
 232  0.250  0.500  0.458-  48 1.95  78 1.95  77 1.97
 233  0.250  0.500  0.542-  48 1.95  78 1.95  81 2.09
 234  0.598  0.375  0.500-  69 1.95  79 1.95  38 1.97
 235  0.402  0.375  0.500-  69 1.95  79 1.95  78 1.97
 236  0.500  0.500  0.565-  80 1.90  50 1.90  79 1.99
 237  0.500  0.500  0.649-  83 1.83  80 2.00  50 2.00
 238  0.350  0.375  0.607-  80 1.95  81 1.97  71 1.97
 239  0.650  0.375  0.607-  80 1.95  41 1.97  31 1.97
 240  0.249  0.500  0.671-  81 1.87  52 2.09  82 2.09
 241  0.252  0.500  0.755-  82 1.83  52 1.83
 242  0.594  0.374  0.718-  83 1.93  73 1.94  42 2.03
 243  0.406  0.374  0.718-  83 1.93  73 1.94  82 2.03
 

IMPORTANT INFORMATION: All symmetrisations will be switched off!
NOSYMM: (Re-)initialisation of all symmetry stuff for point group C_1.


----------------------------------------------------------------------------------------

                                     Primitive cell                                     

  volume of cell :    4687.8040

  direct lattice vectors                    reciprocal lattice vectors
    12.981773603  0.000000000  0.000000000     0.077031077  0.000000000  0.000000000
     0.000000000 11.829932295  0.000000000     0.000000000  0.084531338  0.000000000
     0.000000000  0.000000000 30.524823105     0.000000000  0.000000000  0.032760223

  length of vectors
    12.981773603 11.829932295 30.524823105     0.077031077  0.084531338  0.032760223

  position of ions in fractional coordinates (direct lattice)
     0.499999969  0.609330004  0.798605684
     0.499999893  0.706291577  0.805036088
     0.500000003  0.512025067  0.791041544
     0.750000000  0.625000000  0.287357103
     0.000000000  0.750000000  0.287357103
     0.000000000  0.625000000  0.393678552
     0.750000000  0.750000000  0.393678552
     0.750000000  0.625000000  0.500000000
     0.000000000  0.750000000  0.500000000
     0.999999895  0.625033260  0.604143020
     0.750038199  0.750059279  0.610063234
     0.750211342  0.625243845  0.719338251
     0.000000092  0.750167473  0.708049104
     0.750000000  0.875000000  0.287357103
     0.000000000  0.000000000  0.287357103
     0.000000000  0.875000000  0.393678552
     0.750000000  0.000000000  0.393678552
     0.750000000  0.875000000  0.500000000
     0.000000000  0.000000000  0.500000000
     0.999999899  0.875042396  0.604155482
     0.749989585  0.000030517  0.610169106
     0.749896232  0.875143414  0.719721866
     0.000000135  0.000045124  0.708067649
     0.750000000  0.125000000  0.287357103
     0.000000000  0.250000000  0.287357103
     0.000000000  0.125000000  0.393678552
     0.750000000  0.250000000  0.393678552
     0.750000000  0.125000000  0.500000000
     0.000000000  0.250000000  0.500000000
     0.999999905  0.125008930  0.604177922
     0.750026080  0.249992082  0.610166493
     0.749938025  0.125082404  0.719709419
     0.000000147  0.249980958  0.708073812
     0.750000000  0.375000000  0.287357103
     0.000000000  0.500000000  0.287357103
     0.000000000  0.375000000  0.393678552
     0.750000000  0.500000000  0.393678552
     0.750000000  0.375000000  0.500000000
     0.000000000  0.500000000  0.500000000
     0.999999898  0.375002819  0.604145479
     0.750072839  0.499994534  0.610096264
     0.750180312  0.375085332  0.719664219
     0.000000064  0.500074970  0.708039156
     0.250000000  0.625000000  0.287357103
     0.500000000  0.750000000  0.287357103
     0.500000000  0.625000000  0.393678552
     0.250000000  0.750000000  0.393678552
     0.250000000  0.625000000  0.500000000
     0.500000000  0.750000000  0.500000000
     0.499999893  0.624518537  0.604646160
     0.249961542  0.750059280  0.610063218
     0.249788700  0.625243867  0.719338207
     0.500000112  0.750853191  0.707844225
     0.250000000  0.875000000  0.287357103
     0.500000000  0.000000000  0.287357103
     0.500000000  0.875000000  0.393678552
     0.250000000  0.000000000  0.393678552
     0.250000000  0.875000000  0.500000000
     0.500000000  0.000000000  0.500000000
     0.499999882  0.874735291  0.603893022
     0.250010183  0.000030516  0.610169092
     0.250103976  0.875143426  0.719721854
     0.500000127  0.000124855  0.707741932
     0.250000000  0.125000000  0.287357103
     0.500000000  0.250000000  0.287357103
     0.500000000  0.125000000  0.393678552
     0.250000000  0.250000000  0.393678552
     0.250000000  0.125000000  0.500000000
     0.500000000  0.250000000  0.500000000
     0.499999882  0.125233259  0.603881967
     0.249973666  0.249992072  0.610166493
     0.250062239  0.125082462  0.719709407
     0.500000166  0.249558758  0.707780174
     0.250000000  0.375000000  0.287357103
     0.500000000  0.500000000  0.287357103
     0.500000000  0.375000000  0.393678552
     0.250000000  0.500000000  0.393678552
     0.250000000  0.375000000  0.500000000
     0.500000000  0.500000000  0.500000000
     0.499999892  0.375555203  0.604535644
     0.249926915  0.499994526  0.610096223
     0.249819856  0.375085411  0.719664200
     0.500000036  0.498804433  0.709166638
     0.750000000  0.750000000  0.245701670
     0.750000000  0.750000000  0.329012537
     0.097946921  0.625000000  0.287357103
     0.902053079  0.625000000  0.287357103
     0.000000000  0.750000000  0.352023118
     0.000000000  0.750000000  0.435333986
     0.847946921  0.625000000  0.393678552
     0.152053079  0.625000000  0.393678552
     0.750000000  0.750000000  0.458344566
     0.750000000  0.750000000  0.541655434
     0.097946921  0.625000000  0.500000000
     0.902053079  0.625000000  0.500000000
     0.999999950  0.750047989  0.565159021
     0.000000084  0.750011920  0.648674758
     0.850120631  0.625056409  0.606762734
     0.149879483  0.625056405  0.606762684
     0.750647725  0.750277343  0.671233644
     0.749323778  0.749811821  0.754894802
     0.093794671  0.625038837  0.718519947
     0.906205688  0.625038851  0.718520086
     0.750000000  0.000000000  0.245701670
     0.750000000  0.000000000  0.329012537
     0.097946921  0.875000000  0.287357103
     0.902053079  0.875000000  0.287357103
     0.000000000  0.000000000  0.352023118
     0.000000000  0.000000000  0.435333986
     0.847946921  0.875000000  0.393678552
     0.152053079  0.875000000  0.393678552
     0.750000000  0.000000000  0.458344566
     0.750000000  0.000000000  0.541655434
     0.097946921  0.875000000  0.500000000
     0.902053079  0.875000000  0.500000000
     0.999999951  0.000054037  0.565169607
     0.000000080  0.999995362  0.648691399
     0.850110927  0.875086884  0.606798104
     0.149889198  0.875086892  0.606798058
     0.750230055  0.000067390  0.671322253
     0.750134808  0.000059276  0.754970153
     0.093818801  0.874993386  0.718468330
     0.906181544  0.874993389  0.718468475
     0.750000000  0.250000000  0.245701670
     0.750000000  0.250000000  0.329012537
     0.097946921  0.125000000  0.287357103
     0.902053079  0.125000000  0.287357103
     0.000000000  0.250000000  0.352023118
     0.000000000  0.250000000  0.435333986
     0.847946921  0.125000000  0.393678552
     0.152053079  0.125000000  0.393678552
     0.750000000  0.250000000  0.458344566
     0.750000000  0.250000000  0.541655434
     0.097946921  0.125000000  0.500000000
     0.902053079  0.125000000  0.500000000
     0.999999950  0.249976145  0.565170934
     0.000000091  0.250098050  0.648702375
     0.850112021  0.124989995  0.606840935
     0.149888105  0.124989982  0.606840895
     0.750510715  0.249918016  0.671309089
     0.749946389  0.250188237  0.754942462
     0.093781939  0.125093297  0.718430450
     0.906218425  0.125093312  0.718430601
     0.750000000  0.500000000  0.245701670
     0.750000000  0.500000000  0.329012537
     0.097946921  0.375000000  0.287357103
     0.902053079  0.375000000  0.287357103
     0.000000000  0.500000000  0.352023118
     0.000000000  0.500000000  0.435333986
     0.847946921  0.375000000  0.393678552
     0.152053079  0.375000000  0.393678552
     0.750000000  0.500000000  0.458344566
     0.750000000  0.500000000  0.541655434
     0.097946921  0.375000000  0.500000000
     0.902053079  0.375000000  0.500000000
     0.999999950  0.500010825  0.565157777
     0.000000072  0.500038416  0.648669764
     0.850118165  0.374974786  0.606781708
     0.149881951  0.374974781  0.606781662
     0.750857108  0.500008089  0.671249541
     0.748446692  0.500420362  0.754858891
     0.093809050  0.375194223  0.718552555
     0.906191316  0.375194187  0.718552696
     0.250000000  0.750000000  0.245701670
     0.250000000  0.750000000  0.329012537
     0.597946921  0.625000000  0.287357103
     0.402053079  0.625000000  0.287357103
     0.500000000  0.750000000  0.352023118
     0.500000000  0.750000000  0.435333986
     0.347946921  0.625000000  0.393678552
     0.652053079  0.625000000  0.393678552
     0.250000000  0.750000000  0.458344566
     0.250000000  0.750000000  0.541655434
     0.597946921  0.625000000  0.500000000
     0.402053079  0.625000000  0.500000000
     0.499999946  0.749476100  0.565173504
     0.500000111  0.750644625  0.648455438
     0.349917062  0.625005900  0.606993641
     0.650083062  0.625005909  0.606993613
     0.249352456  0.750277353  0.671233617
     0.250676142  0.749811828  0.754894766
     0.594148212  0.626060528  0.717505923
     0.405852069  0.626060536  0.717505971
     0.250000000  0.000000000  0.245701670
     0.250000000  0.000000000  0.329012537
     0.597946921  0.875000000  0.287357103
     0.402053079  0.875000000  0.287357103
     0.500000000  0.000000000  0.352023118
     0.500000000  0.000000000  0.435333986
     0.347946921  0.875000000  0.393678552
     0.652053079  0.875000000  0.393678552
     0.250000000  0.000000000  0.458344566
     0.250000000  0.000000000  0.541655434
     0.597946921  0.875000000  0.500000000
     0.402053079  0.875000000  0.500000000
     0.499999949  0.000012769  0.565002761
     0.500000072  0.000126883  0.648398873
     0.349939307  0.875033367  0.606787757
     0.650060826  0.875033391  0.606787735
     0.249770220  0.000067381  0.671322227
     0.249865090  0.000059291  0.754970127
     0.594026544  0.875614954  0.718018854
     0.405973820  0.875614965  0.718018986
     0.250000000  0.250000000  0.245701670
     0.250000000  0.250000000  0.329012537
     0.597946921  0.125000000  0.287357103
     0.402053079  0.125000000  0.287357103
     0.500000000  0.250000000  0.352023118
     0.500000000  0.250000000  0.435333986
     0.347946921  0.125000000  0.393678552
     0.652053079  0.125000000  0.393678552
     0.250000000  0.250000000  0.458344566
     0.250000000  0.250000000  0.541655434
     0.597946921  0.125000000  0.500000000
     0.402053079  0.125000000  0.500000000
     0.499999949  0.250506932  0.565145299
     0.500000098  0.249437000  0.648441566
     0.349931440  0.125028481  0.606794647
     0.650068697  0.125028471  0.606794625
     0.249489508  0.249917989  0.671309068
     0.250053477  0.250188252  0.754942436
     0.593967073  0.124877007  0.718241944
     0.406033346  0.124877014  0.718242088
     0.250000000  0.500000000  0.245701670
     0.250000000  0.500000000  0.329012537
     0.597946921  0.375000000  0.287357103
     0.402053079  0.375000000  0.287357103
     0.500000000  0.500000000  0.352023118
     0.500000000  0.500000000  0.435333986
     0.347946921  0.375000000  0.393678552
     0.652053079  0.375000000  0.393678552
     0.250000000  0.500000000  0.458344566
     0.250000000  0.500000000  0.541655434
     0.597946921  0.375000000  0.500000000
     0.402053079  0.375000000  0.500000000
     0.499999940  0.500060298  0.565317171
     0.500000094  0.499889068  0.649113940
     0.349917230  0.375036223  0.606982197
     0.650082899  0.375036208  0.606982167
     0.249143077  0.500008073  0.671249516
     0.251553231  0.500420401  0.754858882
     0.594242616  0.373941982  0.717519043
     0.405757651  0.373941906  0.717519144

  ion indices of the primitive-cell ions
   primitive index   ion index
                 1           1
                 2           2
                 3           3
                 4           4
                 5           5
                 6           6
                 7           7
                 8           8
                 9           9
                10          10
                11          11
                12          12
                13          13
                14          14
                15          15
                16          16
                17          17
                18          18
                19          19
                20          20
                21          21
                22          22
                23          23
                24          24
                25          25
                26          26
                27          27
                28          28
                29          29
                30          30
                31          31
                32          32
                33          33
                34          34
                35          35
                36          36
                37          37
                38          38
                39          39
                40          40
                41          41
                42          42
                43          43
                44          44
                45          45
                46          46
                47          47
                48          48
                49          49
                50          50
                51          51
                52          52
                53          53
                54          54
                55          55
                56          56
                57          57
                58          58
                59          59
                60          60
                61          61
                62          62
                63          63
                64          64
                65          65
                66          66
                67          67
                68          68
                69          69
                70          70
                71          71
                72          72
                73          73
                74          74
                75          75
                76          76
                77          77
                78          78
                79          79
                80          80
                81          81
                82          82
                83          83
                84          84
                85          85
                86          86
                87          87
                88          88
                89          89
                90          90
                91          91
                92          92
                93          93
                94          94
                95          95
                96          96
                97          97
                98          98
                99          99
               100         100
               101         101
               102         102
               103         103
               104         104
               105         105
               106         106
               107         107
               108         108
               109         109
               110         110
               111         111
               112         112
               113         113
               114         114
               115         115
               116         116
               117         117
               118         118
               119         119
               120         120
               121         121
               122         122
               123         123
               124         124
               125         125
               126         126
               127         127
               128         128
               129         129
               130         130
               131         131
               132         132
               133         133
               134         134
               135         135
               136         136
               137         137
               138         138
               139         139
               140         140
               141         141
               142         142
               143         143
               144         144
               145         145
               146         146
               147         147
               148         148
               149         149
               150         150
               151         151
               152         152
               153         153
               154         154
               155         155
               156         156
               157         157
               158         158
               159         159
               160         160
               161         161
               162         162
               163         163
               164         164
               165         165
               166         166
               167         167
               168         168
               169         169
               170         170
               171         171
               172         172
               173         173
               174         174
               175         175
               176         176
               177         177
               178         178
               179         179
               180         180
               181         181
               182         182
               183         183
               184         184
               185         185
               186         186
               187         187
               188         188
               189         189
               190         190
               191         191
               192         192
               193         193
               194         194
               195         195
               196         196
               197         197
               198         198
               199         199
               200         200
               201         201
               202         202
               203         203
               204         204
               205         205
               206         206
               207         207
               208         208
               209         209
               210         210
               211         211
               212         212
               213         213
               214         214
               215         215
               216         216
               217         217
               218         218
               219         219
               220         220
               221         221
               222         222
               223         223
               224         224
               225         225
               226         226
               227         227
               228         228
               229         229
               230         230
               231         231
               232         232
               233         233
               234         234
               235         235
               236         236
               237         237
               238         238
               239         239
               240         240
               241         241
               242         242
               243         243

----------------------------------------------------------------------------------------

 
 
 KPOINTS: pymatgen v2020.8.13 with grid density = 

Automatic generation of k-mesh.
 Grid dimensions read from file:
 generate k-points for:    2    2    1

 Generating k-lattice:

  Cartesian coordinates                     Fractional coordinates (reciprocal lattice)
     0.038515538  0.000000000  0.000000000     0.500000000  0.000000000  0.000000000
     0.000000000  0.042265669  0.000000000     0.000000000  0.500000000  0.000000000
     0.000000000  0.000000000  0.032760223     0.000000000  0.000000000  1.000000000

  Length of vectors
     0.038515538  0.042265669  0.032760223

  Shift w.r.t. Gamma in fractional coordinates (k-lattice)
     0.000000000  0.000000000  0.000000000

 
 Subroutine IBZKPT returns following result:
 ===========================================
 
 Found      4 irreducible k-points:
 
 Following reciprocal coordinates:
            Coordinates               Weight
  0.000000  0.000000  0.000000      1.000000
  0.500000  0.000000  0.000000      1.000000
  0.000000  0.500000  0.000000      1.000000
  0.500000  0.500000  0.000000      1.000000
 
 Following cartesian coordinates:
            Coordinates               Weight
  0.000000  0.000000  0.000000      1.000000
  0.038516  0.000000  0.000000      1.000000
  0.000000  0.042266  0.000000      1.000000
  0.038516  0.042266  0.000000      1.000000
 


--------------------------------------------------------------------------------------------------------




 Dimension of arrays:
   k-points           NKPTS =      4   k-points in BZ     NKDIM =      4   number of bands    NBANDS=   1088
   number of dos      NEDOS =    301   number of ions     NIONS =    243
   non local maximal  LDIM  =      6   non local SUM 2l+1 LMDIM =     18
   total plane-waves  NPLWV = ******
   max r-space proj   IRMAX =      1   max aug-charges    IRDMAX=  21664
   dimension x,y,z NGX =   108 NGY =   96 NGZ =  250
   dimension x,y,z NGXF=   216 NGYF=  192 NGZF=  500
   support grid    NGXF=   216 NGYF=  192 NGZF=  500
   ions per type =               1   2  80 160
   NGX,Y,Z   is equivalent  to a cutoff of  13.83, 13.49, 13.62 a.u.
   NGXF,Y,Z  is equivalent  to a cutoff of  27.66, 26.98, 27.23 a.u.

 SYSTEM =  TiO2                                    
 POSCAR =   C  O Ti  O                             

--------------------------------------------------------------------------------------------------------


  energy-cutoff  :      600.00
  volume of cell :     4687.80
      direct lattice vectors                 reciprocal lattice vectors
    12.981773603  0.000000000  0.000000000     0.077031077  0.000000000  0.000000000
     0.000000000 11.829932295  0.000000000     0.000000000  0.084531338  0.000000000
     0.000000000  0.000000000 30.524823105     0.000000000  0.000000000  0.032760223

  length of vectors
    12.981773603 11.829932295 30.524823105     0.077031077  0.084531338  0.032760223


 
 k-points in units of 2pi/SCALE and weight: pymatgen v2020.8.13 with grid density = 
   0.00000000  0.00000000  0.00000000       0.250
   0.03851554  0.00000000  0.00000000       0.250
   0.00000000  0.04226567  0.00000000       0.250
   0.03851554  0.04226567  0.00000000       0.250
 
 k-points in reciprocal lattice and weights: pymatgen v2020.8.13 with grid density = 
   0.00000000  0.00000000  0.00000000       0.250
   0.50000000  0.00000000  0.00000000       0.250
   0.00000000  0.50000000  0.00000000       0.250
   0.50000000  0.50000000  0.00000000       0.250
 
 position of ions in fractional coordinates (direct lattice) 
   0.49999997  0.60933000  0.79860568
   0.49999989  0.70629158  0.80503609
   0.50000000  0.51202507  0.79104154
   0.75000000  0.62500000  0.28735710
   0.00000000  0.75000000  0.28735710
   0.00000000  0.62500000  0.39367855
   0.75000000  0.75000000  0.39367855
   0.75000000  0.62500000  0.50000000
   0.00000000  0.75000000  0.50000000
   0.99999990  0.62503326  0.60414302
   0.75003820  0.75005928  0.61006323
   0.75021134  0.62524384  0.71933825
   0.00000009  0.75016747  0.70804910
   0.75000000  0.87500000  0.28735710
   0.00000000  0.00000000  0.28735710
   0.00000000  0.87500000  0.39367855
   0.75000000  0.00000000  0.39367855
   0.75000000  0.87500000  0.50000000
   0.00000000  0.00000000  0.50000000
   0.99999990  0.87504240  0.60415548
   0.74998958  0.00003052  0.61016911
   0.74989623  0.87514341  0.71972187
   0.00000014  0.00004512  0.70806765
   0.75000000  0.12500000  0.28735710
   0.00000000  0.25000000  0.28735710
   0.00000000  0.12500000  0.39367855
   0.75000000  0.25000000  0.39367855
   0.75000000  0.12500000  0.50000000
   0.00000000  0.25000000  0.50000000
   0.99999990  0.12500893  0.60417792
   0.75002608  0.24999208  0.61016649
   0.74993802  0.12508240  0.71970942
   0.00000015  0.24998096  0.70807381
   0.75000000  0.37500000  0.28735710
   0.00000000  0.50000000  0.28735710
   0.00000000  0.37500000  0.39367855
   0.75000000  0.50000000  0.39367855
   0.75000000  0.37500000  0.50000000
   0.00000000  0.50000000  0.50000000
   0.99999990  0.37500282  0.60414548
   0.75007284  0.49999453  0.61009626
   0.75018031  0.37508533  0.71966422
   0.00000006  0.50007497  0.70803916
   0.25000000  0.62500000  0.28735710
   0.50000000  0.75000000  0.28735710
   0.50000000  0.62500000  0.39367855
   0.25000000  0.75000000  0.39367855
   0.25000000  0.62500000  0.50000000
   0.50000000  0.75000000  0.50000000
   0.49999989  0.62451854  0.60464616
   0.24996154  0.75005928  0.61006322
   0.24978870  0.62524387  0.71933821
   0.50000011  0.75085319  0.70784422
   0.25000000  0.87500000  0.28735710
   0.50000000  0.00000000  0.28735710
   0.50000000  0.87500000  0.39367855
   0.25000000  0.00000000  0.39367855
   0.25000000  0.87500000  0.50000000
   0.50000000  0.00000000  0.50000000
   0.49999988  0.87473529  0.60389302
   0.25001018  0.00003052  0.61016909
   0.25010398  0.87514343  0.71972185
   0.50000013  0.00012486  0.70774193
   0.25000000  0.12500000  0.28735710
   0.50000000  0.25000000  0.28735710
   0.50000000  0.12500000  0.39367855
   0.25000000  0.25000000  0.39367855
   0.25000000  0.12500000  0.50000000
   0.50000000  0.25000000  0.50000000
   0.49999988  0.12523326  0.60388197
   0.24997367  0.24999207  0.61016649
   0.25006224  0.12508246  0.71970941
   0.50000017  0.24955876  0.70778017
   0.25000000  0.37500000  0.28735710
   0.50000000  0.50000000  0.28735710
   0.50000000  0.37500000  0.39367855
   0.25000000  0.50000000  0.39367855
   0.25000000  0.37500000  0.50000000
   0.50000000  0.50000000  0.50000000
   0.49999989  0.37555520  0.60453564
   0.24992692  0.49999453  0.61009622
   0.24981986  0.37508541  0.71966420
   0.50000004  0.49880443  0.70916664
   0.75000000  0.75000000  0.24570167
   0.75000000  0.75000000  0.32901254
   0.09794692  0.62500000  0.28735710
   0.90205308  0.62500000  0.28735710
   0.00000000  0.75000000  0.35202312
   0.00000000  0.75000000  0.43533399
   0.84794692  0.62500000  0.39367855
   0.15205308  0.62500000  0.39367855
   0.75000000  0.75000000  0.45834457
   0.75000000  0.75000000  0.54165543
   0.09794692  0.62500000  0.50000000
   0.90205308  0.62500000  0.50000000
   0.99999995  0.75004799  0.56515902
   0.00000008  0.75001192  0.64867476
   0.85012063  0.62505641  0.60676273
   0.14987948  0.62505641  0.60676268
   0.75064772  0.75027734  0.67123364
   0.74932378  0.74981182  0.75489480
   0.09379467  0.62503884  0.71851995
   0.90620569  0.62503885  0.71852009
   0.75000000  0.00000000  0.24570167
   0.75000000  0.00000000  0.32901254
   0.09794692  0.87500000  0.28735710
   0.90205308  0.87500000  0.28735710
   0.00000000  0.00000000  0.35202312
   0.00000000  0.00000000  0.43533399
   0.84794692  0.87500000  0.39367855
   0.15205308  0.87500000  0.39367855
   0.75000000  0.00000000  0.45834457
   0.75000000  0.00000000  0.54165543
   0.09794692  0.87500000  0.50000000
   0.90205308  0.87500000  0.50000000
   0.99999995  0.00005404  0.56516961
   0.00000008  0.99999536  0.64869140
   0.85011093  0.87508688  0.60679810
   0.14988920  0.87508689  0.60679806
   0.75023005  0.00006739  0.67132225
   0.75013481  0.00005928  0.75497015
   0.09381880  0.87499339  0.71846833
   0.90618154  0.87499339  0.71846848
   0.75000000  0.25000000  0.24570167
   0.75000000  0.25000000  0.32901254
   0.09794692  0.12500000  0.28735710
   0.90205308  0.12500000  0.28735710
   0.00000000  0.25000000  0.35202312
   0.00000000  0.25000000  0.43533399
   0.84794692  0.12500000  0.39367855
   0.15205308  0.12500000  0.39367855
   0.75000000  0.25000000  0.45834457
   0.75000000  0.25000000  0.54165543
   0.09794692  0.12500000  0.50000000
   0.90205308  0.12500000  0.50000000
   0.99999995  0.24997614  0.56517093
   0.00000009  0.25009805  0.64870237
   0.85011202  0.12498999  0.60684094
   0.14988810  0.12498998  0.60684090
   0.75051072  0.24991802  0.67130909
   0.74994639  0.25018824  0.75494246
   0.09378194  0.12509330  0.71843045
   0.90621843  0.12509331  0.71843060
   0.75000000  0.50000000  0.24570167
   0.75000000  0.50000000  0.32901254
   0.09794692  0.37500000  0.28735710
   0.90205308  0.37500000  0.28735710
   0.00000000  0.50000000  0.35202312
   0.00000000  0.50000000  0.43533399
   0.84794692  0.37500000  0.39367855
   0.15205308  0.37500000  0.39367855
   0.75000000  0.50000000  0.45834457
   0.75000000  0.50000000  0.54165543
   0.09794692  0.37500000  0.50000000
   0.90205308  0.37500000  0.50000000
   0.99999995  0.50001083  0.56515778
   0.00000007  0.50003842  0.64866976
   0.85011817  0.37497479  0.60678171
   0.14988195  0.37497478  0.60678166
   0.75085711  0.50000809  0.67124954
   0.74844669  0.50042036  0.75485889
   0.09380905  0.37519422  0.71855256
   0.90619132  0.37519419  0.71855270
   0.25000000  0.75000000  0.24570167
   0.25000000  0.75000000  0.32901254
   0.59794692  0.62500000  0.28735710
   0.40205308  0.62500000  0.28735710
   0.50000000  0.75000000  0.35202312
   0.50000000  0.75000000  0.43533399
   0.34794692  0.62500000  0.39367855
   0.65205308  0.62500000  0.39367855
   0.25000000  0.75000000  0.45834457
   0.25000000  0.75000000  0.54165543
   0.59794692  0.62500000  0.50000000
   0.40205308  0.62500000  0.50000000
   0.49999995  0.74947610  0.56517350
   0.50000011  0.75064463  0.64845544
   0.34991706  0.62500590  0.60699364
   0.65008306  0.62500591  0.60699361
   0.24935246  0.75027735  0.67123362
   0.25067614  0.74981183  0.75489477
   0.59414821  0.62606053  0.71750592
   0.40585207  0.62606054  0.71750597
   0.25000000  0.00000000  0.24570167
   0.25000000  0.00000000  0.32901254
   0.59794692  0.87500000  0.28735710
   0.40205308  0.87500000  0.28735710
   0.50000000  0.00000000  0.35202312
   0.50000000  0.00000000  0.43533399
   0.34794692  0.87500000  0.39367855
   0.65205308  0.87500000  0.39367855
   0.25000000  0.00000000  0.45834457
   0.25000000  0.00000000  0.54165543
   0.59794692  0.87500000  0.50000000
   0.40205308  0.87500000  0.50000000
   0.49999995  0.00001277  0.56500276
   0.50000007  0.00012688  0.64839887
   0.34993931  0.87503337  0.60678776
   0.65006083  0.87503339  0.60678773
   0.24977022  0.00006738  0.67132223
   0.24986509  0.00005929  0.75497013
   0.59402654  0.87561495  0.71801885
   0.40597382  0.87561496  0.71801899
   0.25000000  0.25000000  0.24570167
   0.25000000  0.25000000  0.32901254
   0.59794692  0.12500000  0.28735710
   0.40205308  0.12500000  0.28735710
   0.50000000  0.25000000  0.35202312
   0.50000000  0.25000000  0.43533399
   0.34794692  0.12500000  0.39367855
   0.65205308  0.12500000  0.39367855
   0.25000000  0.25000000  0.45834457
   0.25000000  0.25000000  0.54165543
   0.59794692  0.12500000  0.50000000
   0.40205308  0.12500000  0.50000000
   0.49999995  0.25050693  0.56514530
   0.50000010  0.24943700  0.64844157
   0.34993144  0.12502848  0.60679465
   0.65006870  0.12502847  0.60679463
   0.24948951  0.24991799  0.67130907
   0.25005348  0.25018825  0.75494244
   0.59396707  0.12487701  0.71824194
   0.40603335  0.12487701  0.71824209
   0.25000000  0.50000000  0.24570167
   0.25000000  0.50000000  0.32901254
   0.59794692  0.37500000  0.28735710
   0.40205308  0.37500000  0.28735710
   0.50000000  0.50000000  0.35202312
   0.50000000  0.50000000  0.43533399
   0.34794692  0.37500000  0.39367855
   0.65205308  0.37500000  0.39367855
   0.25000000  0.50000000  0.45834457
   0.25000000  0.50000000  0.54165543
   0.59794692  0.37500000  0.50000000
   0.40205308  0.37500000  0.50000000
   0.49999994  0.50006030  0.56531717
   0.50000009  0.49988907  0.64911394
   0.34991723  0.37503622  0.60698220
   0.65008290  0.37503621  0.60698217
   0.24914308  0.50000807  0.67124952
   0.25155323  0.50042040  0.75485888
   0.59424262  0.37394198  0.71751904
   0.40575765  0.37394191  0.71751914
 
 position of ions in cartesian coordinates  (Angst):
   6.49088639  7.20833269 24.37729722
   6.49088542  8.35538154 24.57358417
   6.49088684  6.05722188 24.14640320
   9.73633020  7.39370768  8.77152475
   0.00000000  8.87244922  8.77152475
   0.00000000  7.39370768 12.01696815
   9.73633020  8.87244922 12.01696815
   9.73633020  7.39370768 15.26241155
   0.00000000  8.87244922 15.26241155
  12.98177224  7.39410115 18.44135882
   9.73682609  8.87315048 18.62207229
   9.73907379  7.39659235 21.95767287
   0.00000119  8.87443042 21.61307366
   9.73633020 10.35119076  8.77152475
   0.00000000  0.00000000  8.77152475
   0.00000000 10.35119076 12.01696815
   9.73633020  0.00000000 12.01696815
   9.73633020 10.35119076 15.26241155
   0.00000000  0.00000000 15.26241155
  12.98177230 10.35169231 18.44173922
   9.73619500  0.00036102 18.62530403
   9.73498311 10.35288733 21.96938264
   0.00000175  0.00053381 21.61363975
   9.73633020  1.47874154  8.77152475
   0.00000000  2.95748307  8.77152475
   0.00000000  1.47874154 12.01696815
   9.73633020  2.95748307 12.01696815
   9.73633020  1.47874154 15.26241155
   0.00000000  2.95748307 15.26241155
  12.98177236  1.47884718 18.44242419
   9.73666877  2.95738940 18.62522425
   9.73552565  1.47971637 21.96900270
   0.00000191  2.95725781 21.61382784
   9.73633020  4.43622461  8.77152475
   0.00000000  5.91496615  8.77152475
   0.00000000  4.43622461 12.01696815
   9.73633020  5.91496615 12.01696815
   9.73633020  4.43622461 15.26241155
   0.00000000  5.91496615 15.26241155
  12.98177227  4.43625796 18.44143388
   9.73727579  5.91490149 18.62308053
   9.73867097  4.43723409 21.96762299
   0.00000083  5.91585304 21.61277000
   3.24544340  7.39370768  8.77152475
   6.49088680  8.87244922  8.77152475
   6.49088680  7.39370768 12.01696815
   3.24544340  8.87244922 12.01696815
   3.24544340  7.39370768 15.26241155
   6.49088680  8.87244922 15.26241155
   6.49088541  7.38801201 18.45671707
   3.24494415  8.87315050 18.62207182
   3.24270036  7.39659261 21.95767152
   6.49088825  8.88254241 21.60681975
   3.24544340 10.35119076  8.77152475
   6.49088680  0.00000000  8.77152475
   6.49088680 10.35119076 12.01696815
   3.24544340  0.00000000 12.01696815
   3.24544340 10.35119076 15.26241155
   6.49088680  0.00000000 15.26241155
   6.49088527 10.34805927 18.43372768
   3.24557560  0.00036100 18.62530360
   3.24679319 10.35288748 21.96938228
   6.49088845  0.00147703 21.60369727
   3.24544340  1.47874154  8.77152475
   6.49088680  2.95748307  8.77152475
   6.49088680  1.47874154 12.01696815
   3.24544340  2.95748307 12.01696815
   3.24544340  1.47874154 15.26241155
   6.49088680  2.95748307 15.26241155
   6.49088527  1.48150098 18.43339021
   3.24510153  2.95738929 18.62522427
   3.24625138  1.47971706 21.96900233
   6.49088896  2.95226321 21.60486460
   3.24544340  4.43622461  8.77152475
   6.49088680  5.91496615  8.77152475
   6.49088680  4.43622461 12.01696815
   3.24544340  5.91496615 12.01696815
   3.24544340  4.43622461 15.26241155
   6.49088680  5.91496615 15.26241155
   6.49088539  4.44279262 18.45334360
   3.24449463  5.91490139 18.62307927
   3.24310481  4.43723502 21.96762240
   6.49088727  5.90082268 21.64718618
   9.73633020  8.87244922  7.50000000
   9.73633020  8.87244922 10.04304950
   1.27152475  7.39370768  8.77152475
  11.71024885  7.39370768  8.77152475
   0.00000000  8.87244922 10.74544340
   0.00000000  8.87244922 13.28849290
  11.00785495  7.39370768 12.01696815
   1.97391865  7.39370768 12.01696815
   9.73633020  8.87244922 13.99088680
   9.73633020  8.87244922 16.53393630
   1.27152475  7.39370768 15.26241155
  11.71024885  7.39370768 15.26241155
  12.98177296  8.87301693 17.25137915
   0.00000108  8.87259024 19.80068223
  11.03607357  7.39437500 18.52132513
   1.94570152  7.39437495 18.52132359
   9.74473882  8.87573017 20.48928823
   9.72755164  8.87022308 23.04303030
   1.21762119  7.39416712 21.93269429
  11.76415708  7.39416728 21.93269851
   9.73633020  0.00000000  7.50000000
   9.73633020  0.00000000 10.04304950
   1.27152475 10.35119076  8.77152475
  11.71024885 10.35119076  8.77152475
   0.00000000  0.00000000 10.74544340
   0.00000000  0.00000000 13.28849290
  11.00785495 10.35119076 12.01696815
   1.97391865 10.35119076 12.01696815
   9.73633020  0.00000000 13.99088680
   9.73633020  0.00000000 16.53393630
   1.27152475 10.35119076 15.26241155
  11.71024885 10.35119076 15.26241155
  12.98177296  0.00063925 17.25170227
   0.00000103 11.82987743 19.80119022
  11.03594759 10.35221859 18.52240480
   1.94582764 10.35221869 18.52240338
   9.73931672  0.00079722 20.49199300
   9.73808025  0.00070123 23.04533036
   1.21793444 10.35111251 21.93111868
  11.76384364 10.35111255 21.93112311
   9.73633020  2.95748307  7.50000000
   9.73633020  2.95748307 10.04304950
   1.27152475  1.47874154  8.77152475
  11.71024885  1.47874154  8.77152475
   0.00000000  2.95748307 10.74544340
   0.00000000  2.95748307 13.28849290
  11.00785495  1.47874154 12.01696815
   1.97391865  1.47874154 12.01696815
   9.73633020  2.95748307 13.99088680
   9.73633020  2.95748307 16.53393630
   1.27152475  1.47874154 15.26241155
  11.71024885  1.47874154 15.26241155
  12.98177296  2.95720087 17.25174279
   0.00000118  2.95864300 19.80152523
  11.03596180  1.47862318 18.52371220
   1.94581344  1.47862303 18.52371098
   9.74296019  2.95651321 20.49159121
   9.73563424  2.95970991 23.04448510
   1.21745590  1.47984524 21.92996239
  11.76432243  1.47984541 21.92996702
   9.73633020  5.91496615  7.50000000
   9.73633020  5.91496615 10.04304950
   1.27152475  4.43622461  8.77152475
  11.71024885  4.43622461  8.77152475
   0.00000000  5.91496615 10.74544340
   0.00000000  5.91496615 13.28849290
  11.00785495  4.43622461 12.01696815
   1.97391865  4.43622461 12.01696815
   9.73633020  5.91496615 13.99088680
   9.73633020  5.91496615 16.53393630
   1.27152475  4.43622461 15.26241155
  11.71024885  4.43622461 15.26241155
  12.98177295  5.91509421 17.25134118
   0.00000094  5.91542060 19.80052979
  11.03604156  4.43592633 18.52190430
   1.94573355  4.43592628 18.52190290
   9.74745698  5.91506184 20.48977350
   9.71616551  5.91993900 23.04193410
   1.21780785  4.43852226 21.93368965
  11.76397051  4.43852182 21.93369393
   3.24544340  8.87244922  7.50000000
   3.24544340  8.87244922 10.04304950
   7.76241155  7.39370768  8.77152475
   5.21936205  7.39370768  8.77152475
   6.49088680  8.87244922 10.74544340
   6.49088680  8.87244922 13.28849290
   4.51696815  7.39370768 12.01696815
   8.46480545  7.39370768 12.01696815
   3.24544340  8.87244922 13.99088680
   3.24544340  8.87244922 16.53393630
   7.76241155  7.39370768 15.26241155
   5.21936205  7.39370768 15.26241155
   6.49088610  8.86625152 17.25182124
   6.49088825  8.88007509 19.79398753
   4.54254408  7.39377748 18.52837353
   8.43923113  7.39377758 18.52837268
   3.23703713  8.87573029 20.48928742
   3.25422093  8.87022316 23.04302919
   7.71309757  7.40625366 21.90174137
   5.26867968  7.40625375 21.90174285
   3.24544340  0.00000000  7.50000000
   3.24544340  0.00000000 10.04304950
   7.76241155 10.35119076  8.77152475
   5.21936205 10.35119076  8.77152475
   6.49088680  0.00000000 10.74544340
   6.49088680  0.00000000 13.28849290
   4.51696815 10.35119076 12.01696815
   8.46480545 10.35119076 12.01696815
   3.24544340  0.00000000 13.99088680
   3.24544340  0.00000000 16.53393630
   7.76241155 10.35119076 15.26241155
   5.21936205 10.35119076 15.26241155
   6.49088614  0.00015105 17.24660933
   6.49088774  0.00150101 19.79226090
   4.54283286 10.35158548 18.52208895
   8.43894247 10.35158577 18.52208827
   3.24246045  0.00079711 20.49199221
   3.24369203  0.00070141 23.04532957
[...]
      9.73729      5.91491     18.62306         0.000781      0.000090     -0.000485
      9.73869      4.43723     21.96758        -0.000223      0.000176     -0.000575
      0.00000      5.91593     21.61279         0.000000     -0.000725     -0.000810
      3.24544      7.39371      8.77152         0.000396      0.000025     -3.754875
      6.49089      8.87245      8.77152        -0.000001      0.000302      2.943414
      6.49089      7.39371     12.01697        -0.000029      0.003340      0.546451
      3.24544      8.87245     12.01697         0.001504      0.000629     -0.755030
      3.24544      7.39371     15.26241         0.009514     -0.002872      0.650879
      6.49089      8.87245     15.26241        -0.000011     -0.013437     -0.697985
      6.49089      7.38798     18.45674         0.000001      0.000696     -0.000713
      3.24496      8.87316     18.62203        -0.000462      0.000561     -0.000673
      3.24271      7.39661     21.95760         0.000202     -0.000004     -0.000373
      6.49089      8.88248     21.60684         0.000001      0.000916      0.000542
      3.24544     10.35119      8.77152         0.000482      0.000464     -3.754921
      6.49089      0.00000      8.77152        -0.000001      0.000129      2.943587
      6.49089     10.35119     12.01697        -0.000029      0.002440      0.548713
      3.24544      0.00000     12.01697         0.001823      0.000464     -0.753241
      3.24544     10.35119     15.26241         0.005522      0.015263      0.658912
      6.49089      0.00000     15.26241        -0.000012      0.003207     -0.759839
      6.49089     10.34807     18.43373         0.000001     -0.000095      0.000326
      3.24565      0.00038     18.62525        -0.000266      0.000212     -0.000402
      3.24675     10.35290     21.96935        -0.000264      0.000219     -0.000165
      6.49089      0.00148     21.60364        -0.000003     -0.000612     -0.001527
      3.24544      1.47874      8.77152         0.000502     -0.000065     -3.754791
      6.49089      2.95748      8.77152        -0.000001     -0.000342      2.943407
      6.49089      1.47874     12.01697        -0.000029     -0.001364      0.549298
      3.24544      2.95748     12.01697         0.001589     -0.000664     -0.752839
      3.24544      1.47874     15.26241         0.005689     -0.000592      0.668909
      6.49089      2.95748     15.26241        -0.000012      0.010384     -0.703420
      6.49089      1.48154     18.43328        -0.000000     -0.000765     -0.000351
      3.24513      2.95741     18.62515        -0.000670     -0.000257     -0.000631
      3.24618      1.47973     21.96895        -0.000476      0.000186     -0.000725
      6.49089      2.95218     21.60472         0.000007      0.000710      0.000433
      3.24544      4.43622      8.77152         0.000407     -0.000456     -3.754834
      6.49089      5.91497      8.77152        -0.000001     -0.000139      2.943489
      6.49089      4.43622     12.01697        -0.000029     -0.004446      0.546867
      3.24544      5.91497     12.01697         0.001271     -0.000467     -0.754491
      3.24544      4.43622     15.26241         0.009021     -0.011938      0.660622
      6.49089      5.91497     15.26241        -0.000011     -0.000219     -0.696067
      6.49089      4.44281     18.45334         0.000000      0.000346     -0.000480
      3.24448      5.91491     18.62306        -0.000783      0.000091     -0.000490
      3.24308      4.43723     21.96758         0.000225      0.000165     -0.000569
      6.49089      5.90086     21.64715        -0.000001     -0.002306     -0.000038
      9.73633      8.87245      7.50000         0.000070     -0.000169      2.154132
      9.73633      8.87245     10.04305         0.000225     -0.000172      1.807036
      1.27152      7.39371      8.77152        -1.963304     -0.000020     -0.789012
     11.71025      7.39371      8.77152         1.963342     -0.000020     -0.789012
      0.00000      8.87245     10.74544         0.000002     -0.000099     -1.401244
      0.00000      8.87245     13.28849        -0.000002     -0.000150     -0.132729
     11.00785      7.39371     12.01697         0.449715      0.000029      0.057366
      1.97392      7.39371     12.01697        -0.449669      0.000029      0.057366
      9.73633      8.87245     13.99089         0.001156     -0.002226     -0.078910
      9.73633      8.87245     16.53394         0.001605     -0.002986      0.041814
      1.27152      7.39371     15.26241        -0.463138      0.000516      0.092036
     11.71025      7.39371     15.26241         0.463193      0.000516      0.092034
     12.98177      8.87304     17.25134        -0.000000      0.000282     -0.000231
      0.00000      8.87259     19.80065        -0.000000     -0.000195      0.000243
     11.03608      7.39441     18.52127        -0.000086      0.000492     -0.000973
      1.94570      7.39441     18.52127         0.000088      0.000491     -0.000971
      9.74475      8.87572     20.48926         0.000091     -0.000131     -0.000445
      9.72756      8.87018     23.04300         0.000181     -0.000374     -0.000882
      1.21762      7.39419     21.93268         0.000037      0.000341     -0.000253
     11.76416      7.39419     21.93268        -0.000036      0.000341     -0.000248
      9.73633      0.00000      7.50000         0.000084     -0.000123      2.154305
      9.73633      0.00000     10.04305         0.000263     -0.000131      1.806517
      1.27152     10.35119      8.77152        -1.963352     -0.000090     -0.788968
     11.71025     10.35119      8.77152         1.963390     -0.000090     -0.788968
      0.00000      0.00000     10.74544         0.000002     -0.000114     -1.401263
      0.00000      0.00000     13.28849        -0.000002     -0.000189     -0.132850
     11.00785     10.35119     12.01697         0.449785     -0.000446      0.057320
      1.97392     10.35119     12.01697        -0.449739     -0.000446      0.057320
      9.73633      0.00000     13.99089         0.000874     -0.002916     -0.082234
      9.73633      0.00000     16.53394         0.003207     -0.000748      0.032514
      1.27152     10.35119     15.26241        -0.464609     -0.001012      0.091401
     11.71025     10.35119     15.26241         0.464664     -0.001012      0.091398
     12.98177      0.00065     17.25163        -0.000000     -0.000012     -0.000241
      0.00000     11.82988     19.80115         0.000000      0.000162      0.000550
     11.03595     10.35222     18.52239        -0.000195     -0.000005     -0.000139
      1.94582     10.35222     18.52239         0.000196     -0.000006     -0.000139
      9.73935      0.00080     20.49199         0.000566     -0.000038     -0.000060
      9.73809      0.00072     23.04529         0.000282      0.000132     -0.000730
      1.21790     10.35114     21.93111        -0.000228      0.000198      0.000095
     11.76388     10.35114     21.93112         0.000230      0.000198      0.000095
      9.73633      2.95748      7.50000         0.000076      0.000158      2.154221
      9.73633      2.95748     10.04305         0.000232      0.000160      1.806479
      1.27152      1.47874      8.77152        -1.963390      0.000010     -0.788964
     11.71025      1.47874      8.77152         1.963427      0.000010     -0.788963
      0.00000      2.95748     10.74544         0.000002      0.000098     -1.401253
      0.00000      2.95748     13.28849        -0.000002      0.000247     -0.132662
     11.00785      1.47874     12.01697         0.449863     -0.000003      0.057212
      1.97392      1.47874     12.01697        -0.449817     -0.000003      0.057212
      9.73633      2.95748     13.99089         0.001088      0.002528     -0.082817
      9.73633      2.95748     16.53394         0.002045      0.004239      0.037995
      1.27152      1.47874     15.26241        -0.466859      0.000405      0.090294
     11.71025      1.47874     15.26241         0.466913      0.000405      0.090292
     12.98177      2.95721     17.25170        -0.000000      0.000159     -0.000349
      0.00000      2.95867     19.80147         0.000000      0.000453      0.000655
     11.03599      1.47863     18.52371        -0.000221      0.000165     -0.000077
      1.94579      1.47863     18.52371         0.000222      0.000165     -0.000078
      9.74300      2.95652     20.49154         0.000731      0.000117     -0.000962
      9.73563      2.95974     23.04443         0.000068      0.000211     -0.000871
      1.21743      1.47985     21.92998        -0.000261      0.000283      0.000580
     11.76435      1.47985     21.92998         0.000263      0.000284      0.000581
      9.73633      5.91497      7.50000         0.000076      0.000099      2.154045
      9.73633      5.91497     10.04305         0.000213      0.000119      1.806943
      1.27152      4.43622      8.77152        -1.963337      0.000079     -0.788996
     11.71025      4.43622      8.77152         1.963374      0.000079     -0.788996
      0.00000      5.91497     10.74544         0.000002      0.000099     -1.401235
      0.00000      5.91497     13.28849        -0.000002      0.000298     -0.132692
     11.00785      4.43622     12.01697         0.449799      0.000405      0.057255
      1.97392      4.43622     12.01697        -0.449753      0.000405      0.057255
      9.73633      5.91497     13.99089         0.001726      0.002849     -0.079743
      9.73633      5.91497     16.53394        -0.000448      0.002769      0.045421
      1.27152      4.43622     15.26241        -0.465614      0.001270      0.091658
     11.71025      4.43622     15.26241         0.465669      0.001270      0.091656
     12.98177      5.91509     17.25133        -0.000000      0.000300     -0.000249
      0.00000      5.91543     19.80050         0.000000      0.000569      0.000556
     11.03607      4.43591     18.52186        -0.000161     -0.000018     -0.000904
      1.94571      4.43591     18.52186         0.000163     -0.000017     -0.000903
      9.74750      5.91507     20.48973         0.000915      0.000201     -0.000993
      9.71619      5.91996     23.04189         0.000441      0.000549     -0.001156
      1.21781      4.43852     21.93366        -0.000312      0.000256     -0.000502
     11.76397      4.43852     21.93366         0.000313      0.000254     -0.000503
      3.24544      8.87245      7.50000        -0.000091     -0.000170      2.154132
      3.24544      8.87245     10.04305        -0.000217     -0.000172      1.807036
      7.76241      7.39371      8.77152        -1.962878     -0.000102     -0.789140
      5.21936      7.39371      8.77152         1.962915     -0.000102     -0.789140
      6.49089      8.87245     10.74544         0.000002     -0.000878     -1.403782
      6.49089      8.87245     13.28849        -0.000002     -0.001944     -0.141675
      4.51697      7.39371     12.01697         0.447754     -0.000153      0.057115
      8.46481      7.39371     12.01697        -0.447708     -0.000153      0.057115
      3.24544      8.87245     13.99089        -0.001157     -0.002227     -0.078908
      3.24544      8.87245     16.53394        -0.001610     -0.002987      0.041814
      7.76241      7.39371     15.26241        -0.455408     -0.008944      0.085855
      5.21936      7.39371     15.26241         0.455459     -0.008944      0.085853
      6.49089      8.86633     17.25176         0.000001      0.000328      0.000173
      6.49089      8.88011     19.79404         0.000000      0.000024     -0.000032
      4.54253      7.39378     18.52834         0.000397     -0.000041     -0.000590
      8.43925      7.39378     18.52834        -0.000399     -0.000041     -0.000591
      3.23703      8.87572     20.48926        -0.000090     -0.000130     -0.000446
      3.25421      8.87018     23.04300        -0.000179     -0.000374     -0.000881
      7.71306      7.40620     21.90171         0.000136     -0.001361     -0.000562
      5.26872      7.40620     21.90171        -0.000134     -0.001362     -0.000562
      3.24544      0.00000      7.50000        -0.000105     -0.000123      2.154305
      3.24544      0.00000     10.04305        -0.000254     -0.000131      1.806517
      7.76241     10.35119      8.77152        -1.962858     -0.000191     -0.789160
      5.21936     10.35119      8.77152         1.962895     -0.000191     -0.789159
      6.49089      0.00000     10.74544         0.000002     -0.000221     -1.404590
      6.49089      0.00000     13.28849        -0.000002     -0.000431     -0.148774
      4.51697     10.35119     12.01697         0.447001     -0.000537      0.056947
      8.46481     10.35119     12.01697        -0.446956     -0.000537      0.056947
      3.24544      0.00000     13.99089        -0.000875     -0.002916     -0.082233
      3.24544      0.00000     16.53394        -0.003210     -0.000749      0.032513
      7.76241     10.35119     15.26241        -0.456196     -0.005996      0.090790
      5.21936     10.35119     15.26241         0.456248     -0.005996      0.090788
      6.49089      0.00012     17.24674         0.000001     -0.000547     -0.000440
      6.49089      0.00152     19.79209         0.000000      0.000417      0.000072
      4.54280     10.35164     18.52207        -0.000288      0.000524     -0.000367
      8.43897     10.35164     18.52207         0.000287      0.000524     -0.000368
      3.24243      0.00080     20.49199        -0.000566     -0.000037     -0.000060
      3.24368      0.00072     23.04529        -0.000282      0.000132     -0.000731
      7.71150     10.35842     21.91740        -0.000065     -0.000447     -0.000074
      5.27028     10.35842     21.91740         0.000067     -0.000447     -0.000074
      3.24544      2.95748      7.50000        -0.000097      0.000158      2.154221
      3.24544      2.95748     10.04305        -0.000223      0.000160      1.806479
      7.76241      1.47874      8.77152        -1.962890      0.000081     -0.789184
      5.21936      1.47874      8.77152         1.962927      0.000081     -0.789184
      6.49089      2.95748     10.74544         0.000002      0.000889     -1.403992
      6.49089      2.95748     13.28849        -0.000002      0.002033     -0.144094
      4.51697      1.47874     12.01697         0.446975      0.000050      0.056822
      8.46481      1.47874     12.01697        -0.446929      0.000050      0.056822
      3.24544      2.95748     13.99089        -0.001089      0.002528     -0.082816
      3.24544      2.95748     16.53394        -0.002049      0.004240      0.037993
      7.76241      1.47874     15.26241        -0.457980      0.003586      0.089352
      5.21936      1.47874     15.26241         0.458033      0.003586      0.089350
      6.49089      2.96342     17.25100         0.000001      0.000201     -0.000510
      6.49089      2.95077     19.79350         0.000001     -0.000626     -0.002067
      4.54272      1.47905     18.52225        -0.000203     -0.000137     -0.001044
      8.43906      1.47905     18.52225         0.000202     -0.000136     -0.001044
      3.23878      2.95652     20.49154        -0.000731      0.000117     -0.000964
      3.24614      2.95974     23.04443        -0.000068      0.000213     -0.000874
      7.71079      1.47730     21.92417         0.000060     -0.000348     -0.001214
      5.27099      1.47730     21.92417        -0.000059     -0.000348     -0.001214
      3.24544      5.91497      7.50000        -0.000098      0.000099      2.154046
      3.24544      5.91497     10.04305        -0.000204      0.000119      1.806944
      7.76241      4.43622      8.77152        -1.962897      0.000182     -0.789131
      5.21936      4.43622      8.77152         1.962934      0.000182     -0.789130
      6.49089      5.91497     10.74544         0.000002      0.000211     -1.402900
      6.49089      5.91497     13.28849        -0.000002      0.000470     -0.128592
      4.51697      4.43622     12.01697         0.447709      0.000618      0.056987
      8.46481      4.43622     12.01697        -0.447663      0.000618      0.056986
      3.24544      5.91497     13.99089        -0.001727      0.002850     -0.079741
      3.24544      5.91497     16.53394         0.000443      0.002769      0.045423
      7.76241      4.43622     15.26241        -0.457665      0.012095      0.086213
      5.21936      4.43622     15.26241         0.457717      0.012095      0.086211
      6.49089      5.91570     17.25609         0.000001      0.000205     -0.000331
      6.49089      5.91362     19.81402         0.000000     -0.000389     -0.001754
      4.54253      4.43665     18.52798         0.000362      0.000058     -0.000807
      8.43925      4.43664     18.52798        -0.000363      0.000058     -0.000806
      3.23427      5.91507     20.48973        -0.000914      0.000202     -0.000990
      3.26559      5.91997     23.04189        -0.000441      0.000550     -0.001154
      7.71435      4.42369     21.90208        -0.000139     -0.000284     -0.001596
      5.26742      4.42369     21.90209         0.000141     -0.000284     -0.001597
 -----------------------------------------------------------------------------------
    total drift:                                0.000022      0.001704     -0.061840


--------------------------------------------------------------------------------------------------------



  FREE ENERGIE OF THE ION-ELECTRON SYSTEM (eV)
  ---------------------------------------------------
  free  energy   TOTEN  =     -2735.85882296 eV

  energy  without entropy=    -2735.85882296  energy(sigma->0) =    -2735.85882296
 
 d Force = 0.7295412E-05[ 0.717E-05, 0.742E-05]  d Energy = 0.5413982E-05 0.188E-05
 d Force =-0.4686356E+01[-0.469E+01,-0.469E+01]  d Ewald  =-0.4686357E+01 0.703E-06


--------------------------------------------------------------------------------------------------------


    POTLOK:  cpu time      0.9960: real time      0.9989


--------------------------------------------------------------------------------------------------------


 Conjugate gradient step on ions:
 trial-energy change:   -0.000005  1 .order   -0.000007   -0.000007   -0.000007
  (g-gl).g = 0.219E-04      g.g   = 0.222E-04  gl.gl    = 0.183E-04
 g(Force)  = 0.222E-04   g(Stress)= 0.000E+00 ortho     = 0.901E-06
 gamma     =   1.19452
 trial     =   0.31839
 opt step  =   1.27356  (harmonic =   9.64254) maximal distance =0.00025315
 next E    = -2735.858930   (d E  =  -0.00011)


--------------------------------------------------------------------------------------------------------


  
 reached required accuracy - stopping structural energy minimisation
     LOOP+:  cpu time    308.2603: real time    309.5639
    4ORBIT:  cpu time      0.0000: real time      0.0000

 total amount of memory used by VASP MPI-rank0   161559. kBytes
=======================================================================

   base      :      30000. kBytes
   nonl-proj :      51121. kBytes
   fftplans  :       7216. kBytes
   grid      :      18081. kBytes
   one-center:        202. kBytes
   wavefun   :      54939. kBytes
 
  
  
 General timing and accounting informations for this job:
 ========================================================
  
                  Total CPU time used (sec):     2859.993
                            User time (sec):     2763.716
                          System time (sec):       96.277
                         Elapsed time (sec):     2873.416
  
                   Maximum memory used (kb):      743004.
                   Average memory used (kb):          N/A
  
                          Minor page faults:       300185
                          Major page faults:          104
                 Voluntary context switches:        13364
