 vasp.6.3.0 20Jan22 (build Apr  1 2022 16:44:48) complex                         
 executed on        HPECrayEX_GCC date 2022.10.25  01:03:36
 running  512 mpi-ranks, with    1 threads/rank
 distrk:  each k-point on  512 cores,    1 groups
 distr:  one band on NCORE=   8 cores,   64 groups


--------------------------------------------------------------------------------------------------------


 INCAR:
   SYSTEM = MgO-rocksalt
   ISMEAR = 0
   SIGMA = 0.05
   EDIFF = 1E-6
   ALGO = ALL
   ISTART = 0
   IBRION = -1
   NSW = 0
   ISYM = 0
   DIPOL = 0.5 0.5 0.5
   IDIPOL = 3
   LDIPOL = .TRUE.
   GGA = PE
   IVDW = 1
   VDW_C6 = 0.63 0.70
   VDW_R0 = 1.243 1.342
   ENCUT = 600
   PREC = Accurate
   LASPH = .TRUE.
   LREAL = .FALSE.
   ISPIN = 1
   NELM = 200
   NELMIN = 8
   NCORE = 8
   KPAR = 1
   LWAVE = .FALSE.
   LCHARG = .FALSE.

 POTCAR:    PAW_PBE Mg_pv 13Apr2007               
 POTCAR:    PAW_PBE O 08Apr2002                   
 POTCAR:    PAW_PBE Mg_pv 13Apr2007               
   SHA256 =  f474ac0dd33840b9ae76c01d57fea79fdf77cdfbb07d5ade72c65f83c709b62b Mg_pv/POTCAR          
   COPYR  = (c) Copyright 13Apr2007 Georg Kresse                                                    
   COPYR  = This file is part of the software VASP. Any use, copying, and all other rights are regul
   COPYR  = If you do not have a valid VASP license, you may not use, copy or distribute this file. 
   VRHFIN =Mg: p6s2                                                                                 
   LEXCH  = PE                                                                                      
   EATOM  =  1056.7344 eV,   77.6678 Ry                                                             
                                                                                                    
   TITEL  = PAW_PBE Mg_pv 13Apr2007                                                                 
   LULTRA =        F    use ultrasoft PP ?                                                          
   IUNSCR =        1    unscreen: 0-lin 1-nonlin 2-no                                               
   RPACOR =    1.500    partial core radius                                                         
   POMASS =   24.305; ZVAL   =    8.000    mass and valenz                                          
   RCORE  =    2.000    outmost cutoff radius                                                       
   RWIGS  =    2.000; RWIGS  =    1.058    wigner-seitz radius (au A)                               
   ENMAX  =  403.929; ENMIN  =  302.947 eV                                                          
   RCLOC  =    1.506    cutoff for local pot                                                        
   LCOR   =        T    correct aug charges                                                         
   LPAW   =        T    paw PP                                                                      
   EAUG   =  758.780                                                                                
   DEXC   =    0.000                                                                                
   RMAX   =    2.045    core radius for proj-oper                                                   
   RAUG   =    1.300    factor for augmentation sphere                                              
   RDEP   =    2.025    radius for radial grids                                                     
   RDEPT  =    1.557    core radius for aug-charge                                                  
                                                                                                    
   Atomic configuration                                                                             
    5 entries                                                                                       
     n  l   j            E        occ.                                                              
     1  0  0.50     -1259.6230   2.0000                                                             
     2  0  0.50       -79.8442   2.0000                                                             
     2  1  1.50       -46.6121   6.0000                                                             
     3  0  0.50        -4.7055   2.0000                                                             
     3  2  1.50        -1.3606   0.0000                                                             
   Description                                                                                      
     l       E           TYP  RCUT    TYP  RCUT                                                     
     1    -46.6121073     23  1.600                                                                 
     1      2.7211652     23  1.600                                                                 
     0     -4.7054661     23  2.000                                                                 
     0     61.2262170     23  2.000                                                                 
     2     -1.3605826     23  2.000                                                                 
  local pseudopotential read in
  partial core-charges read in
  partial kinetic energy density read in
  atomic valenz-charges read in
  non local Contribution for L=           1  read in
    real space projection operators read in
  non local Contribution for L=           1  read in
    real space projection operators read in
  non local Contribution for L=           0  read in
    real space projection operators read in
  non local Contribution for L=           0  read in
    real space projection operators read in
  non local Contribution for L=           2  read in
    real space projection operators read in
    PAW grid and wavefunctions read in

   number of l-projection  operators is LMAX  =           5
   number of lm-projection operators is LMMAX =          13

 POTCAR:    PAW_PBE O 08Apr2002                   
   SHA256 =  818f92134a0a090dccd8ba1447fa70422a3b330e708bb4f08108d8ae51209ddf O/POTCAR              
   COPYR  = (c) Copyright 08Apr2002 Georg Kresse                                                    
   COPYR  = This file is part of the software VASP. Any use, copying, and all other rights are regul
   COPYR  = If you do not have a valid VASP license, you may not use, copy or distribute this file. 
   VRHFIN =O: s2p4                                                                                  
   LEXCH  = PE                                                                                      
   EATOM  =   432.3788 eV,   31.7789 Ry                                                             
                                                                                                    
   TITEL  = PAW_PBE O 08Apr2002                                                                     
   LULTRA =        F    use ultrasoft PP ?                                                          
   IUNSCR =        1    unscreen: 0-lin 1-nonlin 2-no                                               
   RPACOR =    1.200    partial core radius                                                         
   POMASS =   16.000; ZVAL   =    6.000    mass and valenz                                          
   RCORE  =    1.520    outmost cutoff radius                                                       
   RWIGS  =    1.550; RWIGS  =    0.820    wigner-seitz radius (au A)                               
   ENMAX  =  400.000; ENMIN  =  300.000 eV                                                          
   ICORE  =        2    local potential                                                             
   LCOR   =        T    correct aug charges                                                         
   LPAW   =        T    paw PP                                                                      
   EAUG   =  605.392                                                                                
   DEXC   =    0.000                                                                                
   RMAX   =    1.553    core radius for proj-oper                                                   
   RAUG   =    1.300    factor for augmentation sphere                                              
   RDEP   =    1.550    radius for radial grids                                                     
   RDEPT  =    1.329    core radius for aug-charge                                                  
                                                                                                    
   Atomic configuration                                                                             
    4 entries                                                                                       
     n  l   j            E        occ.                                                              
     1  0  0.50      -514.6923   2.0000                                                             
     2  0  0.50       -23.9615   2.0000                                                             
     2  1  0.50        -9.0305   4.0000                                                             
     3  2  1.50        -9.5241   0.0000                                                             
   Description                                                                                      
     l       E           TYP  RCUT    TYP  RCUT                                                     
     0    -23.9615318     23  1.200                                                                 
     0     -9.5240782     23  1.200                                                                 
     1     -9.0304911     23  1.520                                                                 
     1      8.1634956     23  1.520                                                                 
     2     -9.5240782      7  1.500                                                                 
  local pseudopotential read in
  partial core-charges read in
  partial kinetic energy density read in
  kinetic energy density of atom read in
  atomic valenz-charges read in
  non local Contribution for L=           0  read in
    real space projection operators read in
  non local Contribution for L=           0  read in
    real space projection operators read in
  non local Contribution for L=           1  read in
    real space projection operators read in
  non local Contribution for L=           1  read in
    real space projection operators read in
    PAW grid and wavefunctions read in

   number of l-projection  operators is LMAX  =           4
   number of lm-projection operators is LMMAX =           8

 -----------------------------------------------------------------------------
|                                                                             |
|               ----> ADVICE to this user running VASP <----                  |
|                                                                             |
|     You have a (more or less) 'large supercell' and for larger cells it     |
|     might be more efficient to use real-space projection operators.         |
|     Therefore, try LREAL= Auto in the INCAR file.                           |
|     Mind: For very accurate calculation, you might also keep the            |
|     reciprocal projection scheme (i.e. LREAL=.FALSE.).                      |
|                                                                             |
 -----------------------------------------------------------------------------

  PAW_PBE Mg_pv 13Apr2007               :
 energy of atom  1       EATOM=-1056.7344
 kinetic energy error for atom=    0.0221 (will be added to EATOM!!)
  PAW_PBE O 08Apr2002                   :
 energy of atom  2       EATOM= -432.3788
 kinetic energy error for atom=    0.0168 (will be added to EATOM!!)


 POSCAR: Mg  O
  positions in direct lattice
  No initial velocities read in
 exchange correlation table for  LEXCH =        8
   RHO(1)=    0.500       N(1)  =     2000
   RHO(2)=  100.500       N(2)  =     4000



--------------------------------------------------------------------------------------------------------


 ion  position               nearest neighbor table
   1  0.250  0.000  0.352-  33 2.11  35 2.11  36 2.11  43 2.11  52 2.11
   2  0.500  0.250  0.352-  34 2.11  35 2.11  36 2.11  44 2.11  51 2.11
   3  0.250  0.250  0.451-  35 2.11  34 2.11  33 2.11  41 2.11  50 2.11  39 2.12
   4  0.500  0.000  0.451-  36 2.11  34 2.11  33 2.11  42 2.11  49 2.11  40 2.11
   5  0.250  0.000  0.550-  40 2.11  39 2.11  47 2.11  56 2.11  33 2.12  37 2.14
   6  0.500  0.250  0.550-  48 2.11  40 2.11  55 2.11  39 2.11  34 2.12  38 2.13
   7  0.250  0.250  0.648-  39 2.10  37 2.11  38 2.11  54 2.11  45 2.11
   8  0.500  0.000  0.648-  40 2.10  38 2.11  46 2.11  37 2.11  53 2.11
   9  0.250  0.500  0.352-  41 2.11  35 2.11  43 2.11  44 2.11  60 2.11
  10  0.500  0.750  0.352-  42 2.11  36 2.11  43 2.11  44 2.11  59 2.11
  11  0.250  0.750  0.451-  43 2.11  41 2.11  42 2.11  33 2.11  58 2.11  47 2.12
  12  0.500  0.500  0.451-  44 2.11  41 2.11  42 2.11  34 2.11  57 2.11  48 2.12
  13  0.250  0.500  0.550-  48 2.11  47 2.11  39 2.11  64 2.11  41 2.12  45 2.14
  14  0.500  0.750  0.550-  48 2.11  40 2.11  63 2.11  47 2.11  42 2.12  46 2.13
  15  0.250  0.750  0.648-  47 2.10  37 2.11  46 2.11  62 2.11  45 2.11
  16  0.500  0.500  0.649-  38 2.11  46 2.11  48 2.11  45 2.11  61 2.11
  17  0.750  0.000  0.352-  49 2.11  36 2.11  51 2.11  52 2.11  59 2.11
  18  0.000  0.250  0.352-  50 2.11  35 2.11  51 2.11  52 2.11  60 2.11
  19  0.750  0.250  0.451-  51 2.11  49 2.11  50 2.11  34 2.11  57 2.11  55 2.12
  20  0.000  0.000  0.451-  52 2.11  49 2.11  50 2.11  33 2.11  58 2.11  56 2.12
  21  0.750  0.000  0.550-  40 2.11  55 2.11  63 2.11  56 2.11  49 2.12  53 2.14
  22  1.000  0.250  0.550-  55 2.11  39 2.11  56 2.11  64 2.11  50 2.12  54 2.14
  23  0.750  0.250  0.648-  55 2.10  53 2.11  38 2.11  54 2.11  61 2.11
  24  1.000  0.000  0.648-  56 2.10  53 2.11  37 2.11  54 2.11  62 2.11
  25  0.750  0.500  0.352-  57 2.11  51 2.11  44 2.11  59 2.11  60 2.11
  26  0.000  0.750  0.352-  58 2.11  52 2.11  43 2.11  59 2.11  60 2.11
  27  0.750  0.750  0.451-  59 2.11  49 2.11  57 2.11  58 2.11  42 2.11  63 2.12
  28  0.000  0.500  0.451-  60 2.11  50 2.11  57 2.11  58 2.11  41 2.11  64 2.12
  29  0.750  0.500  0.550-  48 2.11  55 2.11  63 2.11  64 2.11  57 2.12  61 2.14
  30  1.000  0.750  0.550-  63 2.11  47 2.11  56 2.11  64 2.11  58 2.12  62 2.14
  31  0.750  0.750  0.648-  63 2.10  53 2.11  46 2.11  62 2.11  61 2.11
  32  1.000  0.500  0.648-  64 2.10  45 2.11  61 2.11  54 2.11  62 2.11
  33  0.250  0.000  0.451-   1 2.11   3 2.11   4 2.11  11 2.11  20 2.11   5 2.12
  34  0.500  0.250  0.451-   2 2.11   3 2.11   4 2.11  12 2.11  19 2.11   6 2.12
  35  0.250  0.250  0.352-   3 2.11   2 2.11   1 2.11   9 2.11  18 2.11
  36  0.500  0.000  0.352-   4 2.11   2 2.11   1 2.11  10 2.11  17 2.11
  37  0.250  0.000  0.650-   7 2.11  15 2.11  24 2.11   8 2.11   5 2.14
  38  0.500  0.250  0.650-   8 2.11  23 2.11   7 2.11  16 2.11   6 2.13
  39  0.250  0.250  0.550-   7 2.10  22 2.11  13 2.11   5 2.11   6 2.11   3 2.12
  40  0.500  0.000  0.550-   8 2.10   5 2.11  21 2.11  14 2.11   6 2.11   4 2.11
  41  0.250  0.500  0.451-   9 2.11   3 2.11  11 2.11  12 2.11  28 2.11  13 2.12
  42  0.500  0.750  0.451-  10 2.11   4 2.11  11 2.11  12 2.11  27 2.11  14 2.12
  43  0.250  0.750  0.352-  11 2.11   9 2.11  10 2.11   1 2.11  26 2.11
  44  0.500  0.500  0.352-  12 2.11   9 2.11  10 2.11   2 2.11  25 2.11
  45  0.250  0.500  0.650-  32 2.11   7 2.11  15 2.11  16 2.11  13 2.14
  46  0.500  0.750  0.650-   8 2.11  31 2.11  15 2.11  16 2.11  14 2.13
  47  0.250  0.750  0.550-  15 2.10  30 2.11  13 2.11   5 2.11  14 2.11  11 2.12
  48  0.500  0.500  0.550-  13 2.11  29 2.11   6 2.11  14 2.11  16 2.11  12 2.12
  49  0.750  0.000  0.451-  17 2.11   4 2.11  19 2.11  20 2.11  27 2.11  21 2.12
  50  0.000  0.250  0.451-  18 2.11   3 2.11  19 2.11  20 2.11  28 2.11  22 2.12
  51  0.750  0.250  0.352-  19 2.11  17 2.11  18 2.11   2 2.11  25 2.11
  52  0.000  0.000  0.352-  20 2.11  17 2.11  18 2.11   1 2.11  26 2.11
  53  0.750  0.000  0.650-  23 2.11  31 2.11  24 2.11   8 2.11  21 2.14
  54  1.000  0.250  0.650-  24 2.11  32 2.11   7 2.11  23 2.11  22 2.14
  55  0.750  0.250  0.550-  23 2.10  22 2.11  29 2.11  21 2.11   6 2.11  19 2.12
  56  1.000  0.000  0.550-  24 2.10  22 2.11  30 2.11   5 2.11  21 2.11  20 2.12
  57  0.750  0.500  0.451-  25 2.11  19 2.11  12 2.11  27 2.11  28 2.11  29 2.12
  58  0.000  0.750  0.451-  26 2.11  20 2.11  11 2.11  27 2.11  28 2.11  30 2.12
  59  0.750  0.750  0.352-  27 2.11  17 2.11  25 2.11  26 2.11  10 2.11
  60  0.000  0.500  0.352-  28 2.11  18 2.11  25 2.11  26 2.11   9 2.11
  61  0.750  0.500  0.650-  32 2.11  31 2.11  23 2.11  16 2.11  29 2.14
  62  1.000  0.750  0.650-  24 2.11  32 2.11  31 2.11  15 2.11  30 2.14
  63  0.750  0.750  0.550-  31 2.10  30 2.11  29 2.11  21 2.11  14 2.11  27 2.12
  64  1.000  0.500  0.550-  32 2.10  22 2.11  30 2.11  29 2.11  13 2.11  28 2.12


IMPORTANT INFORMATION: All symmetrisations will be switched off!
NOSYMM: (Re-)initialisation of all symmetry stuff for point group C_1.


----------------------------------------------------------------------------------------

                                     Primitive cell                                     

  volume of cell :    1519.6535

  direct lattice vectors                    reciprocal lattice vectors
     8.440582262  0.000000000  0.000000000     0.118475239  0.000000000  0.000000000
     0.000000000  8.440582262  0.000000000     0.000000000  0.118475239  0.000000000
     0.000000000  0.000000000 21.330436697     0.000000000  0.000000000  0.046881366

  length of vectors
     8.440582262  8.440582262 21.330436697     0.118475239  0.118475239  0.046881366

  position of ions in fractional coordinates (direct lattice)
     0.250000000  0.000000000  0.351610242
     0.500000000  0.250000000  0.351610242
     0.250000000  0.250000000  0.450536747
     0.500000000  0.000000000  0.450536747
     0.250020383  0.000000002  0.549964511
     0.499999995  0.250059851  0.550024624
     0.250059453  0.249849588  0.648270450
     0.499999989  0.000000005  0.648330813
     0.250000000  0.500000000  0.351610242
     0.500000000  0.750000000  0.351610242
     0.250000000  0.750000000  0.450536747
     0.500000000  0.500000000  0.450536747
     0.250073483  0.500000003  0.550017913
     0.499999994  0.749940154  0.550024627
     0.250059451  0.750150420  0.648270445
     0.499999985  0.500000002  0.648823829
     0.750000000  0.000000000  0.351610242
     0.000000000  0.250000000  0.351610242
     0.750000000  0.250000000  0.450536747
     0.000000000  0.000000000  0.450536747
     0.749979604  0.000000004  0.549964510
     0.999999993  0.249994039  0.549974874
     0.749940525  0.249849582  0.648270453
     0.999999988  0.000000003  0.648413763
     0.750000000  0.500000000  0.351610242
     0.000000000  0.750000000  0.351610242
     0.750000000  0.750000000  0.450536747
     0.000000000  0.500000000  0.450536747
     0.749926503  0.500000000  0.550017911
     0.999999993  0.750005964  0.549974872
     0.749940526  0.750150423  0.648270447
     0.999999993  0.500000001  0.648293177
     0.250000000  0.000000000  0.450536747
     0.500000000  0.250000000  0.450536747
     0.250000000  0.250000000  0.351610242
     0.500000000  0.000000000  0.351610242
     0.249967574  0.000000004  0.650232023
     0.499999992  0.249790432  0.650054103
     0.249935855  0.250001082  0.549704381
     0.499999991  0.000000000  0.549674093
     0.250000000  0.500000000  0.450536747
     0.500000000  0.750000000  0.450536747
     0.250000000  0.750000000  0.351610242
     0.500000000  0.500000000  0.351610242
     0.249741506  0.500000004  0.650297624
     0.499999994  0.750209573  0.650054100
     0.249935854  0.749998920  0.549704382
     0.499999993  0.500000002  0.549802910
     0.750000000  0.000000000  0.450536747
     0.000000000  0.250000000  0.450536747
     0.750000000  0.250000000  0.351610242
     0.000000000  0.000000000  0.351610242
     0.750032406  0.000000003  0.650232024
     0.999999991  0.249978599  0.650229220
     0.750064135  0.250001085  0.549704379
     0.999999996  0.000000003  0.549734307
     0.750000000  0.500000000  0.450536747
     0.000000000  0.750000000  0.450536747
     0.750000000  0.750000000  0.351610242
     0.000000000  0.500000000  0.351610242
     0.750258474  0.500000004  0.650297619
     0.999999985  0.750021408  0.650229221
     0.750064133  0.749998918  0.549704381
     0.999999993  0.500000001  0.549711215

  ion indices of the primitive-cell ions
   primitive index   ion index
                 1           1
                 2           2
                 3           3
                 4           4
                 5           5
                 6           6
                 7           7
                 8           8
                 9           9
                10          10
                11          11
                12          12
                13          13
                14          14
                15          15
                16          16
                17          17
                18          18
                19          19
                20          20
                21          21
                22          22
                23          23
                24          24
                25          25
                26          26
                27          27
                28          28
                29          29
                30          30
                31          31
                32          32
                33          33
                34          34
                35          35
                36          36
                37          37
                38          38
                39          39
                40          40
                41          41
                42          42
                43          43
                44          44
                45          45
                46          46
                47          47
                48          48
                49          49
                50          50
                51          51
                52          52
                53          53
                54          54
                55          55
                56          56
                57          57
                58          58
                59          59
                60          60
                61          61
                62          62
                63          63
                64          64

----------------------------------------------------------------------------------------



 KPOINTS: pymatgen v2020.8.13 with grid density = 

Automatic generation of k-mesh.
 Grid dimensions read from file:
 generate k-points for:    2    2    1

 Generating k-lattice:

  Cartesian coordinates                     Fractional coordinates (reciprocal lattice)
     0.059237619  0.000000000  0.000000000     0.500000000  0.000000000  0.000000000
     0.000000000  0.059237619  0.000000000     0.000000000  0.500000000  0.000000000
     0.000000000  0.000000000  0.046881366     0.000000000  0.000000000  1.000000000

  Length of vectors
     0.059237619  0.059237619  0.046881366

  Shift w.r.t. Gamma in fractional coordinates (k-lattice)
     0.000000000  0.000000000  0.000000000

 
 Subroutine IBZKPT returns following result:
 ===========================================
 
 Found      4 irreducible k-points:
 
 Following reciprocal coordinates:
            Coordinates               Weight
  0.000000  0.000000  0.000000      1.000000
  0.500000  0.000000  0.000000      1.000000
  0.000000  0.500000  0.000000      1.000000
  0.500000  0.500000  0.000000      1.000000
 
 Following cartesian coordinates:
            Coordinates               Weight
  0.000000  0.000000  0.000000      1.000000
  0.059238  0.000000  0.000000      1.000000
  0.000000  0.059238  0.000000      1.000000
  0.059238  0.059238  0.000000      1.000000
 


--------------------------------------------------------------------------------------------------------




 Dimension of arrays:
   k-points           NKPTS =      4   k-points in BZ     NKDIM =      4   number of bands    NBANDS=    320
   number of dos      NEDOS =    301   number of ions     NIONS =     64
   non local maximal  LDIM  =      5   non local SUM 2l+1 LMDIM =     13
   total plane-waves  NPLWV = 882000
   max r-space proj   IRMAX =      1   max aug-charges    IRDMAX=  11637
   dimension x,y,z NGX =    70 NGY =   70 NGZ =  180
   dimension x,y,z NGXF=   140 NGYF=  140 NGZF=  360
   support grid    NGXF=   140 NGYF=  140 NGZF=  360
   ions per type =              32  32
   NGX,Y,Z   is equivalent  to a cutoff of  13.79, 13.79, 14.03 a.u.
   NGXF,Y,Z  is equivalent  to a cutoff of  27.57, 27.57, 28.06 a.u.

 SYSTEM =  MgO-rocksalt                            
 POSCAR =  Mg  O                                   

--------------------------------------------------------------------------------------------------------


  energy-cutoff  :      600.00
  volume of cell :     1519.65
      direct lattice vectors                 reciprocal lattice vectors
     8.440582262  0.000000000  0.000000000     0.118475239  0.000000000  0.000000000
     0.000000000  8.440582262  0.000000000     0.000000000  0.118475239  0.000000000
     0.000000000  0.000000000 21.330436697     0.000000000  0.000000000  0.046881366

  length of vectors
     8.440582262  8.440582262 21.330436697     0.118475239  0.118475239  0.046881366



 k-points in units of 2pi/SCALE and weight: pymatgen v2020.8.13 with grid density = 
   0.00000000  0.00000000  0.00000000       0.250
   0.05923762  0.00000000  0.00000000       0.250
   0.00000000  0.05923762  0.00000000       0.250
   0.05923762  0.05923762  0.00000000       0.250

 k-points in reciprocal lattice and weights: pymatgen v2020.8.13 with grid density = 
   0.00000000  0.00000000  0.00000000       0.250
   0.50000000  0.00000000  0.00000000       0.250
   0.00000000  0.50000000  0.00000000       0.250
   0.50000000  0.50000000  0.00000000       0.250

 position of ions in fractional coordinates (direct lattice) 
   0.25000000  0.00000000  0.35161024
   0.50000000  0.25000000  0.35161024
   0.25000000  0.25000000  0.45053675
   0.50000000  0.00000000  0.45053675
   0.25002038  0.00000000  0.54996451
   0.50000000  0.25005985  0.55002462
   0.25005945  0.24984959  0.64827045
   0.49999999  0.00000001  0.64833081
   0.25000000  0.50000000  0.35161024
   0.50000000  0.75000000  0.35161024
   0.25000000  0.75000000  0.45053675
   0.50000000  0.50000000  0.45053675
   0.25007348  0.50000000  0.55001791
   0.49999999  0.74994015  0.55002463
   0.25005945  0.75015042  0.64827044
   0.49999998  0.50000000  0.64882383
   0.75000000  0.00000000  0.35161024
   0.00000000  0.25000000  0.35161024
   0.75000000  0.25000000  0.45053675
   0.00000000  0.00000000  0.45053675
   0.74997960  0.00000000  0.54996451
   0.99999999  0.24999404  0.54997487
   0.74994053  0.24984958  0.64827045
   0.99999999  0.00000000  0.64841376
   0.75000000  0.50000000  0.35161024
   0.00000000  0.75000000  0.35161024
   0.75000000  0.75000000  0.45053675
   0.00000000  0.50000000  0.45053675
   0.74992650  0.50000000  0.55001791
   0.99999999  0.75000596  0.54997487
   0.74994053  0.75015042  0.64827045
   0.99999999  0.50000000  0.64829318
   0.25000000  0.00000000  0.45053675
   0.50000000  0.25000000  0.45053675
   0.25000000  0.25000000  0.35161024
   0.50000000  0.00000000  0.35161024
   0.24996757  0.00000000  0.65023202
   0.49999999  0.24979043  0.65005410
   0.24993585  0.25000108  0.54970438
   0.49999999  0.00000000  0.54967409
   0.25000000  0.50000000  0.45053675
   0.50000000  0.75000000  0.45053675
   0.25000000  0.75000000  0.35161024
   0.50000000  0.50000000  0.35161024
   0.24974151  0.50000000  0.65029762
   0.49999999  0.75020957  0.65005410
   0.24993585  0.74999892  0.54970438
   0.49999999  0.50000000  0.54980291
   0.75000000  0.00000000  0.45053675
   0.00000000  0.25000000  0.45053675
   0.75000000  0.25000000  0.35161024
   0.00000000  0.00000000  0.35161024
   0.75003241  0.00000000  0.65023202
   0.99999999  0.24997860  0.65022922
   0.75006413  0.25000108  0.54970438
   1.00000000  0.00000000  0.54973431
   0.75000000  0.50000000  0.45053675
   0.00000000  0.75000000  0.45053675
   0.75000000  0.75000000  0.35161024
   0.00000000  0.50000000  0.35161024
   0.75025847  0.50000000  0.65029762
   0.99999998  0.75002141  0.65022922
   0.75006413  0.74999892  0.54970438
   0.99999999  0.50000000  0.54971122

 position of ions in cartesian coordinates  (Angst):
   2.11014557  0.00000000  7.50000000
   4.22029113  2.11014557  7.50000000
   2.11014557  2.11014557  9.61014557
   4.22029113  0.00000000  9.61014557
   2.11031761  0.00000002 11.73098320
   4.22029109  2.11065074 11.73226542
   2.11064739  2.10887600 13.82789180
   4.22029104  0.00000005 13.82917936
   2.11014557  4.22029113  7.50000000
   4.22029113  6.33043670  7.50000000
   2.11014557  6.33043670  9.61014557
   4.22029113  4.22029113  9.61014557
   2.11076581  4.22029115 11.73212228
   4.22029108  6.32993156 11.73226550
   2.11064737  6.33170633 13.82789168
   4.22029100  4.22029115 13.83969561
   6.33043670  0.00000000  7.50000000
   0.00000000  2.11014557  7.50000000
   6.33043670  2.11014557  9.61014557
   0.00000000  0.00000000  9.61014557
   6.33026455  0.00000003 11.73098317
   8.44058221  2.11009525 11.73120423
   6.32993470  2.10887595 13.82789187
   8.44058216  0.00000003 13.83094873
   6.33043670  4.22029113  7.50000000
   0.00000000  6.33043670  7.50000000
   6.33043670  6.33043670  9.61014557
   0.00000000  4.22029113  9.61014557
   6.32981634  4.22029113 11.73212224
   8.44058220  6.33048703 11.73120420
   6.32993470  6.33170636 13.82789174
   8.44058221  4.22029114 13.82837658
   2.11014557  0.00000000  9.61014557
   4.22029113  2.11014557  9.61014557
   2.11014557  2.11014557  7.50000000
   4.22029113  0.00000000  7.50000000
   2.10987187  0.00000003 13.86973301
   4.22029106  2.10837669 13.86593789
   2.10960414  2.11015470 11.72543450
   4.22029105  0.00000000 11.72478843
   2.11014557  4.22029113  9.61014557
   4.22029113  6.33043670  9.61014557
   2.11014557  6.33043670  7.50000000
   4.22029113  4.22029113  7.50000000
   2.10796372  4.22029116 13.87113230
   4.22029108  6.33220561 13.86593782
   2.10960414  6.33042758 11.72543453
   4.22029107  4.22029115 11.72753617
   6.33043670  0.00000000  9.61014557
   0.00000000  2.11014557  9.61014557
   6.33043670  2.11014557  7.50000000
   0.00000000  0.00000000  7.50000000
   6.33071023  0.00000003 13.86973303
   8.44058218  2.10996492 13.86967322
   6.33097803  2.11015472 11.72543445
   8.44058223  0.00000002 11.72607284
   6.33043670  4.22029113  9.61014557
   0.00000000  6.33043670  9.61014557
   6.33043670  6.33043670  7.50000000
   0.00000000  4.22029113  7.50000000
   6.33261837  4.22029116 13.87113220
   8.44058213  6.33061739 13.86967324
   6.33097801  6.33042756 11.72543451
   8.44058220  4.22029114 11.72558028



--------------------------------------------------------------------------------------------------------

--------------------------------------- Iteration      FINAL  ---------------------------------------


--------------------OUTCAR has been truncated-------------------------


--------------------OUTCAR has been truncated-------------------------


--------------------OUTCAR has been truncated-------------------------


--------------------OUTCAR has been truncated-------------------------


--------------------OUTCAR has been truncated-------------------------


--------------------OUTCAR has been truncated-------------------------


--------------------OUTCAR has been truncated-------------------------


--------------------OUTCAR has been truncated-------------------------


--------------------OUTCAR has been truncated-------------------------


--------------------OUTCAR has been truncated-------------------------


  DFT-D2 method for vdW energy calculation
  -------------------------------------------------------------------

  Parameters of vdW forcefield:
         C6(Jnm^6/mol)     R0(A)
   -----------------------------
   Mg       0.630          1.243
   O        0.700          1.342

  vdW correction parametrized for the method pbe       

  IVDW =   1
  VDW_RADIUS =    50.000 A
  VDW_S6 =     0.750
  VDW_SR =     1.000
  VDW_D =    20.000
  LVDW_EWALD = F

  Number of pair interactions contributing to vdW energy:  723296
  Edisp (eV):   -3.62890
    FORVDW:  cpu time      0.1071: real time      0.1072

  FORCE on cell =-STRESS in cart. coord.  units (eV):
  Direction    XX          YY          ZZ          XY          YZ          ZX
  --------------------------------------------------------------------------------------
  Alpha Z   875.35513   875.35513   875.35513
  Ewald  161523.91506161523.88155************    -0.00000     0.00001    -0.00003
  Hartree171590.25159171590.23057************    -0.00000     0.00001    -0.00002
  E(xc)   -2456.79474 -2456.79478 -2462.02523     0.00000    -0.00000    -0.00000
  Local  ************************343379.71147     0.00000    -0.00002     0.00005
  n-local -2812.14105 -2812.14136 -2832.48161     0.00000    -0.00000    -0.00000
  augment  1047.79380  1047.79377  1038.59939    -0.00000     0.00000    -0.00000
  Kinetic  7303.63561  7303.63660  7345.42714    -0.00000     0.00000     0.00001
  Fock        0.00000     0.00000     0.00000     0.00000     0.00000     0.00000
  vdW        -5.30021    -5.30020    -4.31317     0.00000     0.00000    -0.00000
  -------------------------------------------------------------------------------------
  Total     -23.95702   -23.95674     1.59942    -0.00000     0.00000     0.00001
  in kB     -25.25800   -25.25770     1.68628    -0.00000     0.00000     0.00001
  external pressure =      -16.28 kB  Pullay stress =        0.00 kB


 VOLUME and BASIS-vectors are now :
 -----------------------------------------------------------------------------
  energy-cutoff  :      600.00
  volume of cell :     1519.65
      direct lattice vectors                 reciprocal lattice vectors
     8.440582262  0.000000000  0.000000000     0.118475239  0.000000000  0.000000000
     0.000000000  8.440582262  0.000000000     0.000000000  0.118475239  0.000000000
     0.000000000  0.000000000 21.330436697     0.000000000  0.000000000  0.046881366

  length of vectors
     8.440582262  8.440582262 21.330436697     0.118475239  0.118475239  0.046881366


 FORCES acting on ions:
    Electron-Ion                     Ewald-Force                    Non-Local-Force
 -----------------------------------------------------------------------------------------------
   -.112E-01 -.185E-05 0.207E+04   0.114E-01 -.339E-06 -.206E+04   -.113E-03 -.912E-06 -.704E+01
   0.110E-05 -.420E-01 0.207E+04   -.502E-06 0.428E-01 -.206E+04   -.128E-05 -.615E-03 -.704E+01
   -.109E+00 -.157E+00 0.685E+03   0.111E+00 0.161E+00 -.685E+03   -.674E-03 -.308E-02 0.480E+00
   -.305E-05 0.394E-05 0.685E+03   0.776E-06 -.308E-05 -.685E+03   -.293E-06 0.950E-07 0.466E+00
   0.855E-01 -.186E-05 -.690E+03   -.971E-01 0.285E-05 0.690E+03   0.660E-02 0.209E-06 -.273E+00
   -.252E-05 -.587E+00 -.690E+03   0.165E-05 0.619E+00 0.690E+03   0.287E-06 -.271E-01 -.345E+00
   0.130E-01 -.652E+00 -.206E+04   -.596E-01 0.629E+00 0.205E+04   0.293E-01 0.326E-01 0.622E+01
   0.143E-05 0.404E-05 -.206E+04   -.223E-05 -.566E-05 0.205E+04   -.555E-06 0.359E-06 0.622E+01
   -.267E-01 0.101E-05 0.207E+04   0.273E-01 0.308E-06 -.206E+04   -.489E-03 -.334E-05 -.704E+01
   -.366E-05 0.420E-01 0.207E+04   -.280E-06 -.428E-01 -.206E+04   0.482E-06 0.613E-03 -.704E+01
   -.110E+00 0.157E+00 0.685E+03   0.111E+00 -.161E+00 -.685E+03   -.672E-03 0.308E-02 0.480E+00
   0.304E-05 -.427E-05 0.684E+03   -.256E-05 0.334E-05 -.685E+03   -.113E-05 0.718E-06 0.497E+00
   -.404E+00 0.962E-05 -.691E+03   0.430E+00 -.922E-05 0.691E+03   -.232E-01 -.755E-06 -.285E+00
   -.319E-05 0.587E+00 -.690E+03   0.275E-05 -.619E+00 0.690E+03   0.731E-06 0.271E-01 -.345E+00
   0.130E-01 0.652E+00 -.206E+04   -.597E-01 -.629E+00 0.205E+04   0.293E-01 -.326E-01 0.622E+01
   -.185E-04 0.116E-05 -.206E+04   0.175E-04 -.134E-05 0.205E+04   0.149E-06 -.160E-05 0.631E+01
   0.112E-01 0.296E-05 0.207E+04   -.114E-01 -.556E-06 -.206E+04   0.117E-03 0.365E-05 -.704E+01
   0.533E-06 -.266E-01 0.207E+04   0.524E-06 0.270E-01 -.206E+04   -.598E-06 -.230E-03 -.704E+01
   0.109E+00 -.157E+00 0.685E+03   -.111E+00 0.161E+00 -.685E+03   0.672E-03 -.308E-02 0.480E+00
   0.411E-06 0.119E-05 0.685E+03   0.240E-06 -.647E-06 -.685E+03   0.498E-07 0.115E-06 0.482E+00
   -.855E-01 0.229E-05 -.690E+03   0.971E-01 -.800E-06 0.690E+03   -.661E-02 -.150E-05 -.273E+00
   0.359E-06 -.127E+00 -.690E+03   -.153E-06 0.120E+00 0.690E+03   0.105E-05 0.576E-02 -.297E+00
   -.130E-01 -.652E+00 -.206E+04   0.597E-01 0.629E+00 0.205E+04   -.293E-01 0.326E-01 0.622E+01
   -.631E-05 0.943E-06 -.206E+04   0.775E-05 -.343E-05 0.205E+04   0.848E-06 -.192E-06 0.622E+01
   0.267E-01 -.175E-05 0.207E+04   -.273E-01 0.539E-06 -.206E+04   0.486E-03 0.968E-06 -.704E+01
   0.165E-05 0.266E-01 0.207E+04   0.304E-06 -.270E-01 -.206E+04   0.257E-05 0.232E-03 -.704E+01
   0.109E+00 0.157E+00 0.685E+03   -.111E+00 -.161E+00 -.685E+03   0.674E-03 0.308E-02 0.480E+00
   -.282E-05 -.941E-06 0.685E+03   0.347E-05 -.294E-06 -.685E+03   -.352E-07 0.968E-06 0.475E+00
   0.404E+00 0.272E-05 -.691E+03   -.430E+00 -.302E-05 0.691E+03   0.232E-01 0.173E-06 -.285E+00
   0.174E-05 0.127E+00 -.690E+03   -.178E-05 -.120E+00 0.690E+03   -.236E-06 -.576E-02 -.297E+00
   -.130E-01 0.652E+00 -.206E+04   0.597E-01 -.629E+00 0.205E+04   -.293E-01 -.326E-01 0.622E+01
   0.167E-04 -.478E-05 -.206E+04   -.155E-04 0.704E-05 0.205E+04   -.564E-06 -.234E-06 0.618E+01
   -.251E-02 0.947E-06 0.513E+03   0.406E-02 -.126E-05 -.513E+03   -.241E-02 0.895E-06 -.804E-01
   0.928E-06 -.159E+00 0.513E+03   -.117E-05 0.156E+00 -.513E+03   -.131E-05 0.524E-02 -.937E-01
   -.150E-01 -.258E-01 0.155E+04   0.153E-01 0.264E-01 -.156E+04   -.458E-03 -.888E-03 0.349E+01
   -.681E-06 -.100E-06 0.155E+04   -.171E-06 -.481E-06 -.156E+04   0.690E-06 -.542E-06 0.349E+01
   0.153E-01 0.199E-05 -.156E+04   -.307E-01 -.323E-05 0.157E+04   0.240E-01 0.689E-06 -.485E+01
   0.150E-05 -.694E+00 -.156E+04   -.170E-05 0.699E+00 0.156E+04   -.386E-06 0.143E-01 -.475E+01
   -.120E+00 -.280E+00 -.512E+03   0.119E+00 0.285E+00 0.512E+03   0.582E-02 -.542E-02 0.306E+00
   -.522E-05 -.700E-05 -.512E+03   0.782E-05 0.595E-05 0.511E+03   -.859E-06 0.768E-06 0.292E+00
   -.100E+00 -.305E-05 0.513E+03   0.964E-01 0.657E-07 -.513E+03   0.512E-02 0.128E-05 -.918E-01
   0.402E-05 0.159E+00 0.513E+03   0.325E-06 -.156E+00 -.513E+03   -.131E-05 -.524E-02 -.937E-01
   -.150E-01 0.258E-01 0.155E+04   0.153E-01 -.264E-01 -.156E+04   -.452E-03 0.886E-03 0.349E+01
   0.323E-05 0.992E-06 0.155E+04   -.423E-06 0.484E-06 -.156E+04   -.167E-05 0.544E-06 0.349E+01
   -.553E+00 -.414E-05 -.156E+04   0.521E+00 0.362E-05 0.157E+04   0.674E-01 0.276E-06 -.482E+01
   0.966E-05 0.694E+00 -.156E+04   -.882E-05 -.699E+00 0.156E+04   -.116E-05 -.143E-01 -.475E+01
   -.120E+00 0.280E+00 -.512E+03   0.119E+00 -.285E+00 0.512E+03   0.582E-02 0.542E-02 0.306E+00
   0.137E-05 0.173E-05 -.514E+03   0.107E-06 -.316E-05 0.514E+03   0.429E-06 -.788E-06 0.177E+00
   0.252E-02 0.105E-04 0.513E+03   -.406E-02 -.283E-05 -.513E+03   0.241E-02 -.555E-06 -.804E-01
   -.689E-05 -.642E-01 0.513E+03   0.293E-05 0.662E-01 -.513E+03   0.495E-06 -.268E-02 -.865E-01
   0.150E-01 -.258E-01 0.155E+04   -.153E-01 0.264E-01 -.156E+04   0.456E-03 -.884E-03 0.349E+01
   -.257E-05 -.206E-05 0.155E+04   0.176E-06 -.167E-06 -.156E+04   0.294E-05 0.960E-06 0.349E+01
   -.153E-01 0.254E-05 -.156E+04   0.307E-01 -.255E-05 0.157E+04   -.240E-01 -.159E-06 -.485E+01
   0.429E-05 -.179E+00 -.156E+04   -.577E-05 0.206E+00 0.157E+04   0.162E-05 -.321E-01 -.487E+01
   0.120E+00 -.280E+00 -.512E+03   -.119E+00 0.285E+00 0.512E+03   -.582E-02 -.542E-02 0.306E+00
   0.371E-05 0.957E-06 -.512E+03   -.611E-05 -.288E-05 0.512E+03   0.102E-05 -.782E-06 0.249E+00
   0.100E+00 0.182E-05 0.513E+03   -.964E-01 0.204E-05 -.513E+03   -.512E-02 -.372E-06 -.918E-01
   -.198E-05 0.642E-01 0.513E+03   0.168E-05 -.662E-01 -.513E+03   0.149E-06 0.268E-02 -.865E-01
   0.150E-01 0.258E-01 0.155E+04   -.153E-01 -.264E-01 -.156E+04   0.460E-03 0.888E-03 0.349E+01
   -.111E-05 0.122E-05 0.155E+04   0.423E-06 0.145E-06 -.156E+04   -.131E-05 0.165E-05 0.349E+01
   0.553E+00 0.366E-05 -.156E+04   -.521E+00 -.289E-05 0.157E+04   -.674E-01 -.107E-05 -.482E+01
   -.873E-05 0.180E+00 -.156E+04   0.671E-05 -.206E+00 0.157E+04   0.107E-05 0.321E-01 -.487E+01
   0.120E+00 0.280E+00 -.512E+03   -.119E+00 -.285E+00 0.512E+03   -.582E-02 0.542E-02 0.306E+00
   -.397E-06 -.751E-06 -.512E+03   -.350E-07 0.562E-07 0.512E+03   0.682E-06 0.134E-06 0.296E+00
 -----------------------------------------------------------------------------------------------
   -.716E-05 0.126E-06 0.142E+02   -.260E-14 0.407E-13 -.114E-11   0.664E-05 0.498E-05 -.142E+02


 POSITION                                       TOTAL-FORCE (eV/Angst)
 -----------------------------------------------------------------------------------
      2.11015      0.00000      7.50000         0.000073     -0.000003      0.349186
      4.22029      2.11015      7.50000        -0.000001      0.000195      0.349640
      2.11015      2.11015      9.61015         0.000571      0.001331      0.025336
      4.22029      0.00000      9.61015        -0.000003      0.000001      0.025347
      2.11032      0.00000     11.73098        -0.004863      0.000001      0.009098
      4.22029      2.11065     11.73227        -0.000001      0.005269     -0.003037
      2.11065      2.10888     13.82789        -0.016907      0.008591     -0.021565
      4.22029      0.00000     13.82918        -0.000001     -0.000001     -0.034100
      2.11015      4.22029      7.50000         0.000164     -0.000002      0.349634
      4.22029      6.33044      7.50000        -0.000003     -0.000197      0.349641
      2.11015      6.33044      9.61015         0.000572     -0.001331      0.025333
      4.22029      4.22029      9.61015        -0.000001     -0.000000      0.030877
      2.11077      4.22029     11.73212         0.002138     -0.000000      0.010460
      4.22029      6.32993     11.73227         0.000000     -0.005270     -0.003038
      2.11065      6.33171     13.82789        -0.016914     -0.008589     -0.021563
      4.22029      4.22029     13.83970        -0.000001     -0.000002     -0.107376
      6.33044      0.00000      7.50000        -0.000070      0.000006      0.349185
      0.00000      2.11015      7.50000         0.000000      0.000101      0.349462
      6.33044      2.11015      9.61015        -0.000573      0.001332      0.025333
      0.00000      0.00000      9.61015         0.000001      0.000001      0.026782
      6.33026      0.00000     11.73098         0.004863     -0.000000      0.009098
      8.44058      2.11010     11.73120         0.000001     -0.001250      0.013573
      6.32993      2.10888     13.82789         0.016911      0.008591     -0.021566
      8.44058      0.00000     13.83095         0.000002     -0.000003     -0.038098
      6.33044      4.22029      7.50000        -0.000166     -0.000000      0.349634
      0.00000      6.33044      7.50000         0.000005     -0.000097      0.349460
      6.33044      6.33044      9.61015        -0.000572     -0.001332      0.025338
      0.00000      4.22029      9.61015         0.000001     -0.000000      0.027793
      6.32982      4.22029     11.73212        -0.002137     -0.000000      0.010461
      8.44058      6.33049     11.73120        -0.000000      0.001250      0.013576
      6.32993      6.33171     13.82789         0.016909     -0.008592     -0.021562
      8.44058      4.22029     13.82838         0.000001      0.000002     -0.011564
      2.11015      0.00000      9.61015        -0.000885      0.000001      0.052593
      4.22029      2.11015      9.61015        -0.000002      0.001515      0.055129
      2.11015      2.11015      7.50000        -0.000134     -0.000254     -0.517535
      4.22029      0.00000      7.50000        -0.000000     -0.000001     -0.517458
      2.10987      0.00000     13.86973         0.008618     -0.000001      0.106257
      4.22029      2.10838     13.86594        -0.000001      0.019187      0.142241
      2.10960      2.11015     11.72543         0.005197     -0.000782     -0.000804
      4.22029      0.00000     11.72479         0.000002     -0.000000      0.006273
      2.11015      4.22029      9.61015         0.001317     -0.000002      0.054955
      4.22029      6.33044      9.61015         0.000003     -0.001515      0.055126
      2.11015      6.33044      7.50000        -0.000133      0.000253     -0.517534
      4.22029      4.22029      7.50000         0.000001      0.000002     -0.517800
      2.10796      4.22029     13.87113         0.035191     -0.000000      0.110048
      4.22029      6.33221     13.86594        -0.000000     -0.019188      0.142243
      2.10960      6.33043     11.72543         0.005196      0.000778     -0.000804
      4.22029      4.22029     11.72754         0.000002     -0.000002      0.003277
      6.33044      0.00000      9.61015         0.000889      0.000007      0.052593
      0.00000      2.11015      9.61015        -0.000003     -0.000738      0.051837
      6.33044      2.11015      7.50000         0.000130     -0.000251     -0.517535
      0.00000      0.00000      7.50000         0.000001     -0.000001     -0.517308
      6.33071      0.00000     13.86973        -0.008617     -0.000000      0.106256
      8.44058      2.10996     13.86967         0.000000     -0.005576      0.102388
      6.33098      2.11015     11.72543        -0.005196     -0.000782     -0.000804
      8.44058      0.00000     11.72607        -0.000001     -0.000003     -0.005475
      6.33044      4.22029      9.61015        -0.001319      0.000003      0.054955
      0.00000      6.33044      9.61015        -0.000000      0.000743      0.051836
      6.33044      6.33044      7.50000         0.000133      0.000254     -0.517535
      0.00000      4.22029      7.50000        -0.000002      0.000003     -0.517538
      6.33262      4.22029     13.87113        -0.035189     -0.000000      0.110047
      8.44058      6.33062     13.86967        -0.000001      0.005575      0.102387
      6.33098      6.33043     11.72543        -0.005194      0.000778     -0.000807
      8.44058      4.22029     11.72558         0.000000     -0.000001     -0.002281
 -----------------------------------------------------------------------------------
    total drift:                               -0.000001      0.000005      0.010676


--------------------------------------------------------------------------------------------------------



  FREE ENERGIE OF THE ION-ELECTRON SYSTEM (eV)
  ---------------------------------------------------
  free  energy   TOTEN  =      -375.78180132 eV

  energy  without entropy=     -375.78180132  energy(sigma->0) =     -375.78180132



--------------------------------------------------------------------------------------------------------


    POTLOK:  cpu time      0.1615: real time      0.1615


--------------------------------------------------------------------------------------------------------


     LOOP+:  cpu time     65.8203: real time     66.0761
    4ORBIT:  cpu time      0.0000: real time      0.0000

 total amount of memory used by VASP MPI-rank0    60508. kBytes
=======================================================================

   base      :      30000. kBytes
   nonl-proj :      11878. kBytes
   fftplans  :       4923. kBytes
   grid      :       7379. kBytes
   one-center:         64. kBytes
   wavefun   :       6264. kBytes

  
  
 General timing and accounting informations for this job:
 ========================================================
  
                  Total CPU time used (sec):       98.657
                            User time (sec):       97.570
                          System time (sec):        1.087
                         Elapsed time (sec):      108.584
  
                   Maximum memory used (kb):      155444.
                   Average memory used (kb):          N/A
  
                          Minor page faults:        34241
                          Major page faults:            0
                 Voluntary context switches:        12272
