 vasp.6.3.0 20Jan22 (build Aug 21 2024 11:13:42) complex                         
 executed on        HPECrayEX_GCC date 2024.11.26  13:19:01
 running  512 mpi-ranks, with    1 threads/rank
 distrk:  each k-point on  512 cores,    1 groups
 distr:  one band on NCORE=   2 cores,  256 groups


--------------------------------------------------------------------------------------------------------


 INCAR:
   SYSTEM = TiO2
   ISMEAR = 0
   SIGMA = 0.05
   EDIFF = 1E-4
   ALGO = ALL
   ISTART = 0
   IBRION = -1
   NSW = 0
   ISYM = 0
   ISIF = 2
   EDIFFG = -0.01
   DIPOL = 0.5 0.5 0.5
   IDIPOL = 3
   LDIPOL = .TRUE.
   GGA = RE
   AGGAC = 0.0
   LUSE_VDW = .TRUE.
   LASPH = .TRUE.
   ENCUT = 600
   PREC = Accurate
   LASPH = .TRUE.
   LREAL = .FALSE.
   ISPIN = 1
   NELM = 200
   NELMIN = 8
   NCORE = 2
   KPAR = 1
   LWAVE = .FALSE.
   LCHARG = .FALSE.

 POTCAR:    PAW_PBE Ti_pv 07Sep2000               
 POTCAR:    PAW_PBE O 08Apr2002                   
 -----------------------------------------------------------------------------
|                                                                             |
|               ----> ADVICE to this user running VASP <----                  |
|                                                                             |
|     You have switched on vdW-DFT.                                           |
|     This routine was written and supplied by Jiri Klimes. We recommend      |
|     that you carefully read and cite the following publications:            |
|       J. Klimes, D.R. Bowler, A. Michelides                                 |
|          J. Phys.: Cond Matt. 22 022201 (2010)                              |
|       J. Klimes, D.R. Bowler, A. Michelides                                 |
|          Phys. Rev. B. 83, 195131 (2011)                                    |
|     and references therein.                                                 |
|                                                                             |
 -----------------------------------------------------------------------------

 POTCAR:    PAW_PBE Ti_pv 07Sep2000               
   SHA256 =  f757a1b2c6d082f4c628fa3d987464a8763bf92e53844ac0500b0e2ddc9ce5c0 Ti_pv/POTCAR          
   COPYR  = (c) Copyright 07Sep2000 Georg Kresse                                                    
   COPYR  = This file is part of the software VASP. Any use, copying, and all other rights are regul
   COPYR  = If you do not have a valid VASP license, you may not use, copy or distribute this file. 
   VRHFIN =Ti: d3 s1                                                                                
   LEXCH  = PE                                                                                      
   EATOM  =  1042.5995 eV,   76.6289 Ry                                                             
                                                                                                    
   TITEL  = PAW_PBE Ti_pv 07Sep2000                                                                 
   LULTRA =        F    use ultrasoft PP ?                                                          
   IUNSCR =        1    unscreen: 0-lin 1-nonlin 2-no                                               
   RPACOR =    2.200    partial core radius                                                         
   POMASS =   47.880; ZVAL   =   10.000    mass and valenz                                          
   RCORE  =    2.500    outmost cutoff radius                                                       
   RWIGS  =    2.500; RWIGS  =    1.323    wigner-seitz radius (au A)                               
   ENMAX  =  222.335; ENMIN  =  166.751 eV                                                          
   RCLOC  =    1.701    cutoff for local pot                                                        
   LCOR   =        T    correct aug charges                                                         
   LPAW   =        T    paw PP                                                                      
   EAUG   =  482.848                                                                                
   DEXC   =    0.000                                                                                
   RMAX   =    2.564    core radius for proj-oper                                                   
   RAUG   =    1.300    factor for augmentation sphere                                              
   RDEP   =    2.538    radius for radial grids                                                     
   RDEPT  =    1.952    core radius for aug-charge                                                  
                                                                                                    
   Atomic configuration                                                                             
    8 entries                                                                                       
     n  l   j            E        occ.                                                              
     1  0  0.50     -4865.3608   2.0000                                                             
     2  0  0.50      -533.1368   2.0000                                                             
     2  1  1.50      -440.5031   6.0000                                                             
     3  0  0.50       -59.3186   2.0000                                                             
     3  1  1.50       -35.7012   6.0000                                                             
     3  2  2.50        -1.9157   3.0000                                                             
     4  0  0.50        -3.7291   1.0000                                                             
     4  3  2.50        -1.3606   0.0000                                                             
   Description                                                                                      
     l       E           TYP  RCUT    TYP  RCUT                                                     
     1    -35.7012140     23  2.300                                                                 
     1     -1.3605826     23  2.300                                                                 
     2     -1.9156996     23  2.500                                                                 
     2     -0.4063033     23  2.500                                                                 
     0     -3.7290856     23  2.500                                                                 
     0     20.4087390     23  2.500                                                                 
  local pseudopotential read in
  partial core-charges read in
  partial kinetic energy density read in
  atomic valenz-charges read in
  non local Contribution for L=           1  read in
    real space projection operators read in
  non local Contribution for L=           1  read in
    real space projection operators read in
  non local Contribution for L=           2  read in
    real space projection operators read in
  non local Contribution for L=           2  read in
    real space projection operators read in
  non local Contribution for L=           0  read in
    real space projection operators read in
  non local Contribution for L=           0  read in
    real space projection operators read in
    PAW grid and wavefunctions read in

   number of l-projection  operators is LMAX  =           6
   number of lm-projection operators is LMMAX =          18

 POTCAR:    PAW_PBE O 08Apr2002                   
   SHA256 =  818f92134a0a090dccd8ba1447fa70422a3b330e708bb4f08108d8ae51209ddf O/POTCAR              
   COPYR  = (c) Copyright 08Apr2002 Georg Kresse                                                    
   COPYR  = This file is part of the software VASP. Any use, copying, and all other rights are regul
   COPYR  = If you do not have a valid VASP license, you may not use, copy or distribute this file. 
   VRHFIN =O: s2p4                                                                                  
   LEXCH  = PE                                                                                      
   EATOM  =   432.3788 eV,   31.7789 Ry                                                             
                                                                                                    
   TITEL  = PAW_PBE O 08Apr2002                                                                     
   LULTRA =        F    use ultrasoft PP ?                                                          
   IUNSCR =        1    unscreen: 0-lin 1-nonlin 2-no                                               
   RPACOR =    1.200    partial core radius                                                         
   POMASS =   16.000; ZVAL   =    6.000    mass and valenz                                          
   RCORE  =    1.520    outmost cutoff radius                                                       
   RWIGS  =    1.550; RWIGS  =    0.820    wigner-seitz radius (au A)                               
   ENMAX  =  400.000; ENMIN  =  300.000 eV                                                          
   ICORE  =        2    local potential                                                             
   LCOR   =        T    correct aug charges                                                         
   LPAW   =        T    paw PP                                                                      
   EAUG   =  605.392                                                                                
   DEXC   =    0.000                                                                                
   RMAX   =    1.553    core radius for proj-oper                                                   
   RAUG   =    1.300    factor for augmentation sphere                                              
   RDEP   =    1.550    radius for radial grids                                                     
   RDEPT  =    1.329    core radius for aug-charge                                                  
                                                                                                    
   Atomic configuration                                                                             
    4 entries                                                                                       
     n  l   j            E        occ.                                                              
     1  0  0.50      -514.6923   2.0000                                                             
     2  0  0.50       -23.9615   2.0000                                                             
     2  1  0.50        -9.0305   4.0000                                                             
     3  2  1.50        -9.5241   0.0000                                                             
   Description                                                                                      
     l       E           TYP  RCUT    TYP  RCUT                                                     
     0    -23.9615318     23  1.200                                                                 
     0     -9.5240782     23  1.200                                                                 
     1     -9.0304911     23  1.520                                                                 
     1      8.1634956     23  1.520                                                                 
     2     -9.5240782      7  1.500                                                                 
  local pseudopotential read in
  partial core-charges read in
  partial kinetic energy density read in
  kinetic energy density of atom read in
  atomic valenz-charges read in
  non local Contribution for L=           0  read in
    real space projection operators read in
  non local Contribution for L=           0  read in
    real space projection operators read in
  non local Contribution for L=           1  read in
    real space projection operators read in
  non local Contribution for L=           1  read in
    real space projection operators read in
    PAW grid and wavefunctions read in

   number of l-projection  operators is LMAX  =           4
   number of lm-projection operators is LMMAX =           8

 -----------------------------------------------------------------------------
|                                                                             |
|               ----> ADVICE to this user running VASP <----                  |
|                                                                             |
|     You have a (more or less) 'large supercell' and for larger cells it     |
|     might be more efficient to use real-space projection operators.         |
|     Therefore, try LREAL= Auto in the INCAR file.                           |
|     Mind: For very accurate calculation, you might also keep the            |
|     reciprocal projection scheme (i.e. LREAL=.FALSE.).                      |
|                                                                             |
 -----------------------------------------------------------------------------

 -----------------------------------------------------------------------------
|                                                                             |
|               ----> ADVICE to this user running VASP <----                  |
|                                                                             |
|     You enforced a specific xc type in the INCAR file but a different       |
|     type was found in the POTCAR file.                                      |
|     I HOPE YOU KNOW WHAT YOU ARE DOING!                                     |
|                                                                             |
 -----------------------------------------------------------------------------

  PAW_PBE Ti_pv 07Sep2000               :
 energy of atom  1       EATOM=-1042.5995
 kinetic energy error for atom=    0.0007 (will be added to EATOM!!)
  PAW_PBE O 08Apr2002                   :
 energy of atom  2       EATOM= -432.3788
 kinetic energy error for atom=    0.0168 (will be added to EATOM!!)


 POSCAR: Ti  O
  positions in direct lattice
  No initial velocities read in
 exchange correlation table for  LEXCH =       40
   RHO(1)=    0.500       N(1)  =     2000
   RHO(2)=  100.500       N(2)  =     4000



--------------------------------------------------------------------------------------------------------


 ion  position               nearest neighbor table
   1  0.750  0.625  0.287-  81 1.96  82 1.96 141 1.96 142 1.96  84 1.98 163 1.98  11 2.97  31 2.97

   2  0.000  0.750  0.287-  83 1.96  84 1.96 103 1.96 104 1.96  85 1.98  32 2.97  12 2.97
   3  0.000  0.625  0.393-  85 1.96  86 1.96 145 1.96 146 1.96  87 1.98  88 1.98  13 2.97  33 2.97

   4  0.750  0.750  0.393-  87 1.96 107 1.96 168 1.96 188 1.96  89 1.98  82 1.98  14 2.97  34 2.97

   5  0.750  0.625  0.500-  89 1.96  90 1.96 149 1.96 150 1.96  92 1.98 171 1.98  15 2.97  35 2.97

   6  0.000  0.750  0.500-  91 1.96  92 1.96 111 1.96 112 1.96  86 1.98  93 2.01  16 2.97  36 2.97

   7  0.000  0.625  0.604-  93 1.90 153 1.90  96 1.96  95 1.96 154 2.02  94 2.02  17 2.97  37 2.97

   8  0.750  0.750  0.611-  97 1.87 115 1.98 196 1.98  95 1.98 176 1.98  90 2.11  18 2.97  38 2.97

   9  0.750  0.626  0.720-  98 1.83 158 1.84 100 2.04 179 2.04  97 2.10 157 2.10  19 2.97  39 2.97

  10  1.000  0.750  0.709-  94 1.81 120 1.95 119 1.95 100 1.95  99 1.95  20 2.97  40 2.97
  11  0.750  0.875  0.287-  81 1.96  82 1.96 101 1.96 102 1.96 104 1.98 183 1.98   1 2.97  21 2.97

  12  0.000  0.000  0.287- 103 1.96 104 1.96 123 1.96 124 1.96 105 1.98  22 2.97   2 2.97
  13  0.000  0.875  0.393-  85 1.96  86 1.96 105 1.96 106 1.96 107 1.98 108 1.98   3 2.97  23 2.97

  14  0.750  0.000  0.393- 107 1.96 127 1.96 188 1.96 208 1.96 109 1.98 102 1.98   4 2.97  24 2.97

  15  0.750  0.875  0.500-  89 1.96  90 1.96 109 1.96 110 1.96 112 1.98 191 1.98   5 2.97  25 2.97

  16  0.000  0.000  0.500- 111 1.96 112 1.96 131 1.96 132 1.96 106 1.98 113 2.01   6 2.97  26 2.97

  17  0.000  0.875  0.604- 113 1.90  93 1.90 116 1.96 115 1.96  94 2.02 114 2.02  27 2.97   7 2.97

  18  0.750  0.000  0.611- 117 1.87 216 1.98 135 1.98 196 1.98 115 1.98 110 2.11  28 2.97   8 2.97

  19  0.750  0.876  0.721- 118 1.83  98 1.84 199 2.03 120 2.04 117 2.10  97 2.11   9 2.97  29 2.97

  20  1.000  0.000  0.709- 114 1.81 120 1.95 119 1.95 140 1.95 139 1.95  10 2.97  30 2.97
  21  0.750  0.125  0.287- 101 1.96 102 1.96 121 1.96 122 1.96 124 1.98 203 1.98  11 2.97  31 2.97

  22  0.000  0.250  0.287- 123 1.96 124 1.96 143 1.96 144 1.96 125 1.98  32 2.97  12 2.97
  23  0.000  0.125  0.393- 105 1.96 106 1.96 125 1.96 126 1.96 127 1.98 128 1.98  13 2.97  33 2.97

  24  0.750  0.250  0.393- 127 1.96 147 1.96 208 1.96 228 1.96 129 1.98 122 1.98  14 2.97  34 2.97

  25  0.750  0.125  0.500- 109 1.96 110 1.96 129 1.96 130 1.96 132 1.98 211 1.98  15 2.97  35 2.97

  26  0.000  0.250  0.500- 131 1.96 132 1.96 151 1.96 152 1.96 126 1.98 133 2.01  16 2.97  36 2.97

  27  0.000  0.125  0.604- 113 1.90 133 1.90 136 1.96 135 1.96 114 2.02 134 2.02  17 2.97  37 2.97

  28  0.750  0.250  0.611- 137 1.87 155 1.98 236 1.98 135 1.98 216 1.98 130 2.11  18 2.97  38 2.97

  29  0.750  0.126  0.721- 138 1.83 118 1.84 219 2.04 140 2.04 137 2.10 117 2.11  19 2.97  39 2.97

  30  1.000  0.250  0.709- 134 1.81 140 1.95 139 1.95 160 1.95 159 1.95  20 2.97  40 2.97
  31  0.750  0.375  0.287- 121 1.96 122 1.96 141 1.96 142 1.96 144 1.98 223 1.98   1 2.97  21 2.97

  32  0.000  0.500  0.287-  83 1.96  84 1.96 143 1.96 144 1.96 145 1.98  22 2.97   2 2.97
  33  0.000  0.375  0.393- 125 1.96 126 1.96 145 1.96 146 1.96 147 1.98 148 1.98   3 2.97  23 2.97

  34  0.750  0.500  0.393-  87 1.96 147 1.96 168 1.96 228 1.96 142 1.98 149 1.98   4 2.97  24 2.97

  35  0.750  0.375  0.500- 129 1.96 130 1.96 149 1.96 150 1.96 152 1.98 231 1.98   5 2.97  25 2.97

  36  0.000  0.500  0.500-  91 1.96  92 1.96 151 1.96 152 1.96 146 1.98 153 2.01   6 2.97  26 2.97

  37  0.000  0.375  0.604- 153 1.90 133 1.90 156 1.96 155 1.96 134 2.02 154 2.02  27 2.97   7 2.97

  38  0.750  0.500  0.611- 157 1.87 176 1.98 236 1.98  95 1.98 155 1.98 150 2.11  28 2.97   8 2.97

  39  0.750  0.376  0.720- 158 1.84 138 1.84 160 2.04 239 2.04 157 2.10 137 2.11  29 2.97   9 2.97

  40  1.000  0.500  0.709- 154 1.81 160 1.95 159 1.95 100 1.95  99 1.95  10 2.97  30 2.97
  41  0.250  0.625  0.287- 161 1.96 162 1.96 221 1.96 222 1.96  83 1.98 164 1.98  51 2.97  71 2.97

  42  0.500  0.750  0.287- 163 1.96 164 1.96 183 1.96 184 1.96 165 1.98  72 2.97  52 2.97
  43  0.500  0.625  0.393- 165 1.96 166 1.96 225 1.96 226 1.96 167 1.98 168 1.98  53 2.97  73 2.97

  44  0.250  0.750  0.393-  88 1.96 108 1.96 167 1.96 187 1.96 169 1.98 162 1.98  54 2.97  74 2.97

  45  0.250  0.625  0.500- 169 1.96 170 1.96 229 1.96 230 1.96  91 1.98 172 1.98  55 2.97  75 2.97

  46  0.500  0.750  0.500- 171 1.96 172 1.96 191 1.96 192 1.96 166 1.98 173 2.01  56 2.97  76 2.97

  47  0.500  0.625  0.605- 233 1.90 173 1.91 176 1.96 175 1.96 174 2.02 234 2.02  77 2.96  57 2.97

  48  0.250  0.750  0.611- 177 1.87 195 1.98 175 1.98 116 1.98  96 1.98 170 2.11  58 2.97  78 2.97

  49  0.250  0.626  0.720- 178 1.83 238 1.84  99 2.04 180 2.04 177 2.10 237 2.10  59 2.97  79 2.97

  50  0.500  0.751  0.708- 174 1.81 180 1.95 179 1.95 200 1.95 199 1.95  60 2.96  80 2.99
  51  0.250  0.875  0.287- 161 1.96 162 1.96 181 1.96 182 1.96 103 1.98 184 1.98  41 2.97  61 2.97

  52  0.500  0.000  0.287- 183 1.96 184 1.96 203 1.96 204 1.96 185 1.98  62 2.97  42 2.97
  53  0.500  0.875  0.393- 165 1.96 166 1.96 185 1.96 186 1.96 187 1.98 188 1.98  43 2.97  63 2.97

  54  0.250  0.000  0.393- 108 1.96 128 1.96 187 1.96 207 1.96 189 1.98 182 1.98  44 2.97  64 2.97

  55  0.250  0.875  0.500- 169 1.96 170 1.96 189 1.96 190 1.96 111 1.98 192 1.98  45 2.97  65 2.97

  56  0.500  0.000  0.500- 191 1.96 192 1.96 211 1.96 212 1.96 186 1.98 193 2.00  46 2.97  66 2.97

  57  0.500  0.875  0.604- 173 1.90 193 1.90 196 1.96 195 1.96 174 2.02 194 2.03  47 2.97  67 2.97

  58  0.250  0.000  0.611- 197 1.87 215 1.98 195 1.98 136 1.98 116 1.98 190 2.11  68 2.97  48 2.97

  59  0.250  0.876  0.721- 198 1.83 178 1.84 200 2.03 119 2.04 197 2.10 177 2.11  49 2.97  69 2.97

  60  0.500  0.000  0.708- 194 1.81 200 1.95 199 1.95 220 1.95 219 1.95  50 2.96  70 2.97
  61  0.250  0.125  0.287- 181 1.96 182 1.96 201 1.96 202 1.96 123 1.98 204 1.98  51 2.97  71 2.97

  62  0.500  0.250  0.287- 203 1.96 204 1.96 223 1.96 224 1.96 205 1.98  72 2.97  52 2.97
  63  0.500  0.125  0.393- 185 1.96 186 1.96 205 1.96 206 1.96 207 1.98 208 1.98  53 2.97  73 2.97

  64  0.250  0.250  0.393- 128 1.96 148 1.96 207 1.96 227 1.96 209 1.98 202 1.98  54 2.97  74 2.97

  65  0.250  0.125  0.500- 189 1.96 190 1.96 209 1.96 210 1.96 131 1.98 212 1.98  55 2.97  75 2.97

  66  0.500  0.250  0.500- 211 1.96 212 1.96 231 1.96 232 1.96 206 1.98 213 2.01  56 2.97  76 2.97

  67  0.500  0.125  0.604- 213 1.90 193 1.90 216 1.96 215 1.96 214 2.02 194 2.02  77 2.97  57 2.97

  68  0.250  0.250  0.611- 217 1.87 235 1.98 215 1.98 156 1.98 136 1.98 210 2.11  58 2.97  78 2.97

  69  0.250  0.126  0.721- 218 1.83 198 1.84 220 2.04 139 2.04 217 2.10 197 2.11  59 2.97  79 2.97

  70  0.500  0.250  0.708- 214 1.81 240 1.95 239 1.95 220 1.95 219 1.95  80 2.96  60 2.97
  71  0.250  0.375  0.287- 201 1.96 202 1.96 221 1.96 222 1.96 143 1.98 224 1.98  41 2.97  61 2.97

  72  0.500  0.500  0.287- 163 1.96 164 1.96 223 1.96 224 1.96 225 1.98  62 2.97  42 2.97
  73  0.500  0.375  0.393- 205 1.96 206 1.96 225 1.96 226 1.96 227 1.98 228 1.98  43 2.97  63 2.97

  74  0.250  0.500  0.393-  88 1.96 148 1.96 167 1.96 227 1.96 222 1.98 229 1.98  44 2.97  64 2.97

  75  0.250  0.375  0.500- 209 1.96 210 1.96 229 1.96 230 1.96 151 1.98 232 1.98  45 2.97  65 2.97

  76  0.500  0.500  0.500- 171 1.96 172 1.96 231 1.96 232 1.96 226 1.98 233 2.01  46 2.97  66 2.97

  77  0.500  0.376  0.605- 233 1.90 213 1.91 236 1.96 235 1.96 214 2.02 234 2.02  47 2.96  67 2.97

  78  0.250  0.500  0.611- 237 1.87 175 1.98 235 1.98  96 1.98 156 1.98 230 2.11  68 2.97  48 2.97

  79  0.250  0.376  0.720- 238 1.84 218 1.84 159 2.04 240 2.04 237 2.10 217 2.11  69 2.97  49 2.97

  80  0.500  0.499  0.710- 234 1.83 240 1.95 239 1.95 180 1.96 179 1.96  70 2.96  50 2.99
  81  0.750  0.750  0.245-   1 1.96  11 1.96
  82  0.750  0.750  0.329-   1 1.96  11 1.96   4 1.98
  83  0.098  0.625  0.287-   2 1.96  32 1.96  41 1.98
  84  0.902  0.625  0.287-   2 1.96  32 1.96   1 1.98
  85  0.000  0.750  0.352-   3 1.96  13 1.96   2 1.98
  86  0.000  0.750  0.435-   3 1.96  13 1.96   6 1.98
  87  0.848  0.625  0.393-   4 1.96  34 1.96   3 1.98
  88  0.152  0.625  0.393-  44 1.96  74 1.96   3 1.98
  89  0.750  0.750  0.458-   5 1.96  15 1.96   4 1.98
  90  0.750  0.750  0.542-   5 1.96  15 1.96   8 2.11
  91  0.098  0.625  0.500-   6 1.96  36 1.96  45 1.98
  92  0.902  0.625  0.500-   6 1.96  36 1.96   5 1.98
  93  1.000  0.750  0.566-   7 1.90  17 1.90   6 2.01
  94  1.000  0.750  0.649-  10 1.81  17 2.02   7 2.02
  95  0.850  0.625  0.607-   7 1.96   8 1.98  38 1.98
  96  0.150  0.625  0.607-   7 1.96  78 1.98  48 1.98
  97  0.750  0.750  0.672-   8 1.87   9 2.10  19 2.11
  98  0.750  0.750  0.756-   9 1.83  19 1.84
  99  0.094  0.625  0.719-  40 1.95  10 1.95  49 2.04
 100  0.906  0.625  0.719-  40 1.95  10 1.95   9 2.04
 101  0.750  0.000  0.245-  11 1.96  21 1.96
 102  0.750  0.000  0.329-  11 1.96  21 1.96  14 1.98
 103  0.098  0.875  0.287-   2 1.96  12 1.96  51 1.98
 104  0.902  0.875  0.287-   2 1.96  12 1.96  11 1.98
 105  0.000  0.000  0.352-  13 1.96  23 1.96  12 1.98
 106  0.000  0.000  0.435-  13 1.96  23 1.96  16 1.98
 107  0.848  0.875  0.393-   4 1.96  14 1.96  13 1.98
 108  0.152  0.875  0.393-  44 1.96  54 1.96  13 1.98
 109  0.750  0.000  0.458-  15 1.96  25 1.96  14 1.98
 110  0.750  0.000  0.542-  15 1.96  25 1.96  18 2.11
 111  0.098  0.875  0.500-   6 1.96  16 1.96  55 1.98
 112  0.902  0.875  0.500-   6 1.96  16 1.96  15 1.98
 113  1.000  0.000  0.566-  17 1.90  27 1.90  16 2.01
 114  1.000  0.000  0.649-  20 1.81  27 2.02  17 2.02
 115  0.850  0.875  0.607-  17 1.96   8 1.98  18 1.98
 116  0.150  0.875  0.607-  17 1.96  48 1.98  58 1.98
 117  0.750  0.000  0.672-  18 1.87  19 2.10  29 2.11
 118  0.750  0.000  0.756-  19 1.83  29 1.84
 119  0.094  0.875  0.719-  10 1.95  20 1.95  59 2.04
 120  0.906  0.875  0.719-  10 1.95  20 1.95  19 2.04
 121  0.750  0.250  0.245-  21 1.96  31 1.96
 122  0.750  0.250  0.329-  21 1.96  31 1.96  24 1.98
 123  0.098  0.125  0.287-  12 1.96  22 1.96  61 1.98
 124  0.902  0.125  0.287-  12 1.96  22 1.96  21 1.98
 125  0.000  0.250  0.352-  23 1.96  33 1.96  22 1.98
 126  0.000  0.250  0.435-  23 1.96  33 1.96  26 1.98
 127  0.848  0.125  0.393-  14 1.96  24 1.96  23 1.98
 128  0.152  0.125  0.393-  54 1.96  64 1.96  23 1.98
 129  0.750  0.250  0.458-  25 1.96  35 1.96  24 1.98
 130  0.750  0.250  0.542-  25 1.96  35 1.96  28 2.11
 131  0.098  0.125  0.500-  16 1.96  26 1.96  65 1.98
 132  0.902  0.125  0.500-  16 1.96  26 1.96  25 1.98
 133  1.000  0.250  0.566-  37 1.90  27 1.90  26 2.01
 134  1.000  0.250  0.649-  30 1.81  37 2.02  27 2.02
 135  0.850  0.125  0.607-  27 1.96  18 1.98  28 1.98
 136  0.150  0.125  0.607-  27 1.96  58 1.98  68 1.98
 137  0.751  0.250  0.672-  28 1.87  29 2.10  39 2.11
 138  0.750  0.251  0.756-  29 1.83  39 1.84
 139  0.094  0.125  0.719-  30 1.95  20 1.95  69 2.04
 140  0.906  0.125  0.719-  30 1.95  20 1.95  29 2.04
 141  0.750  0.500  0.245-   1 1.96  31 1.96
 142  0.750  0.500  0.329-   1 1.96  31 1.96  34 1.98
 143  0.098  0.375  0.287-  22 1.96  32 1.96  71 1.98
 144  0.902  0.375  0.287-  22 1.96  32 1.96  31 1.98
 145  0.000  0.500  0.352-   3 1.96  33 1.96  32 1.98
 146  0.000  0.500  0.435-   3 1.96  33 1.96  36 1.98
 147  0.848  0.375  0.393-  24 1.96  34 1.96  33 1.98
 148  0.152  0.375  0.393-  64 1.96  74 1.96  33 1.98
 149  0.750  0.500  0.458-   5 1.96  35 1.96  34 1.98
 150  0.750  0.500  0.542-   5 1.96  35 1.96  38 2.11
 151  0.098  0.375  0.500-  26 1.96  36 1.96  75 1.98
 152  0.902  0.375  0.500-  26 1.96  36 1.96  35 1.98
 153  1.000  0.500  0.566-  37 1.90   7 1.90  36 2.01
 154  1.000  0.500  0.649-  40 1.81   7 2.02  37 2.02
 155  0.850  0.375  0.607-  37 1.96  28 1.98  38 1.98
 156  0.150  0.375  0.607-  37 1.96  68 1.98  78 1.98
 157  0.751  0.500  0.672-  38 1.87  39 2.10   9 2.10
 158  0.749  0.501  0.756-  39 1.84   9 1.84
 159  0.094  0.375  0.719-  40 1.95  30 1.95  79 2.04
 160  0.906  0.375  0.719-  40 1.95  30 1.95  39 2.04
 161  0.250  0.750  0.245-  41 1.96  51 1.96
 162  0.250  0.750  0.329-  41 1.96  51 1.96  44 1.98
 163  0.598  0.625  0.287-  42 1.96  72 1.96   1 1.98
 164  0.402  0.625  0.287-  42 1.96  72 1.96  41 1.98
 165  0.500  0.750  0.352-  43 1.96  53 1.96  42 1.98
 166  0.500  0.750  0.435-  43 1.96  53 1.96  46 1.98
 167  0.348  0.625  0.393-  44 1.96  74 1.96  43 1.98
 168  0.652  0.625  0.393-   4 1.96  34 1.96  43 1.98
 169  0.250  0.750  0.458-  45 1.96  55 1.96  44 1.98
 170  0.250  0.750  0.542-  45 1.96  55 1.96  48 2.11
 171  0.598  0.625  0.500-  46 1.96  76 1.96   5 1.98
 172  0.402  0.625  0.500-  46 1.96  76 1.96  45 1.98
 173  0.500  0.750  0.566-  57 1.90  47 1.91  46 2.01
 174  0.500  0.751  0.649-  50 1.81  57 2.02  47 2.02
 175  0.350  0.625  0.607-  47 1.96  78 1.98  48 1.98
 176  0.650  0.625  0.607-  47 1.96  38 1.98   8 1.98
 177  0.250  0.750  0.672-  48 1.87  49 2.10  59 2.11
 178  0.250  0.750  0.756-  49 1.83  59 1.84
 179  0.594  0.626  0.719-  50 1.95  80 1.96   9 2.04
 180  0.406  0.626  0.719-  50 1.95  80 1.96  49 2.04
 181  0.250  0.000  0.245-  51 1.96  61 1.96
 182  0.250  0.000  0.329-  51 1.96  61 1.96  54 1.98
 183  0.598  0.875  0.287-  42 1.96  52 1.96  11 1.98
 184  0.402  0.875  0.287-  42 1.96  52 1.96  51 1.98
 185  0.500  0.000  0.352-  53 1.96  63 1.96  52 1.98
 186  0.500  0.000  0.435-  53 1.96  63 1.96  56 1.98
 187  0.348  0.875  0.393-  44 1.96  54 1.96  53 1.98
 188  0.652  0.875  0.393-   4 1.96  14 1.96  53 1.98
 189  0.250  0.000  0.458-  55 1.96  65 1.96  54 1.98
 190  0.250  0.000  0.542-  55 1.96  65 1.96  58 2.11
 191  0.598  0.875  0.500-  46 1.96  56 1.96  15 1.98
 192  0.402  0.875  0.500-  46 1.96  56 1.96  55 1.98
 193  0.500  0.000  0.565-  57 1.90  67 1.90  56 2.00
 194  0.500  0.000  0.649-  60 1.81  67 2.02  57 2.03
 195  0.350  0.875  0.607-  57 1.96  48 1.98  58 1.98
 196  0.650  0.875  0.607-  57 1.96   8 1.98  18 1.98
 197  0.250  0.000  0.672-  58 1.87  59 2.10  69 2.11
 198  0.250  0.000  0.756-  59 1.83  69 1.84
 199  0.594  0.876  0.719-  60 1.95  50 1.95  19 2.03
 200  0.406  0.876  0.719-  60 1.95  50 1.95  59 2.03
 201  0.250  0.250  0.245-  61 1.96  71 1.96
 202  0.250  0.250  0.329-  61 1.96  71 1.96  64 1.98
 203  0.598  0.125  0.287-  52 1.96  62 1.96  21 1.98
 204  0.402  0.125  0.287-  52 1.96  62 1.96  61 1.98
 205  0.500  0.250  0.352-  63 1.96  73 1.96  62 1.98
 206  0.500  0.250  0.435-  63 1.96  73 1.96  66 1.98
 207  0.348  0.125  0.393-  54 1.96  64 1.96  63 1.98
 208  0.652  0.125  0.393-  14 1.96  24 1.96  63 1.98
 209  0.250  0.250  0.458-  65 1.96  75 1.96  64 1.98
 210  0.250  0.250  0.542-  65 1.96  75 1.96  68 2.11
 211  0.598  0.125  0.500-  56 1.96  66 1.96  25 1.98
 212  0.402  0.125  0.500-  56 1.96  66 1.96  65 1.98
 213  0.500  0.251  0.566-  67 1.90  77 1.91  66 2.01
 214  0.500  0.250  0.649-  70 1.81  67 2.02  77 2.02
 215  0.350  0.125  0.607-  67 1.96  58 1.98  68 1.98
 216  0.650  0.125  0.607-  67 1.96  18 1.98  28 1.98
 217  0.249  0.250  0.672-  68 1.87  69 2.10  79 2.11
 218  0.250  0.251  0.756-  69 1.83  79 1.84
 219  0.594  0.125  0.719-  60 1.95  70 1.95  29 2.04
 220  0.406  0.125  0.719-  60 1.95  70 1.95  69 2.04
 221  0.250  0.500  0.245-  41 1.96  71 1.96
 222  0.250  0.500  0.329-  41 1.96  71 1.96  74 1.98
 223  0.598  0.375  0.287-  62 1.96  72 1.96  31 1.98
 224  0.402  0.375  0.287-  62 1.96  72 1.96  71 1.98
 225  0.500  0.500  0.352-  43 1.96  73 1.96  72 1.98
 226  0.500  0.500  0.435-  43 1.96  73 1.96  76 1.98
 227  0.348  0.375  0.393-  64 1.96  74 1.96  73 1.98
 228  0.652  0.375  0.393-  24 1.96  34 1.96  73 1.98
 229  0.250  0.500  0.458-  45 1.96  75 1.96  74 1.98
 230  0.250  0.500  0.542-  45 1.96  75 1.96  78 2.11
 231  0.598  0.375  0.500-  66 1.96  76 1.96  35 1.98
 232  0.402  0.375  0.500-  66 1.96  76 1.96  75 1.98
 233  0.500  0.500  0.566-  77 1.90  47 1.90  76 2.01
 234  0.500  0.500  0.650-  80 1.83  47 2.02  77 2.02
 235  0.350  0.375  0.607-  77 1.96  78 1.98  68 1.98
 236  0.650  0.375  0.607-  77 1.96  38 1.98  28 1.98
 237  0.249  0.500  0.672-  78 1.87  79 2.10  49 2.10
 238  0.251  0.501  0.756-  79 1.84  49 1.84
 239  0.594  0.374  0.718-  70 1.95  80 1.95  39 2.04
 240  0.406  0.374  0.718-  70 1.95  80 1.95  79 2.04


IMPORTANT INFORMATION: All symmetrisations will be switched off!
NOSYMM: (Re-)initialisation of all symmetry stuff for point group C_1.


----------------------------------------------------------------------------------------

                                     Primitive cell                                     

  volume of cell :    4740.1649

  direct lattice vectors                    reciprocal lattice vectors
    13.042933829  0.000000000  0.000000000     0.076669867  0.000000000  0.000000000
     0.000000000 11.878216733  0.000000000     0.000000000  0.084187721  0.000000000
     0.000000000  0.000000000 30.596159140     0.000000000  0.000000000  0.032683841

  length of vectors
    13.042933829 11.878216733 30.596159140     0.076669867  0.084187721  0.032683841

  position of ions in fractional coordinates (direct lattice)
     0.750000000  0.625000000  0.286853412
     0.000000000  0.750000000  0.286853412
     0.000000000  0.625000000  0.393426706
     0.750000000  0.750000000  0.393426706
     0.750000000  0.625000000  0.500000000
     0.000000000  0.750000000  0.500000000
     0.000043924  0.625178631  0.604449050
     0.750075519  0.750224533  0.610697483
     0.750209880  0.625748007  0.720239460
     0.999996712  0.750451044  0.708594158
     0.750000000  0.875000000  0.286853412
     0.000000000  0.000000000  0.286853412
     0.000000000  0.875000000  0.393426706
     0.750000000  0.000000000  0.393426706
     0.750000000  0.875000000  0.500000000
     0.000000000  0.000000000  0.500000000
     0.000047150  0.875170496  0.604476035
     0.749996417  0.000206366  0.610780742
     0.749852630  0.875624897  0.720539469
     0.999996694  0.000319484  0.708622103
     0.750000000  0.125000000  0.286853412
     0.000000000  0.250000000  0.286853412
     0.000000000  0.125000000  0.393426706
     0.750000000  0.250000000  0.393426706
     0.750000000  0.125000000  0.500000000
     0.000000000  0.250000000  0.500000000
     0.000041024  0.125126742  0.604477991
     0.750091615  0.250170038  0.610771117
     0.749929091  0.125567196  0.720501838
     0.999996880  0.250246741  0.708607641
     0.750000000  0.375000000  0.286853412
     0.000000000  0.500000000  0.286853412
     0.000000000  0.375000000  0.393426706
     0.750000000  0.500000000  0.393426706
     0.750000000  0.375000000  0.500000000
     0.000000000  0.500000000  0.500000000
     0.000038565  0.375141681  0.604451020
     0.750069191  0.500193752  0.610727252
     0.750227616  0.375588714  0.720439397
     0.999996845  0.500389543  0.708577440
     0.250000000  0.625000000  0.286853412
     0.500000000  0.750000000  0.286853412
     0.500000000  0.625000000  0.393426706
     0.250000000  0.750000000  0.393426706
     0.250000000  0.625000000  0.500000000
     0.500000000  0.750000000  0.500000000
     0.500044663  0.624598327  0.604803382
     0.249999430  0.750224147  0.610697510
     0.249783596  0.625747933  0.720239461
     0.499996553  0.750721495  0.708204858
     0.250000000  0.875000000  0.286853412
     0.500000000  0.000000000  0.286853412
     0.500000000  0.875000000  0.393426706
     0.250000000  0.000000000  0.393426706
     0.250000000  0.875000000  0.500000000
     0.500000000  0.000000000  0.500000000
     0.500047216  0.874928350  0.604182258
     0.250074327  0.000206546  0.610780694
     0.250140591  0.875624922  0.720539408
     0.499996767  0.000289770  0.708331140
     0.250000000  0.125000000  0.286853412
     0.500000000  0.250000000  0.286853412
     0.500000000  0.125000000  0.393426706
     0.250000000  0.250000000  0.393426706
     0.250000000  0.125000000  0.500000000
     0.500000000  0.250000000  0.500000000
     0.500042022  0.125357176  0.604220168
     0.249967326  0.250169707  0.610771131
     0.250064439  0.125567118  0.720501803
     0.499996747  0.249923258  0.708321230
     0.250000000  0.375000000  0.286853412
     0.500000000  0.500000000  0.286853412
     0.500000000  0.375000000  0.393426706
     0.250000000  0.500000000  0.393426706
     0.250000000  0.375000000  0.500000000
     0.500000000  0.500000000  0.500000000
     0.500038564  0.375576198  0.604863046
     0.249993660  0.500193730  0.610727310
     0.249766167  0.375588615  0.720439344
     0.499996962  0.499338122  0.709678267
     0.750000000  0.750000000  0.245128807
     0.750000000  0.750000000  0.328578017
     0.097877722  0.625000000  0.286853412
     0.902122278  0.625000000  0.286853412
     0.000000000  0.750000000  0.351702101
     0.000000000  0.750000000  0.435151311
     0.847877722  0.625000000  0.393426706
     0.152122278  0.625000000  0.393426706
     0.750000000  0.750000000  0.458275395
     0.750000000  0.750000000  0.541724605
     0.097877722  0.625000000  0.500000000
     0.902122278  0.625000000  0.500000000
     0.999993566  0.750193097  0.565584780
     0.999994178  0.750200396  0.649333473
     0.850117546  0.625204979  0.607178149
     0.149862868  0.625205049  0.607175972
     0.750380072  0.750281038  0.671713079
     0.749646077  0.750243163  0.755743610
     0.093743892  0.625361313  0.719413901
     0.906250182  0.625361364  0.719413947
     0.750000000  0.000000000  0.245128807
     0.750000000  0.000000000  0.328578017
     0.097877722  0.875000000  0.286853412
     0.902122278  0.875000000  0.286853412
     0.000000000  0.000000000  0.351702101
     0.000000000  0.000000000  0.435151311
     0.847877722  0.875000000  0.393426706
     0.152122278  0.875000000  0.393426706
     0.750000000  0.000000000  0.458275395
     0.750000000  0.000000000  0.541724605
     0.097877722  0.875000000  0.500000000
     0.902122278  0.875000000  0.500000000
     0.999993543  0.000145070  0.565591844
     0.999994166  0.000209033  0.649356104
     0.850091080  0.875181358  0.607233842
     0.149888926  0.875181291  0.607231541
     0.750178171  0.000166588  0.671773263
     0.750129247  0.000430955  0.755783373
     0.093776027  0.875321752  0.719365785
     0.906218017  0.875321722  0.719365820
     0.750000000  0.250000000  0.245128807
     0.750000000  0.250000000  0.328578017
     0.097877722  0.125000000  0.286853412
     0.902122278  0.125000000  0.286853412
     0.000000000  0.250000000  0.351702101
     0.000000000  0.250000000  0.435151311
     0.847877722  0.125000000  0.393426706
     0.152122278  0.125000000  0.393426706
     0.750000000  0.250000000  0.458275395
     0.750000000  0.250000000  0.541724605
     0.097877722  0.125000000  0.500000000
     0.902122278  0.125000000  0.500000000
     0.999993533  0.250115469  0.565593041
     0.999994198  0.250235532  0.649349096
     0.850102424  0.125087229  0.607234307
     0.149878358  0.125087059  0.607232188
     0.750582453  0.250002918  0.671736926
     0.749805933  0.250566287  0.755738232
     0.093741470  0.125399423  0.719381315
     0.906252617  0.125399390  0.719381409
     0.750000000  0.500000000  0.245128807
     0.750000000  0.500000000  0.328578017
     0.097877722  0.375000000  0.286853412
     0.902122278  0.375000000  0.286853412
     0.000000000  0.500000000  0.351702101
     0.000000000  0.500000000  0.435151311
     0.847877722  0.375000000  0.393426706
     0.152122278  0.375000000  0.393426706
     0.750000000  0.500000000  0.458275395
     0.750000000  0.500000000  0.541724605
     0.097877722  0.375000000  0.500000000
     0.902122278  0.375000000  0.500000000
     0.999993544  0.500141786  0.565585167
     0.999994166  0.500234194  0.649324586
     0.850110622  0.375137325  0.607193041
     0.149870394  0.375137229  0.607190981
     0.750665146  0.500308811  0.671712489
     0.749015468  0.500632453  0.755685387
     0.093757007  0.375452297  0.719420948
     0.906237092  0.375452334  0.719421030
     0.250000000  0.750000000  0.245128807
     0.250000000  0.750000000  0.328578017
     0.597877722  0.625000000  0.286853412
     0.402122278  0.625000000  0.286853412
     0.500000000  0.750000000  0.351702101
     0.500000000  0.750000000  0.435151311
     0.347877722  0.625000000  0.393426706
     0.652122278  0.625000000  0.393426706
     0.250000000  0.750000000  0.458275395
     0.250000000  0.750000000  0.541724605
     0.597877722  0.625000000  0.500000000
     0.402122278  0.625000000  0.500000000
     0.499993906  0.749688493  0.565563232
     0.499993660  0.750544286  0.649031510
     0.349941622  0.625124765  0.607324609
     0.650038779  0.625124739  0.607322500
     0.249611857  0.750281052  0.671713032
     0.250348743  0.750243126  0.755743555
     0.593996779  0.626433022  0.718826995
     0.405997372  0.626432797  0.718827083
     0.250000000  0.000000000  0.245128807
     0.250000000  0.000000000  0.328578017
     0.597877722  0.875000000  0.286853412
     0.402122278  0.875000000  0.286853412
     0.500000000  0.000000000  0.351702101
     0.500000000  0.000000000  0.435151311
     0.347877722  0.875000000  0.393426706
     0.652122278  0.875000000  0.393426706
     0.250000000  0.000000000  0.458275395
     0.250000000  0.000000000  0.541724605
     0.597877722  0.875000000  0.500000000
     0.402122278  0.875000000  0.500000000
     0.499993253  0.000117777  0.565431223
     0.499994207  0.000178042  0.649088533
     0.349971388  0.875137747  0.607193146
     0.650008920  0.875137651  0.607190757
     0.249813859  0.000166520  0.671773255
     0.249865492  0.000430923  0.755783356
     0.593888361  0.875602364  0.719089407
     0.406105685  0.875602407  0.719089500
     0.250000000  0.250000000  0.245128807
     0.250000000  0.250000000  0.328578017
     0.597877722  0.125000000  0.286853412
     0.402122278  0.125000000  0.286853412
     0.500000000  0.250000000  0.351702101
     0.500000000  0.250000000  0.435151311
     0.347877722  0.125000000  0.393426706
     0.652122278  0.125000000  0.393426706
     0.250000000  0.250000000  0.458275395
     0.250000000  0.250000000  0.541724605
     0.597877722  0.125000000  0.500000000
     0.402122278  0.125000000  0.500000000
     0.499993839  0.250605449  0.565585674
     0.499993767  0.249544048  0.649089470
     0.349947946  0.125138813  0.607203269
     0.650032909  0.125138570  0.607200993
     0.249409576  0.250003052  0.671736877
     0.250188769  0.250566236  0.755738177
     0.593900695  0.125091051  0.719163631
     0.406093399  0.125090942  0.719163756
     0.250000000  0.500000000  0.245128807
     0.250000000  0.500000000  0.328578017
     0.597877722  0.375000000  0.286853412
     0.402122278  0.375000000  0.286853412
     0.500000000  0.500000000  0.351702101
     0.500000000  0.500000000  0.435151311
     0.347877722  0.375000000  0.393426706
     0.652122278  0.375000000  0.393426706
     0.250000000  0.500000000  0.458275395
     0.250000000  0.500000000  0.541724605
     0.597877722  0.375000000  0.500000000
     0.402122278  0.375000000  0.500000000
     0.499993660  0.500023993  0.565728520
     0.499994897  0.500333782  0.649802493
     0.349950660  0.375167928  0.607403922
     0.650030524  0.375167864  0.607401977
     0.249326721  0.500308797  0.671712436
     0.250979237  0.500632383  0.755685350
     0.594259176  0.374289682  0.718255671
     0.405735000  0.374289929  0.718255839

  ion indices of the primitive-cell ions
   primitive index   ion index
                 1           1
                 2           2
                 3           3
                 4           4
                 5           5
                 6           6
                 7           7
                 8           8
                 9           9
                10          10
                11          11
                12          12
                13          13
                14          14
                15          15
                16          16
                17          17
                18          18
                19          19
                20          20
                21          21
                22          22
                23          23
                24          24
                25          25
                26          26
                27          27
                28          28
                29          29
                30          30
                31          31
                32          32
                33          33
                34          34
                35          35
                36          36
                37          37
                38          38
                39          39
                40          40
                41          41
                42          42
                43          43
                44          44
                45          45
                46          46
                47          47
                48          48
                49          49
                50          50
                51          51
                52          52
                53          53
                54          54
                55          55
                56          56
                57          57
                58          58
                59          59
                60          60
                61          61
                62          62
                63          63
                64          64
                65          65
                66          66
                67          67
                68          68
                69          69
                70          70
                71          71
                72          72
                73          73
                74          74
                75          75
                76          76
                77          77
                78          78
                79          79
                80          80
                81          81
                82          82
                83          83
                84          84
                85          85
                86          86
                87          87
                88          88
                89          89
                90          90
                91          91
                92          92
                93          93
                94          94
                95          95
                96          96
                97          97
                98          98
                99          99
               100         100
               101         101
               102         102
               103         103
               104         104
               105         105
               106         106
               107         107
               108         108
               109         109
               110         110
               111         111
               112         112
               113         113
               114         114
               115         115
               116         116
               117         117
               118         118
               119         119
               120         120
               121         121
               122         122
               123         123
               124         124
               125         125
               126         126
               127         127
               128         128
               129         129
               130         130
               131         131
               132         132
               133         133
               134         134
               135         135
               136         136
               137         137
               138         138
               139         139
               140         140
               141         141
               142         142
               143         143
               144         144
               145         145
               146         146
               147         147
               148         148
               149         149
               150         150
               151         151
               152         152
               153         153
               154         154
               155         155
               156         156
               157         157
               158         158
               159         159
               160         160
               161         161
               162         162
               163         163
               164         164
               165         165
               166         166
               167         167
               168         168
               169         169
               170         170
               171         171
               172         172
               173         173
               174         174
               175         175
               176         176
               177         177
               178         178
               179         179
               180         180
               181         181
               182         182
               183         183
               184         184
               185         185
               186         186
               187         187
               188         188
               189         189
               190         190
               191         191
               192         192
               193         193
               194         194
               195         195
               196         196
               197         197
               198         198
               199         199
               200         200
               201         201
               202         202
               203         203
               204         204
               205         205
               206         206
               207         207
               208         208
               209         209
               210         210
               211         211
               212         212
               213         213
               214         214
               215         215
               216         216
               217         217
               218         218
               219         219
               220         220
               221         221
               222         222
               223         223
               224         224
               225         225
               226         226
               227         227
               228         228
               229         229
               230         230
               231         231
               232         232
               233         233
               234         234
               235         235
               236         236
               237         237
               238         238
               239         239
               240         240

----------------------------------------------------------------------------------------



 KPOINTS: pymatgen v2020.8.13 with grid density = 

Automatic generation of k-mesh.
 Grid dimensions read from file:
 generate k-points for:    2    2    1

 Generating k-lattice:

  Cartesian coordinates                     Fractional coordinates (reciprocal lattice)
     0.038334933  0.000000000  0.000000000     0.500000000  0.000000000  0.000000000
     0.000000000  0.042093861  0.000000000     0.000000000  0.500000000  0.000000000
     0.000000000  0.000000000  0.032683841     0.000000000  0.000000000  1.000000000

  Length of vectors
     0.038334933  0.042093861  0.032683841

  Shift w.r.t. Gamma in fractional coordinates (k-lattice)
     0.000000000  0.000000000  0.000000000

 
 Subroutine IBZKPT returns following result:
 ===========================================
 
 Found      4 irreducible k-points:
 
 Following reciprocal coordinates:
            Coordinates               Weight
  0.000000  0.000000  0.000000      1.000000
  0.500000  0.000000  0.000000      1.000000
  0.000000  0.500000  0.000000      1.000000
  0.500000  0.500000  0.000000      1.000000
 
 Following cartesian coordinates:
            Coordinates               Weight
  0.000000  0.000000  0.000000      1.000000
  0.038335  0.000000  0.000000      1.000000
  0.000000  0.042094  0.000000      1.000000
  0.038335  0.042094  0.000000      1.000000
 


--------------------------------------------------------------------------------------------------------




 Dimension of arrays:
   k-points           NKPTS =      4   k-points in BZ     NKDIM =      4   number of bands    NBANDS=   1280
   number of dos      NEDOS =    301   number of ions     NIONS =    240
   non local maximal  LDIM  =      6   non local SUM 2l+1 LMDIM =     18
   total plane-waves  NPLWV = ******
   max r-space proj   IRMAX =      1   max aug-charges    IRDMAX=  21427
   dimension x,y,z NGX =   108 NGY =   96 NGZ =  250
   dimension x,y,z NGXF=   216 NGYF=  192 NGZF=  500
   support grid    NGXF=   216 NGYF=  192 NGZF=  500
   ions per type =              80 160
   NGX,Y,Z   is equivalent  to a cutoff of  13.77, 13.44, 13.58 a.u.
   NGXF,Y,Z  is equivalent  to a cutoff of  27.53, 26.87, 27.17 a.u.

 SYSTEM =  TiO2                                    
 POSCAR =  Ti  O                                   

--------------------------------------------------------------------------------------------------------


  energy-cutoff  :      600.00
  volume of cell :     4740.16
      direct lattice vectors                 reciprocal lattice vectors
    13.042933829  0.000000000  0.000000000     0.076669867  0.000000000  0.000000000
     0.000000000 11.878216733  0.000000000     0.000000000  0.084187721  0.000000000
     0.000000000  0.000000000 30.596159140     0.000000000  0.000000000  0.032683841

  length of vectors
    13.042933829 11.878216733 30.596159140     0.076669867  0.084187721  0.032683841



 k-points in units of 2pi/SCALE and weight: pymatgen v2020.8.13 with grid density = 
   0.00000000  0.00000000  0.00000000       0.250
   0.03833493  0.00000000  0.00000000       0.250
   0.00000000  0.04209386  0.00000000       0.250
   0.03833493  0.04209386  0.00000000       0.250

 k-points in reciprocal lattice and weights: pymatgen v2020.8.13 with grid density = 
   0.00000000  0.00000000  0.00000000       0.250
   0.50000000  0.00000000  0.00000000       0.250
   0.00000000  0.50000000  0.00000000       0.250
   0.50000000  0.50000000  0.00000000       0.250

 position of ions in fractional coordinates (direct lattice) 
   0.75000000  0.62500000  0.28685341
   0.00000000  0.75000000  0.28685341
   0.00000000  0.62500000  0.39342671
   0.75000000  0.75000000  0.39342671
   0.75000000  0.62500000  0.50000000
   0.00000000  0.75000000  0.50000000
   0.00004392  0.62517863  0.60444905
   0.75007552  0.75022453  0.61069748
   0.75020988  0.62574801  0.72023946
   0.99999671  0.75045104  0.70859416
   0.75000000  0.87500000  0.28685341
   0.00000000  0.00000000  0.28685341
   0.00000000  0.87500000  0.39342671
   0.75000000  0.00000000  0.39342671
   0.75000000  0.87500000  0.50000000
   0.00000000  0.00000000  0.50000000
   0.00004715  0.87517050  0.60447603
   0.74999642  0.00020637  0.61078074
   0.74985263  0.87562490  0.72053947
   0.99999669  0.00031948  0.70862210
   0.75000000  0.12500000  0.28685341
   0.00000000  0.25000000  0.28685341
   0.00000000  0.12500000  0.39342671
   0.75000000  0.25000000  0.39342671
   0.75000000  0.12500000  0.50000000
   0.00000000  0.25000000  0.50000000
   0.00004102  0.12512674  0.60447799
   0.75009161  0.25017004  0.61077112
   0.74992909  0.12556720  0.72050184
   0.99999688  0.25024674  0.70860764
   0.75000000  0.37500000  0.28685341
   0.00000000  0.50000000  0.28685341
   0.00000000  0.37500000  0.39342671
   0.75000000  0.50000000  0.39342671
   0.75000000  0.37500000  0.50000000
   0.00000000  0.50000000  0.50000000
   0.00003856  0.37514168  0.60445102
   0.75006919  0.50019375  0.61072725
   0.75022762  0.37558871  0.72043940
   0.99999684  0.50038954  0.70857744
   0.25000000  0.62500000  0.28685341
   0.50000000  0.75000000  0.28685341
   0.50000000  0.62500000  0.39342671
   0.25000000  0.75000000  0.39342671
   0.25000000  0.62500000  0.50000000
   0.50000000  0.75000000  0.50000000
   0.50004466  0.62459833  0.60480338
   0.24999943  0.75022415  0.61069751
   0.24978360  0.62574793  0.72023946
   0.49999655  0.75072149  0.70820486
   0.25000000  0.87500000  0.28685341
   0.50000000  0.00000000  0.28685341
   0.50000000  0.87500000  0.39342671
   0.25000000  0.00000000  0.39342671
   0.25000000  0.87500000  0.50000000
   0.50000000  0.00000000  0.50000000
   0.50004722  0.87492835  0.60418226
   0.25007433  0.00020655  0.61078069
   0.25014059  0.87562492  0.72053941
   0.49999677  0.00028977  0.70833114
   0.25000000  0.12500000  0.28685341
   0.50000000  0.25000000  0.28685341
   0.50000000  0.12500000  0.39342671
   0.25000000  0.25000000  0.39342671
   0.25000000  0.12500000  0.50000000
   0.50000000  0.25000000  0.50000000
   0.50004202  0.12535718  0.60422017
   0.24996733  0.25016971  0.61077113
   0.25006444  0.12556712  0.72050180
   0.49999675  0.24992326  0.70832123
   0.25000000  0.37500000  0.28685341
   0.50000000  0.50000000  0.28685341
   0.50000000  0.37500000  0.39342671
   0.25000000  0.50000000  0.39342671
   0.25000000  0.37500000  0.50000000
   0.50000000  0.50000000  0.50000000
   0.50003856  0.37557620  0.60486305
   0.24999366  0.50019373  0.61072731
   0.24976617  0.37558861  0.72043934
   0.49999696  0.49933812  0.70967827
   0.75000000  0.75000000  0.24512881
   0.75000000  0.75000000  0.32857802
   0.09787772  0.62500000  0.28685341
   0.90212228  0.62500000  0.28685341
   0.00000000  0.75000000  0.35170210
   0.00000000  0.75000000  0.43515131
   0.84787772  0.62500000  0.39342671
   0.15212228  0.62500000  0.39342671
   0.75000000  0.75000000  0.45827539
   0.75000000  0.75000000  0.54172461
   0.09787772  0.62500000  0.50000000
   0.90212228  0.62500000  0.50000000
   0.99999357  0.75019310  0.56558478
   0.99999418  0.75020040  0.64933347
   0.85011755  0.62520498  0.60717815
   0.14986287  0.62520505  0.60717597
   0.75038007  0.75028104  0.67171308
   0.74964608  0.75024316  0.75574361
   0.09374389  0.62536131  0.71941390
   0.90625018  0.62536136  0.71941395
   0.75000000  0.00000000  0.24512881
   0.75000000  0.00000000  0.32857802
   0.09787772  0.87500000  0.28685341
   0.90212228  0.87500000  0.28685341
   0.00000000  0.00000000  0.35170210
   0.00000000  0.00000000  0.43515131
   0.84787772  0.87500000  0.39342671
   0.15212228  0.87500000  0.39342671
   0.75000000  0.00000000  0.45827539
   0.75000000  0.00000000  0.54172461
   0.09787772  0.87500000  0.50000000
   0.90212228  0.87500000  0.50000000
   0.99999354  0.00014507  0.56559184
   0.99999417  0.00020903  0.64935610
   0.85009108  0.87518136  0.60723384
   0.14988893  0.87518129  0.60723154
   0.75017817  0.00016659  0.67177326
   0.75012925  0.00043096  0.75578337
   0.09377603  0.87532175  0.71936578
   0.90621802  0.87532172  0.71936582
   0.75000000  0.25000000  0.24512881
   0.75000000  0.25000000  0.32857802
   0.09787772  0.12500000  0.28685341
   0.90212228  0.12500000  0.28685341
   0.00000000  0.25000000  0.35170210
   0.00000000  0.25000000  0.43515131
   0.84787772  0.12500000  0.39342671
   0.15212228  0.12500000  0.39342671
   0.75000000  0.25000000  0.45827539
   0.75000000  0.25000000  0.54172461
   0.09787772  0.12500000  0.50000000
   0.90212228  0.12500000  0.50000000
   0.99999353  0.25011547  0.56559304
   0.99999420  0.25023553  0.64934910
   0.85010242  0.12508723  0.60723431
   0.14987836  0.12508706  0.60723219
   0.75058245  0.25000292  0.67173693
   0.74980593  0.25056629  0.75573823
   0.09374147  0.12539942  0.71938131
   0.90625262  0.12539939  0.71938141
   0.75000000  0.50000000  0.24512881
   0.75000000  0.50000000  0.32857802
   0.09787772  0.37500000  0.28685341
   0.90212228  0.37500000  0.28685341
   0.00000000  0.50000000  0.35170210
   0.00000000  0.50000000  0.43515131
   0.84787772  0.37500000  0.39342671
   0.15212228  0.37500000  0.39342671
   0.75000000  0.50000000  0.45827539
   0.75000000  0.50000000  0.54172461
   0.09787772  0.37500000  0.50000000
   0.90212228  0.37500000  0.50000000
   0.99999354  0.50014179  0.56558517
   0.99999417  0.50023419  0.64932459
   0.85011062  0.37513732  0.60719304
   0.14987039  0.37513723  0.60719098
   0.75066515  0.50030881  0.67171249
   0.74901547  0.50063245  0.75568539
   0.09375701  0.37545230  0.71942095
   0.90623709  0.37545233  0.71942103
   0.25000000  0.75000000  0.24512881
   0.25000000  0.75000000  0.32857802
   0.59787772  0.62500000  0.28685341
   0.40212228  0.62500000  0.28685341
   0.50000000  0.75000000  0.35170210
   0.50000000  0.75000000  0.43515131
   0.34787772  0.62500000  0.39342671
   0.65212228  0.62500000  0.39342671
   0.25000000  0.75000000  0.45827539
   0.25000000  0.75000000  0.54172461
   0.59787772  0.62500000  0.50000000
   0.40212228  0.62500000  0.50000000
   0.49999391  0.74968849  0.56556323
   0.49999366  0.75054429  0.64903151
   0.34994162  0.62512477  0.60732461
   0.65003878  0.62512474  0.60732250
   0.24961186  0.75028105  0.67171303
   0.25034874  0.75024313  0.75574356
   0.59399678  0.62643302  0.71882699
   0.40599737  0.62643280  0.71882708
   0.25000000  0.00000000  0.24512881
   0.25000000  0.00000000  0.32857802
   0.59787772  0.87500000  0.28685341
   0.40212228  0.87500000  0.28685341
   0.50000000  0.00000000  0.35170210
   0.50000000  0.00000000  0.43515131
   0.34787772  0.87500000  0.39342671
   0.65212228  0.87500000  0.39342671
   0.25000000  0.00000000  0.45827539
   0.25000000  0.00000000  0.54172461
   0.59787772  0.87500000  0.50000000
   0.40212228  0.87500000  0.50000000
   0.49999325  0.00011778  0.56543122
   0.49999421  0.00017804  0.64908853
   0.34997139  0.87513775  0.60719315
   0.65000892  0.87513765  0.60719076
   0.24981386  0.00016652  0.67177325
   0.24986549  0.00043092  0.75578336
   0.59388836  0.87560236  0.71908941
   0.40610568  0.87560241  0.71908950
   0.25000000  0.25000000  0.24512881
   0.25000000  0.25000000  0.32857802
   0.59787772  0.12500000  0.28685341
   0.40212228  0.12500000  0.28685341
   0.50000000  0.25000000  0.35170210
   0.50000000  0.25000000  0.43515131
   0.34787772  0.12500000  0.39342671
   0.65212228  0.12500000  0.39342671
   0.25000000  0.25000000  0.45827539
   0.25000000  0.25000000  0.54172461
   0.59787772  0.12500000  0.50000000
   0.40212228  0.12500000  0.50000000
   0.49999384  0.25060545  0.56558567
   0.49999377  0.24954405  0.64908947
   0.34994795  0.12513881  0.60720327
   0.65003291  0.12513857  0.60720099
   0.24940958  0.25000305  0.67173688
   0.25018877  0.25056624  0.75573818
   0.59390069  0.12509105  0.71916363
   0.40609340  0.12509094  0.71916376
   0.25000000  0.50000000  0.24512881
   0.25000000  0.50000000  0.32857802
   0.59787772  0.37500000  0.28685341
   0.40212228  0.37500000  0.28685341
   0.50000000  0.50000000  0.35170210
   0.50000000  0.50000000  0.43515131
   0.34787772  0.37500000  0.39342671
   0.65212228  0.37500000  0.39342671
   0.25000000  0.50000000  0.45827539
   0.25000000  0.50000000  0.54172461
   0.59787772  0.37500000  0.50000000
   0.40212228  0.37500000  0.50000000
   0.49999366  0.50002399  0.56572852
   0.49999490  0.50033378  0.64980249
   0.34995066  0.37516793  0.60740392
   0.65003052  0.37516786  0.60740198
   0.24932672  0.50030880  0.67171244
   0.25097924  0.50063238  0.75568535
   0.59425918  0.37428968  0.71825567
   0.40573500  0.37428993  0.71825584

 position of ions in cartesian coordinates  (Angst):
   9.78220037  7.42388546  8.77661266
   0.00000000  8.90866255  8.77661266
   0.00000000  7.42388546 12.03734611
   9.78220037  8.90866255 12.03734611
   9.78220037  7.42388546 15.29807957
   0.00000000  8.90866255 15.29807957
   0.00057290  7.42600728 18.49381931
   9.78318537  8.91132960 18.68499738
   9.78493783  7.43277044 22.03656113
  13.04289094  8.91402015 21.68025962
   9.78220037 10.39343964  8.77661266
   0.00000000  0.00000000  8.77661266
   0.00000000 10.39343964 12.03734611
   9.78220037  0.00000000 12.03734611
   9.78220037 10.39343964 15.29807957
   0.00000000  0.00000000 15.29807957
   0.00061497 10.39546483 18.49464496
   9.78215364  0.00245126 18.68754479
   9.78027823 10.40086230 22.04574027
  13.04289071  0.00379490 21.68111464
   9.78220037  1.48477709  8.77661266
   0.00000000  2.96955418  8.77661266
   0.00000000  1.48477709 12.03734611
   9.78220037  2.96955418 12.03734611
   9.78220037  1.48477709 15.29807957
   0.00000000  2.96955418 15.29807957
   0.00053507  1.48628257 18.49470481
   9.78339530  2.97157393 18.68725028
   9.78127551  1.49151437 22.04458890
  13.04289314  2.97248503 21.68067217
   9.78220037  4.45433128  8.77661266
   0.00000000  5.93910837  8.77661266
   0.00000000  4.45433128 12.03734611
   9.78220037  5.93910837 12.03734611
   9.78220037  4.45433128 15.29807957
   0.00000000  5.93910837 15.29807957
   0.00050300  4.45601419 18.49387961
   9.78310282  5.94140979 18.68590820
   9.78516915  4.46132415 22.04267843
  13.04289267  5.94373544 21.67974813
   3.26073346  7.42388546  8.77661266
   6.52146691  8.90866255  8.77661266
   6.52146691  7.42388546 12.03734611
   3.26073346  8.90866255 12.03734611
   3.26073346  7.42388546 15.29807957
   6.52146691  8.90866255 15.29807957
   6.52204946  7.41911430 18.50466052
   3.26072602  8.91132502 18.68499820
   3.25791092  7.43276957 22.03656118
   6.52142195  8.91723262 21.66834852
   3.26073346 10.39343964  8.77661266
   6.52146691  0.00000000  8.77661266
   6.52146691 10.39343964 12.03734611
   3.26073346  0.00000000 12.03734611
   3.26073346 10.39343964 15.29807957
   6.52146691  0.00000000 15.29807957
   6.52208275 10.39258856 18.48565650
   3.26170290  0.00245339 18.68754332
   3.26256717 10.40086260 22.04573840
   6.52142475  0.00344195 21.67221228
   3.26073346  1.48477709  8.77661266
   6.52146691  2.96955418  8.77661266
   6.52146691  1.48477709 12.03734611
   3.26073346  2.96955418 12.03734611
   3.26073346  1.48477709 15.29807957
   6.52146691  2.96955418 15.29807957
   6.52201501  1.48901970 18.48681643
   3.26030729  2.97157000 18.68725073
   3.26157393  1.49151344 22.04458783
   6.52142448  2.96864262 21.67190908
   3.26073346  4.45433128  8.77661266
   6.52146691  5.93910837  8.77661266
   6.52146691  4.45433128 12.03734611
   3.26073346  5.93910837 12.03734611
   3.26073346  4.45433128 15.29807957
   6.52146691  5.93910837 15.29807957
   6.52196990  4.46117548 18.50648601
   3.26065076  5.94140953 18.68590997
   3.25768359  4.46132297 22.04267683
   6.52142729  5.93124643 21.71342919
   9.78220037  8.90866255  7.50000000
   9.78220037  8.90866255 10.05322531
   1.27661266  7.42388546  8.77661266
  11.76632117  7.42388546  8.77661266
   0.00000000  8.90866255 10.76073346
   0.00000000  8.90866255 13.31395877
  11.05881303  7.42388546 12.03734611
   1.98412080  7.42388546 12.03734611
   9.78220037  8.90866255 14.02146691
   9.78220037  8.90866255 16.57469223
   1.27661266  7.42388546 15.29807957
  11.76632117  7.42388546 15.29807957
  13.04284991  8.91095619 17.30472194
  13.04285790  8.91104289 19.86711028
  11.08802689  7.42632024 18.57731929
   1.95465147  7.42632107 18.57725266
   9.78715762  8.91200078 20.55184027
   9.77758418  8.91155090 23.12285176
   1.22269537  7.42817721 22.01130221
  11.82016115  7.42817781 22.01130361
   9.78220037  0.00000000  7.50000000
   9.78220037  0.00000000 10.05322531
   1.27661266 10.39343964  8.77661266
  11.76632117 10.39343964  8.77661266
   0.00000000  0.00000000 10.76073346
   0.00000000  0.00000000 13.31395877
  11.05881303 10.39343964 12.03734611
   1.98412080 10.39343964 12.03734611
   9.78220037  0.00000000 14.02146691
   9.78220037  0.00000000 16.57469223
   1.27661266 10.39343964 15.29807957
  11.76632117 10.39343964 15.29807957
  13.04284961  0.00172317 17.30493806
  13.04285774  0.00248293 19.86780269
  11.08768171 10.39559385 18.57902325
   1.95499135 10.39559306 18.57895287
   9.78452424  0.00197877 20.55368167
   9.78388613  0.00511898 23.12406836
   1.22311451 10.39726148 22.00983003
  11.81974163 10.39726113 22.00983112
   9.78220037  2.96955418  7.50000000
   9.78220037  2.96955418 10.05322531
   1.27661266  1.48477709  8.77661266
  11.76632117  1.48477709  8.77661266
   0.00000000  2.96955418 10.76073346
   0.00000000  2.96955418 13.31395877
  11.05881303  1.48477709 12.03734611
   1.98412080  1.48477709 12.03734611
   9.78220037  2.96955418 14.02146691
   9.78220037  2.96955418 16.57469223
   1.27661266  1.48477709 15.29807957
  11.76632117  1.48477709 15.29807957
  13.04284948  2.97092574 17.30497468
  13.04285815  2.97235188 19.86758828
  11.08782967  1.48581322 18.57903749
   1.95485351  1.48581119 18.57897265
   9.78979727  2.96958884 20.55256987
   9.77966916  2.97628066 23.12268721
   1.22266379  1.48952152 22.01030518
  11.82019291  1.48952114 22.01030807
   9.78220037  5.93910837  7.50000000
   9.78220037  5.93910837 10.05322531
   1.27661266  4.45433128  8.77661266
  11.76632117  4.45433128  8.77661266
   0.00000000  5.93910837 10.76073346
   0.00000000  5.93910837 13.31395877
  11.05881303  4.45433128 12.03734611
   1.98412080  4.45433128 12.03734611
   9.78220037  5.93910837 14.02146691
   9.78220037  5.93910837 16.57469223
   1.27661266  4.45433128 15.29807957
  11.76632117  4.45433128 15.29807957
  13.04284963  5.94079254 17.30473376
  13.04285773  5.94189018 19.86683837
  11.08793659  4.45596245 18.57777490
   1.95474964  4.45596131 18.57771189
   9.79087583  5.94277649 20.55182221
   9.76935919  5.94662078 23.12107035
   1.22286643  4.45970376 22.01151782
  11.81999042  4.45970420 22.01152031
   3.26073346  8.90866255  7.50000000
   3.26073346  8.90866255 10.05322531
   7.79807957  7.42388546  8.77661266
   5.24485426  7.42388546  8.77661266
   6.52146691  8.90866255 10.76073346
   6.52146691  8.90866255 13.31395877
   4.53734611  7.42388546 12.03734611
   8.50558772  7.42388546 12.03734611
   3.26073346  8.90866255 14.02146691
   3.26073346  8.90866255 16.57469223
   7.79807957  7.42388546 15.29807957
   5.24485426  7.42388546 15.29807957
   6.52138743  8.90496241 17.30406265
   6.52138422  8.91512770 19.85787138
   4.56426542  7.42536745 18.58180039
   8.47841278  7.42536713 18.58173586
   3.25567093  8.91200095 20.55183883
   3.26528209  8.91155045 23.12285008
   7.74746068  7.44090720 21.99334513
   5.29539686  7.44090453 21.99334784
   3.26073346  0.00000000  7.50000000
   3.26073346  0.00000000 10.05322531
   7.79807957 10.39343964  8.77661266
   5.24485426 10.39343964  8.77661266
   6.52146691  0.00000000 10.76073346
   6.52146691  0.00000000 13.31395877
   4.53734611 10.39343964 12.03734611
   8.50558772 10.39343964 12.03734611
   3.26073346  0.00000000 14.02146691
   3.26073346  0.00000000 16.57469223
   7.79807957 10.39343964 15.29807957
   5.24485426 10.39343964 15.29807957
   6.52137891  0.00139898 17.30002368
   6.52139136  0.00211482 19.85961605
   4.56465366 10.39507583 18.57777812
   8.47802333 10.39507469 18.57770504
   3.25830564  0.00197796 20.55368141
   3.25897908  0.00511859 23.12406783
   7.74604660 10.40059465 22.00137393
   5.29680958 10.40059516 22.00137677
   3.26073346  2.96955418  7.50000000
   3.26073346  2.96955418 10.05322531
   7.79807957  1.48477709  8.77661266
   5.24485426  1.48477709  8.77661266
   6.52146691  2.96955418 10.76073346
   6.52146691  2.96955418 13.31395877
   4.53734611  1.48477709 12.03734611
   8.50558772  1.48477709 12.03734611
   3.26073346  2.96955418 14.02146691
   3.26073346  2.96955418 16.57469223
   7.79807957  1.48477709 15.29807957
   5.24485426  1.48477709 15.29807957
   6.52138656  2.97674584 17.30474930
   6.52138562  2.96413828 19.85964473
   4.56434790  1.48642595 18.57808784
   8.47833622  1.48642306 18.57801821
   3.25303260  2.96959043 20.55256839
   3.26319557  2.97628006 23.12268554
   7.74620746  1.48585862 22.00364490
   5.29664934  1.48585732 22.00364871
   3.26073346  5.93910837  7.50000000
   3.26073346  5.93910837 10.05322531
   7.79807957  4.45433128  8.77661266
   5.24485426  4.45433128  8.77661266
   6.52146691  5.93910837 10.76073346
   6.52146691  5.93910837 13.31395877
   4.53734611  4.45433128 12.03734611
   8.50558772  4.45433128 12.03734611
   3.26073346  5.93910837 14.02146691
   3.26073346  5.93910837 16.57469223
   7.79807957  4.45433128 15.29807957
   5.24485426  4.45433128 15.29807957
   6.52138423  5.93939337 17.30911983
   6.52140036  5.94307311 19.88146050
   4.56438330  4.45632597 18.58422705
   8.47830511  4.45632521 18.58416755
   3.25195193  5.94277632 20.55182060
   3.27350558  5.94661995 23.12106922
   7.75088311  4.44589397 21.97586480
   5.29197476  4.44589690 21.97586995



--------------------------------------------------------------------------------------------------------

--------------------------------------- Iteration      FINAL  ---------------------------------------


--------------------OUTCAR has been truncated-------------------------


--------------------OUTCAR has been truncated-------------------------


--------------------OUTCAR has been truncated-------------------------


--------------------OUTCAR has been truncated-------------------------


--------------------OUTCAR has been truncated-------------------------


--------------------OUTCAR has been truncated-------------------------


--------------------OUTCAR has been truncated-------------------------


--------------------OUTCAR has been truncated-------------------------


--------------------OUTCAR has been truncated-------------------------


--------------------OUTCAR has been truncated-------------------------


  FORCE on cell =-STRESS in cart. coord.  units (eV):
  Direction    XX          YY          ZZ          XY          YZ          ZX
  --------------------------------------------------------------------------------------
  Alpha Z  4615.05738  4615.05738  4615.05738
  Ewald  972669.89443990477.94407************     0.00067    -5.99052    -0.03902
  Hartree************************************     0.00027    -3.42137    -0.02671
  E(xc)   -8814.43496 -8788.58975 -8814.35837     0.00001    -0.01489    -0.00000
  Local  ************************************    -0.00112     9.35386     0.06481
  n-local -5411.92486 -5334.69668 -5455.39071    -0.00003    -0.18939    -0.00147
  augment  5302.39704  5280.03277  5306.61511     0.00006     0.01904     0.00041
  Kinetic 28703.99041 28223.07128 28738.05521     0.00017    -0.07202     0.00387
  Fock        0.00000     0.00000     0.00000     0.00000     0.00000     0.00000
  -------------------------------------------------------------------------------------
  Total     139.59534   104.06447    85.31743     0.00002    -0.31530     0.00190
  in kB      47.18327    35.17382    28.83732     0.00001    -0.10657     0.00064
  external pressure =       37.06 kB  Pullay stress =        0.00 kB


 VOLUME and BASIS-vectors are now :
 -----------------------------------------------------------------------------
  energy-cutoff  :      600.00
  volume of cell :     4740.16
      direct lattice vectors                 reciprocal lattice vectors
    13.042933829  0.000000000  0.000000000     0.076669867  0.000000000  0.000000000
     0.000000000 11.878216733  0.000000000     0.000000000  0.084187721  0.000000000
     0.000000000  0.000000000 30.596159140     0.000000000  0.000000000  0.032683841

  length of vectors
    13.042933829 11.878216733 30.596159140     0.076669867  0.084187721  0.032683841


 FORCES acting on ions:
    Electron-Ion                     Ewald-Force                    Non-Local-Force
 -----------------------------------------------------------------------------------------------
   0.120E-01 0.116E-01 0.376E+04   -.122E-01 -.116E-01 -.377E+04   0.397E-04 -.137E-04 0.408E+00
   0.145E-04 0.858E-02 0.394E+04   0.780E-05 -.854E-02 -.394E+04   -.150E-04 -.270E-05 -.368E+01
   0.144E-03 0.316E-01 0.191E+04   -.123E-03 -.315E-01 -.191E+04   0.241E-07 0.860E-04 -.449E-01
   0.388E-01 0.693E-01 0.190E+04   -.395E-01 -.686E-01 -.190E+04   0.160E-03 -.389E-04 0.193E+00
   0.466E+00 0.286E+00 -.204E+02   -.469E+00 -.287E+00 0.212E+02   0.642E-03 0.144E-03 -.129E+00
   0.379E-02 0.109E+00 -.948E+01   -.422E-02 -.103E+00 0.844E+01   0.200E-03 -.313E-02 0.345E+00
   0.176E+00 0.496E-01 -.188E+04   -.176E+00 -.493E-01 0.188E+04   -.522E-03 0.931E-03 0.959E-01
   0.583E+00 0.320E+00 -.194E+04   -.569E+00 -.314E+00 0.194E+04   -.613E-02 -.234E-02 -.124E+00
   0.102E-01 0.279E+01 -.375E+04   -.404E-01 -.279E+01 0.375E+04   0.184E-01 0.458E-02 -.337E+00
   -.962E-03 0.524E+00 -.377E+04   0.798E-03 -.526E+00 0.377E+04   0.128E-03 0.102E-02 0.869E+00
   0.580E-02 0.701E-02 0.376E+04   -.617E-02 -.679E-02 -.377E+04   0.112E-03 -.835E-05 0.408E+00
   0.351E-05 -.317E-02 0.394E+04   0.804E-05 0.321E-02 -.394E+04   0.284E-05 0.125E-04 -.368E+01
   0.133E-03 0.697E-02 0.191E+04   -.128E-03 -.695E-02 -.191E+04   0.101E-04 0.101E-03 -.450E-01
   -.347E-02 -.192E-01 0.190E+04   0.237E-02 0.192E-01 -.190E+04   0.261E-03 0.195E-04 0.193E+00
   -.812E-01 0.104E+00 -.201E+02   0.797E-01 -.927E-01 0.209E+02   0.325E-03 -.697E-03 -.130E+00
   0.355E-02 -.134E-02 -.964E+01   -.401E-02 0.426E-02 0.861E+01   0.204E-03 -.203E-02 0.345E+00
   0.185E+00 -.233E+00 -.188E+04   -.186E+00 0.231E+00 0.188E+04   -.563E-03 0.174E-02 0.958E-01
   0.960E-01 0.253E+00 -.195E+04   -.845E-01 -.263E+00 0.195E+04   -.275E-02 0.153E-02 -.120E+00
   -.977E-01 0.166E+01 -.376E+04   0.106E+00 -.171E+01 0.376E+04   0.115E-01 0.379E-02 -.341E+00
   -.767E-03 -.168E+00 -.377E+04   0.586E-03 0.155E+00 0.377E+04   0.120E-03 0.369E-02 0.881E+00
   0.615E-02 -.118E-01 0.376E+04   -.644E-02 0.116E-01 -.377E+04   0.903E-04 0.753E-05 0.408E+00
   0.224E-04 -.857E-02 0.394E+04   0.807E-05 0.854E-02 -.394E+04   0.180E-04 0.101E-04 -.368E+01
   0.109E-03 -.312E-01 0.191E+04   -.116E-03 0.311E-01 -.191E+04   0.962E-05 0.650E-04 -.451E-01
   0.428E-01 -.694E-01 0.190E+04   -.433E-01 0.687E-01 -.190E+04   0.126E-03 0.707E-05 0.193E+00
   -.510E-01 -.275E+00 -.202E+02   0.499E-01 0.272E+00 0.211E+02   0.314E-03 0.184E-03 -.131E+00
   0.288E-02 0.417E-01 -.964E+01   -.330E-02 -.427E-01 0.861E+01   0.200E-03 -.107E-02 0.346E+00
   0.167E+00 -.262E+00 -.188E+04   -.168E+00 0.258E+00 0.188E+04   -.503E-03 0.356E-02 0.971E-01
   0.505E+00 -.250E+00 -.194E+04   -.483E+00 0.238E+00 0.194E+04   -.886E-02 0.546E-02 -.120E+00
   0.222E+00 0.750E+00 -.376E+04   -.191E+00 -.772E+00 0.376E+04   0.376E-04 0.252E-02 -.334E+00
   -.936E-04 -.151E+01 -.377E+04   -.668E-04 0.151E+01 0.377E+04   0.971E-04 0.514E-02 0.871E+00
   0.123E-01 -.702E-02 0.376E+04   -.125E-01 0.679E-02 -.377E+04   0.454E-04 0.939E-05 0.408E+00
   0.291E-05 0.323E-02 0.394E+04   0.780E-05 -.322E-02 -.394E+04   -.371E-05 0.421E-05 -.368E+01
   0.988E-04 -.773E-02 0.191E+04   -.111E-03 0.757E-02 -.191E+04   0.621E-05 0.448E-04 -.450E-01
   0.847E-01 0.193E-01 0.190E+04   -.847E-01 -.194E-01 -.190E+04   -.475E-04 -.453E-04 0.193E+00
   0.496E+00 -.132E+00 -.206E+02   -.499E+00 0.124E+00 0.214E+02   0.314E-03 0.685E-03 -.130E+00
   0.312E-02 0.144E+00 -.949E+01   -.352E-02 -.143E+00 0.846E+01   0.196E-03 -.175E-02 0.345E+00
   0.160E+00 -.612E-01 -.188E+04   -.160E+00 0.612E-01 0.188E+04   -.489E-03 0.142E-02 0.978E-01
   0.957E+00 0.243E+00 -.194E+04   -.930E+00 -.238E+00 0.194E+04   -.865E-02 -.450E-03 -.127E+00
   -.567E+00 -.843E+00 -.376E+04   0.703E+00 0.868E+00 0.376E+04   -.289E-01 0.115E-01 -.324E+00
   -.395E-03 -.365E-01 -.377E+04   0.267E-03 0.413E-01 0.377E+04   0.115E-03 0.319E-02 0.860E+00
   -.120E-01 0.117E-01 0.376E+04   0.122E-01 -.116E-01 -.377E+04   -.379E-04 -.366E-04 0.408E+00
   0.284E-04 0.182E-01 0.394E+04   -.251E-04 -.179E-01 -.394E+04   0.119E-05 -.389E-04 -.368E+01
   0.250E-03 0.109E+00 0.191E+04   -.277E-03 -.103E+00 -.191E+04   0.232E-05 -.110E-02 -.451E-01
   -.392E-01 0.693E-01 0.190E+04   0.399E-01 -.686E-01 -.190E+04   -.152E-03 -.304E-04 0.193E+00
   -.472E+00 0.286E+00 -.204E+02   0.475E+00 -.287E+00 0.212E+02   -.594E-03 0.137E-03 -.129E+00
   0.487E-02 0.869E+00 -.972E+01   -.532E-02 -.885E+00 0.871E+01   0.198E-03 0.105E-01 0.332E+00
   0.180E+00 0.757E+00 -.189E+04   -.180E+00 -.644E+00 0.189E+04   -.559E-03 -.513E-01 0.985E-01
   -.405E+00 0.318E+00 -.194E+04   0.392E+00 -.311E+00 0.194E+04   0.418E-02 -.234E-02 -.124E+00
   -.563E-02 0.279E+01 -.375E+04   0.356E-01 -.279E+01 0.375E+04   -.183E-01 0.458E-02 -.337E+00
   -.820E-03 0.625E+00 -.377E+04   0.645E-03 -.737E+00 0.377E+04   0.123E-03 0.368E-01 0.872E+00
   -.584E-02 0.694E-02 0.376E+04   0.619E-02 -.679E-02 -.377E+04   -.990E-04 -.270E-04 0.408E+00
   0.409E-04 -.361E-02 0.394E+04   -.252E-04 0.363E-02 -.394E+04   0.327E-06 0.239E-04 -.368E+01
   0.276E-03 0.763E-01 0.191E+04   -.290E-03 -.738E-01 -.191E+04   0.725E-05 -.607E-03 -.451E-01
   0.307E-02 -.192E-01 0.190E+04   -.198E-02 0.192E-01 -.190E+04   -.256E-03 0.203E-04 0.193E+00
   0.752E-01 0.104E+00 -.201E+02   -.733E-01 -.928E-01 0.209E+02   -.289E-03 -.685E-03 -.130E+00
[...]
      9.78128      1.49151     22.04459         0.029239     -0.016581      0.084832
     13.04289      2.97249     21.68067        -0.000063      0.002392      0.374662
      9.78220      4.45433      8.77661        -0.000140     -0.000259     -3.580729
      0.00000      5.93911      8.77661         0.000008     -0.000027      2.439441
      0.00000      4.45433     12.03735        -0.000005     -0.000161      0.519816
      9.78220      5.93911     12.03735        -0.000112     -0.000177     -0.721529
      9.78220      4.45433     15.29808        -0.002746     -0.007101      0.697287
      0.00000      5.93911     15.29808        -0.000203     -0.001226     -0.696439
      0.00050      4.45601     18.49388         0.000041      0.001194      0.029218
      9.78310      5.94141     18.68591         0.018365      0.005129     -0.067178
      9.78517      4.46132     22.04268         0.105879      0.037790      0.100919
     13.04289      5.94374     21.67975        -0.000013      0.007718      0.381660
      3.26073      7.42389      8.77661         0.000152     -0.000043     -3.580861
      6.52147      8.90866      8.77661         0.000006      0.000160      2.439760
      6.52147      7.42389     12.03735        -0.000023      0.004699      0.519720
      3.26073      8.90866     12.03735         0.000514      0.000642     -0.721633
      3.26073      7.42389     15.29808         0.002667     -0.001071      0.691872
      6.52147      8.90866     15.29808        -0.000243     -0.005706     -0.677204
      6.52205      7.41911     18.50466         0.000024      0.057372     -0.007096
      3.26073      8.91133     18.68500        -0.008640      0.005127     -0.062725
      3.25791      7.43277     22.03656         0.012612      0.006346      0.146287
      6.52142      8.91723     21.66835        -0.000054     -0.077916      0.435377
      3.26073     10.39344      8.77661         0.000249      0.000090     -3.580670
      6.52147      0.00000      8.77661         0.000018      0.000003      2.440250
      6.52147     10.39344     12.03735        -0.000005      0.001902      0.523393
      3.26073      0.00000     12.03735         0.000832      0.000035     -0.720434
      3.26073     10.39344     15.29808         0.001597      0.010712      0.697960
      6.52147      0.00000     15.29808        -0.000223      0.000429     -0.725665
      6.52208     10.39259     18.48566         0.000014      0.002702      0.025272
      3.26170      0.00245     18.68754        -0.008211     -0.007120     -0.065560
      3.26257     10.40086     22.04574        -0.018253     -0.041416      0.094719
      6.52142      0.00344     21.67221        -0.000023     -0.027450      0.349501
      3.26073      1.48478      8.77661         0.000241     -0.000168     -3.580453
      6.52147      2.96955      8.77661        -0.000049     -0.000244      2.439678
      6.52147      1.48478     12.03735        -0.000001     -0.002561      0.522971
      3.26073      2.96955     12.03735         0.000438     -0.000731     -0.720456
      3.26073      1.48478     15.29808         0.001135     -0.002980      0.703461
      6.52147      2.96955     15.29808        -0.000206      0.007270     -0.678554
      6.52202      1.48902     18.48682         0.000033     -0.031172      0.003677
      3.26031      2.97157     18.68725        -0.013750     -0.006552     -0.076223
      3.26157      1.49151     22.04459        -0.029308     -0.016621      0.084864
      6.52142      2.96864     21.67191        -0.000041     -0.164500      0.300811
      3.26073      4.45433      8.77661         0.000117     -0.000185     -3.580803
      6.52147      5.93911      8.77661        -0.000036     -0.000063      2.440093
      6.52147      4.45433     12.03735         0.000011     -0.004196      0.519441
      3.26073      5.93911     12.03735         0.000107     -0.000179     -0.721574
      3.26073      4.45433     15.29808         0.003075     -0.007086      0.697328
      6.52147      5.93911     15.29808        -0.000232     -0.002204     -0.681694
      6.52197      4.46118     18.50649         0.000033     -0.029128     -0.028249
      3.26065      5.94141     18.68591        -0.017875      0.005130     -0.067197
      3.25768      4.46132     22.04268        -0.105944      0.037781      0.100858
      6.52143      5.93125     21.71343        -0.000044      0.336170     -0.200735
      9.78220      8.90866      7.50000         0.000057     -0.000125      1.516240
      9.78220      8.90866     10.05323         0.000074     -0.000129      1.787669
      1.27661      7.42389      8.77661        -1.741227     -0.000078     -0.819635
     11.76632      7.42389      8.77661         1.741249     -0.000107     -0.819619
      0.00000      8.90866     10.76073         0.000001     -0.000072     -1.439773
      0.00000      8.90866     13.31396         0.000001      0.000149     -0.017436
     11.05881      7.42389     12.03735         0.533291     -0.000086      0.049401
      1.98412      7.42389     12.03735        -0.533276     -0.000116      0.049407
      9.78220      8.90866     14.02147         0.000172     -0.002006     -0.205994
      9.78220      8.90866     16.57469        -0.000010      0.000413      0.152481
      1.27661      7.42389     15.29808        -0.385696      0.001631      0.100797
     11.76632      7.42389     15.29808         0.385637      0.001639      0.100576
     13.04285      8.91096     17.30472        -0.000304      0.000292     -0.151887
     13.04286      8.91104     19.86711        -0.000239     -0.002351     -0.045864
     11.08803      7.42632     18.57732         0.065912     -0.002852     -0.012180
      1.95465      7.42632     18.57725        -0.064987     -0.002794     -0.012175
      9.78716      8.91200     20.55184        -0.002112      0.006586      0.062579
      9.77758      8.91155     23.12285         0.014938      0.032456      0.415053
      1.22270      7.42818     22.01130         0.123626     -0.004132      0.075803
     11.82016      7.42818     22.01130        -0.123705     -0.004131      0.075808
      9.78220      0.00000      7.50000         0.000036     -0.000054      1.516214
      9.78220      0.00000     10.05323         0.000096     -0.000089      1.787167
      1.27661     10.39344      8.77661        -1.741281     -0.000046     -0.819618
     11.76632     10.39344      8.77661         1.741297     -0.000051     -0.819599
      0.00000      0.00000     10.76073         0.000019     -0.000031     -1.439831
      0.00000      0.00000     13.31396         0.000007      0.000206     -0.017271
     11.05881     10.39344     12.03735         0.533402     -0.000401      0.049381
      1.98412     10.39344     12.03735        -0.533404     -0.000330      0.049363
      9.78220      0.00000     14.02147         0.000070     -0.001151     -0.208065
      9.78220      0.00000     16.57469         0.001395      0.002131      0.146030
      1.27661     10.39344     15.29808        -0.386707      0.001021      0.099794
     11.76632     10.39344     15.29808         0.386619      0.001007      0.099588
     13.04285      0.00172     17.30494        -0.000296      0.000871     -0.150167
     13.04286      0.00248     19.86780        -0.000242     -0.000125     -0.044867
     11.08768     10.39559     18.57902         0.069289      0.000582     -0.013249
      1.95499     10.39559     18.57895        -0.068244      0.000570     -0.013242
      9.78452      0.00198     20.55368        -0.004970      0.008663      0.069342
      9.78389      0.00512     23.12407        -0.006690      0.015861      0.454496
      1.22311     10.39726     22.00983         0.128017      0.002927      0.076688
     11.81974     10.39726     22.00983        -0.128108      0.002957      0.076697
      9.78220      2.96955      7.50000         0.000049      0.000064      1.516261
      9.78220      2.96955     10.05323         0.000062      0.000083      1.787339
      1.27661      1.48478      8.77661        -1.741365     -0.000055     -0.819600
     11.76632      1.48478      8.77661         1.741301     -0.000057     -0.819617
      0.00000      2.96955     10.76073         0.000000      0.000037     -1.439705
      0.00000      2.96955     13.31396        -0.000009      0.000436     -0.016975
     11.05881      1.48478     12.03735         0.533463      0.000125      0.049315
      1.98412      1.48478     12.03735        -0.533451      0.000097      0.049293
      9.78220      2.96955     14.02147         0.000244      0.002240     -0.208208
      9.78220      2.96955     16.57469        -0.000546      0.007374      0.153541
      1.27661      1.48478     15.29808        -0.388238      0.002041      0.099930
     11.76632      1.48478     15.29808         0.388150      0.002039      0.099705
     13.04285      2.97093     17.30497        -0.000270     -0.001092     -0.150817
     13.04286      2.97235     19.86759        -0.000217     -0.000521     -0.042029
     11.08783      1.48581     18.57904         0.068817      0.003080     -0.013016
      1.95485      1.48581     18.57897        -0.067921      0.003001     -0.013021
      9.78980      2.96959     20.55257        -0.008898      0.002649      0.074733
      9.77967      2.97628     23.12269        -0.013222      0.000949      0.452050
      1.22266      1.48952     22.01031         0.136035      0.000813      0.078750
     11.82019      1.48952     22.01031        -0.136114      0.000805      0.078758
      9.78220      5.93911      7.50000         0.000047      0.000041      1.516297
      9.78220      5.93911     10.05323         0.000058     -0.000025      1.787612
      1.27661      4.45433      8.77661        -1.741263      0.000007     -0.819640
     11.76632      4.45433      8.77661         1.741279      0.000007     -0.819602
      0.00000      5.93911     10.76073         0.000002     -0.000005     -1.439742
      0.00000      5.93911     13.31396        -0.000006      0.000357     -0.017120
     11.05881      4.45433     12.03735         0.533376      0.000238      0.049359
      1.98412      4.45433     12.03735        -0.533350      0.000234      0.049350
      9.78220      5.93911     14.02147         0.000689      0.001865     -0.206269
      9.78220      5.93911     16.57469        -0.002917      0.003027      0.156694
      1.27661      4.45433     15.29808        -0.387265      0.002194      0.100511
     11.76632      4.45433     15.29808         0.387206      0.002197      0.100276
     13.04285      5.94079     17.30473        -0.000276     -0.001459     -0.152817
     13.04286      5.94189     19.86684        -0.000212     -0.002304     -0.043387
     11.08794      4.45596     18.57777         0.065784     -0.001758     -0.012248
      1.95475      4.45596     18.57771        -0.064978     -0.001753     -0.012267
      9.79088      5.94278     20.55182        -0.003940     -0.012244      0.061306
      9.76936      5.94662     23.12107        -0.011769     -0.053019      0.403439
      1.22287      4.45970     22.01152         0.133272     -0.005246      0.078799
     11.81999      4.45970     22.01152        -0.133357     -0.005253      0.078836
      3.26073      8.90866      7.50000        -0.000037     -0.000173      1.516255
      3.26073      8.90866     10.05323        -0.000075     -0.000144      1.787635
      7.79808      7.42389      8.77661        -1.741140     -0.000187     -0.819607
      5.24485      7.42389      8.77661         1.741088     -0.000182     -0.819597
      6.52147      8.90866     10.76073         0.000016     -0.001052     -1.440800
      6.52147      8.90866     13.31396         0.000011     -0.002035     -0.023630
      4.53735      7.42389     12.03735         0.533002     -0.000384      0.049397
      8.50559      7.42389     12.03735        -0.533016     -0.000318      0.049410
      3.26073      8.90866     14.02147        -0.000263     -0.002012     -0.205969
      3.26073      8.90866     16.57469        -0.000437      0.000387      0.152498
      7.79808      7.42389     15.29808        -0.384346     -0.010322      0.099225
      5.24485      7.42389     15.29808         0.384280     -0.010287      0.099026
      6.52139      8.90496     17.30406        -0.000281     -0.020751     -0.139120
      6.52138      8.91513     19.85787        -0.000242      0.002562     -0.045936
      4.56427      7.42537     18.58180         0.090290     -0.006212     -0.009840
      8.47841      7.42537     18.58174        -0.089343     -0.006159     -0.009839
      3.25567      8.91200     20.55184         0.001879      0.006547      0.062561
      3.26528      8.91155     23.12285        -0.014982      0.032436      0.415072
      7.74746      7.44091     21.99335         0.040098     -0.177171      0.141729
      5.29540      7.44090     21.99335        -0.040229     -0.177146      0.141759
      3.26073      0.00000      7.50000        -0.000042     -0.000150      1.516131
      3.26073      0.00000     10.05323        -0.000111     -0.000099      1.787270
      7.79808     10.39344      8.77661        -1.741098     -0.000121     -0.819656
      5.24485     10.39344      8.77661         1.741101     -0.000127     -0.819663
      6.52147      0.00000     10.76073        -0.000003      0.000048     -1.441705
      6.52147      0.00000     13.31396         0.000012      0.000300     -0.028791
      4.53735     10.39344     12.03735         0.532056     -0.000423      0.049154
      8.50559     10.39344     12.03735        -0.532087     -0.000462      0.049170
      3.26073      0.00000     14.02147        -0.000160     -0.001175     -0.208165
      3.26073      0.00000     16.57469        -0.001823      0.002117      0.146062
      7.79808     10.39344     15.29808        -0.382611     -0.003389      0.099848
      5.24485     10.39344     15.29808         0.382541     -0.003401      0.099625
      6.52138      0.00140     17.30002        -0.000277      0.008413     -0.138274
      6.52139      0.00211     19.85962        -0.000220      0.004256     -0.025278
      4.56465     10.39508     18.57778         0.078990      0.001933     -0.012445
      8.47802     10.39507     18.57771        -0.077994      0.001893     -0.012441
      3.25831      0.00198     20.55368         0.004745      0.008703      0.069320
      3.25898      0.00512     23.12407         0.006641      0.015879      0.454528
      7.74605     10.40059     22.00137         0.113888      0.011041      0.082549
      5.29681     10.40060     22.00138        -0.113966      0.011017      0.082566
      3.26073      2.96955      7.50000        -0.000034      0.000137      1.516058
      3.26073      2.96955     10.05323        -0.000063      0.000063      1.787450
      7.79808      1.48478      8.77661        -1.741109      0.000039     -0.819671
      5.24485      1.48478      8.77661         1.741182      0.000036     -0.819673
      6.52147      2.96955     10.76073        -0.000004      0.001011     -1.440564
      6.52147      2.96955     13.31396         0.000013      0.002549     -0.021301
      4.53735      1.48478     12.03735         0.532252      0.000209      0.049120
      8.50559      1.48478     12.03735        -0.532311      0.000219      0.049159
      3.26073      2.96955     14.02147        -0.000330      0.002268     -0.208258
      3.26073      2.96955     16.57469         0.000136      0.007408      0.153573
      7.79808      1.48478     15.29808        -0.384783      0.007039      0.100733
      5.24485      1.48478     15.29808         0.384749      0.007059      0.100530
      6.52139      2.97675     17.30475        -0.000253      0.017825     -0.129006
      6.52139      2.96414     19.85964        -0.000228      0.009764      0.018742
      4.56435      1.48643     18.57809         0.085338      0.004378     -0.011226
      8.47834      1.48642     18.57802        -0.084456      0.004329     -0.011229
      3.25303      2.96959     20.55257         0.008688      0.002641      0.074751
      3.26320      2.97628     23.12269         0.013165      0.000934      0.452048
      7.74621      1.48586     22.00364         0.102783      0.033346      0.080199
      5.29665      1.48586     22.00365        -0.102916      0.033350      0.080218
      3.26073      5.93911      7.50000        -0.000027      0.000023      1.516220
      3.26073      5.93911     10.05323        -0.000038     -0.000018      1.787699
      7.79808      4.45433      8.77661        -1.741163      0.000111     -0.819465
      5.24485      4.45433      8.77661         1.741102      0.000092     -0.819508
      6.52147      5.93911     10.76073        -0.000010     -0.000093     -1.439471
      6.52147      5.93911     13.31396        -0.000004     -0.000007     -0.006576
      4.53735      4.45433     12.03735         0.533156      0.000471      0.049361
      8.50559      4.45433     12.03735        -0.533203      0.000437      0.049379
      3.26073      5.93911     14.02147        -0.000777      0.001878     -0.206286
      3.26073      5.93911     16.57469         0.002486      0.003007      0.156684
      7.79808      4.45433     15.29808        -0.385245      0.011680      0.097654
      5.24485      4.45433     15.29808         0.385184      0.011706      0.097471
      6.52138      5.93939     17.30912        -0.000279     -0.006398     -0.128477
      6.52140      5.94307     19.88146        -0.000224     -0.022683      0.142328
      4.56438      4.45633     18.58423         0.094735     -0.000327     -0.007770
      8.47831      4.45633     18.58417        -0.093922     -0.000290     -0.007763
      3.25195      5.94278     20.55182         0.003710     -0.012301      0.061304
      3.27351      5.94662     23.12107         0.011722     -0.053011      0.403400
      7.75088      4.44589     21.97586         0.044599      0.103725      0.239668
      5.29197      4.44590     21.97587        -0.044679      0.103729      0.239670
 -----------------------------------------------------------------------------------
    total drift:                               -0.000393      0.010270     -0.224734


--------------------------------------------------------------------------------------------------------



  FREE ENERGIE OF THE ION-ELECTRON SYSTEM (eV)
  ---------------------------------------------------
  free  energy   TOTEN  =     -1563.74436534 eV

  energy  without entropy=    -1563.74436534  energy(sigma->0) =    -1563.74436534



--------------------------------------------------------------------------------------------------------


    POTLOK:  cpu time      1.2535: real time      1.2540


--------------------------------------------------------------------------------------------------------


     LOOP+:  cpu time   5747.9505: real time   5752.3647
    4ORBIT:  cpu time      0.0000: real time      0.0000

 total amount of memory used by VASP MPI-rank0   604315. kBytes
=======================================================================

   base      :      30000. kBytes
   nonl-proj :     396165. kBytes
   fftplans  :      41312. kBytes
   grid      :      57314. kBytes
   one-center:       1866. kBytes
   wavefun   :      77658. kBytes

  
  
 General timing and accounting informations for this job:
 ========================================================
  
                  Total CPU time used (sec):     5889.356
                            User time (sec):     5875.074
                          System time (sec):       14.282
                         Elapsed time (sec):     5907.913
  
                   Maximum memory used (kb):     1168944.
                   Average memory used (kb):          N/A
  
                          Minor page faults:      1753038
                          Major page faults:         1241
                 Voluntary context switches:        11414
