 vasp.6.3.0 20Jan22 (build Aug 21 2024 11:13:42) complex                         
 executed on        HPECrayEX_GCC date 2024.08.23  20:19:17
 running  512 mpi-ranks, with    1 threads/rank
 distrk:  each k-point on  512 cores,    1 groups
 distr:  one band on NCORE=   8 cores,   64 groups


--------------------------------------------------------------------------------------------------------


 INCAR:
   SYSTEM = MgO-rocksalt
   ISMEAR = 0
   SIGMA = 0.05
   EDIFF = 1E-6
   ALGO = ALL
   ISTART = 0
   IBRION = -1
   NSW = 0
   ISYM = 0
   DIPOL = 0.5 0.5 0.5
   IDIPOL = 4
   LDIPOL = .TRUE.
   GGA = PE
   IVDW = 1
   VDW_C6 = 1.75 0.14
   VDW_R0 = 1.452 1.001
   ENCUT = 600
   PREC = Accurate
   LASPH = .TRUE.
   LREAL = .FALSE.
   ISPIN = 1
   NELM = 200
   NELMIN = 8
   NCORE = 8
   KPAR = 1
   LWAVE = .FALSE.
   LCHARG = .FALSE.

 POTCAR:    PAW_PBE C 08Apr2002                   
 POTCAR:    PAW_PBE H 15Jun2001                   
 POTCAR:    PAW_PBE C 08Apr2002                   
   SHA256 =  253f7b50bb8d59471dbedb8285d89021f4a42ed1a2c5d38a03a736e69125dd95 C/POTCAR              
   COPYR  = (c) Copyright 08Apr2002 Georg Kresse                                                    
   COPYR  = This file is part of the software VASP. Any use, copying, and all other rights are regul
   COPYR  = If you do not have a valid VASP license, you may not use, copy or distribute this file. 
   VRHFIN =C: s2p2                                                                                  
   LEXCH  = PE                                                                                      
   EATOM  =   147.1560 eV,   10.8157 Ry                                                             
                                                                                                    
   TITEL  = PAW_PBE C 08Apr2002                                                                     
   LULTRA =        F    use ultrasoft PP ?                                                          
   IUNSCR =        1    unscreen: 0-lin 1-nonlin 2-no                                               
   RPACOR =    1.200    partial core radius                                                         
   POMASS =   12.011; ZVAL   =    4.000    mass and valenz                                          
   RCORE  =    1.500    outmost cutoff radius                                                       
   RWIGS  =    1.630; RWIGS  =    0.863    wigner-seitz radius (au A)                               
   ENMAX  =  400.000; ENMIN  =  300.000 eV                                                          
   ICORE  =        2    local potential                                                             
   LCOR   =        T    correct aug charges                                                         
   LPAW   =        T    paw PP                                                                      
   EAUG   =  644.873                                                                                
   DEXC   =    0.000                                                                                
   RMAX   =    1.529    core radius for proj-oper                                                   
   RAUG   =    1.300    factor for augmentation sphere                                              
   RDEP   =    1.501    radius for radial grids                                                     
   RDEPT  =    1.300    core radius for aug-charge                                                  
                                                                                                    
   Atomic configuration                                                                             
    4 entries                                                                                       
     n  l   j            E        occ.                                                              
     1  0  0.50      -273.3789   2.0000                                                             
     2  0  0.50       -13.7508   2.0000                                                             
     2  1  0.50        -5.2854   2.0000                                                             
     3  2  1.50        -5.4423   0.0000                                                             
   Description                                                                                      
     l       E           TYP  RCUT    TYP  RCUT                                                     
     0    -13.7508458     23  1.200                                                                 
     0     -8.2022199     23  1.200                                                                 
     1     -5.2854383     23  1.500                                                                 
     1     34.0145650     23  1.500                                                                 
     2     -5.4423304      7  1.500                                                                 
  local pseudopotential read in
  partial core-charges read in
  partial kinetic energy density read in
  atomic valenz-charges read in
  non local Contribution for L=           0  read in
    real space projection operators read in
  non local Contribution for L=           0  read in
    real space projection operators read in
  non local Contribution for L=           1  read in
    real space projection operators read in
  non local Contribution for L=           1  read in
    real space projection operators read in
    PAW grid and wavefunctions read in

   number of l-projection  operators is LMAX  =           4
   number of lm-projection operators is LMMAX =           8

 POTCAR:    PAW_PBE H 15Jun2001                   
   SHA256 =  030f79b5d3ab3cf0e668861823c8fb652ff669f3e15e46930bd03bfd63a607b6 H/POTCAR              
   COPYR  = (c) Copyright 15Jun2001 Georg Kresse                                                    
   COPYR  = This file is part of the software VASP. Any use, copying, and all other rights are regul
   COPYR  = If you do not have a valid VASP license, you may not use, copy or distribute this file. 
   VRHFIN =H: ultrasoft test                                                                        
   LEXCH  = PE                                                                                      
   EATOM  =    12.4884 eV,    0.9179 Ry                                                             
                                                                                                    
   TITEL  = PAW_PBE H 15Jun2001                                                                     
   LULTRA =        F    use ultrasoft PP ?                                                          
   IUNSCR =        0    unscreen: 0-lin 1-nonlin 2-no                                               
   RPACOR =    0.000    partial core radius                                                         
   POMASS =    1.000; ZVAL   =    1.000    mass and valenz                                          
   RCORE  =    1.100    outmost cutoff radius                                                       
   RWIGS  =    0.700; RWIGS  =    0.370    wigner-seitz radius (au A)                               
   ENMAX  =  250.000; ENMIN  =  200.000 eV                                                          
   RCLOC  =    0.701    cutoff for local pot                                                        
   LCOR   =        T    correct aug charges                                                         
   LPAW   =        T    paw PP                                                                      
   EAUG   =  400.000                                                                                
   RMAX   =    1.123    core radius for proj-oper                                                   
   RAUG   =    1.200    factor for augmentation sphere                                              
   RDEP   =    1.112    radius for radial grids                                                     
   RDEPT  =    0.926    core radius for aug-charge                                                  
                                                                                                    
   Atomic configuration                                                                             
    2 entries                                                                                       
     n  l   j            E        occ.                                                              
     1  0  0.50        -6.4927   1.0000                                                             
     2  1  0.50        -3.4015   0.0000                                                             
   Description                                                                                      
     l       E           TYP  RCUT    TYP  RCUT                                                     
     0     -6.4927494     23  1.100                                                                 
     0      6.8029130     23  1.100                                                                 
     1     -4.0817478     23  1.100                                                                 
  local pseudopotential read in
  atomic valenz-charges read in
  non local Contribution for L=           0  read in
    real space projection operators read in
  non local Contribution for L=           0  read in
    real space projection operators read in
  non local Contribution for L=           1  read in
    real space projection operators read in
    PAW grid and wavefunctions read in

   number of l-projection  operators is LMAX  =           3
   number of lm-projection operators is LMMAX =           5

  PAW_PBE C 08Apr2002                   :
 energy of atom  1       EATOM= -147.1560
 kinetic energy error for atom=    0.0057 (will be added to EATOM!!)
  PAW_PBE H 15Jun2001                   :
 energy of atom  2       EATOM=  -12.4884
 kinetic energy error for atom=    0.0004 (will be added to EATOM!!)


 POSCAR:  C  H
  positions in direct lattice
  No initial velocities read in
 exchange correlation table for  LEXCH =        8
   RHO(1)=    0.500       N(1)  =     2000
   RHO(2)=  100.500       N(2)  =     4000



--------------------------------------------------------------------------------------------------------


 ion  position               nearest neighbor table
   1  0.466  0.520  0.481-   5 1.10   4 1.10   3 1.10   2 1.54
   2  0.534  0.480  0.519-   8 1.10   7 1.10   6 1.10   1 1.54
   3  0.435  0.481  0.441-   1 1.10
   4  0.484  0.571  0.446-   1 1.10
   5  0.425  0.540  0.525-   1 1.10
   6  0.575  0.461  0.474-   2 1.10
   7  0.516  0.429  0.552-   2 1.10
   8  0.564  0.518  0.559-   2 1.10


IMPORTANT INFORMATION: All symmetrisations will be switched off!
NOSYMM: (Re-)initialisation of all symmetry stuff for point group C_1.


----------------------------------------------------------------------------------------

                                     Primitive cell                                     

  volume of cell :    5234.4338

  direct lattice vectors                    reciprocal lattice vectors
    17.628904171  0.000000000  0.000000000     0.056725023  0.000000000  0.000000000
     0.000000000 17.463116291  0.000000000     0.000000000  0.057263548  0.000000000
     0.000000000  0.000000000 17.002886139     0.000000000  0.000000000  0.058813544

  length of vectors
    17.628904171 17.463116291 17.002886139     0.056725023  0.057263548  0.058813544

  position of ions in fractional coordinates (direct lattice)
     0.465926746  0.520399236  0.480682752
     0.534100942  0.479860425  0.518603407
     0.435363455  0.481419489  0.441101583
     0.483819475  0.570523389  0.446477049
     0.425437675  0.540120014  0.525309807
     0.574562325  0.460637587  0.473694114
     0.516064836  0.429476611  0.552347041
     0.564495458  0.518170606  0.558898417

  ion indices of the primitive-cell ions
   primitive index   ion index
                 1           1
                 2           2
                 3           3
                 4           4
                 5           5
                 6           6
                 7           7
                 8           8

----------------------------------------------------------------------------------------



 KPOINTS: pymatgen v2020.8.13 with grid density = 

Automatic generation of k-mesh.
 Grid dimensions read from file:
 generate k-points for:    1    1    1

 Generating k-lattice:

  Cartesian coordinates                     Fractional coordinates (reciprocal lattice)
     0.056725023  0.000000000  0.000000000     1.000000000  0.000000000  0.000000000
     0.000000000  0.057263548  0.000000000     0.000000000  1.000000000  0.000000000
     0.000000000  0.000000000  0.058813544     0.000000000  0.000000000  1.000000000

  Length of vectors
     0.056725023  0.057263548  0.058813544

  Shift w.r.t. Gamma in fractional coordinates (k-lattice)
     0.000000000  0.000000000  0.000000000

 
 Subroutine IBZKPT returns following result:
 ===========================================
 
 Found      1 irreducible k-points:
 
 Following reciprocal coordinates:
            Coordinates               Weight
  0.000000  0.000000  0.000000      1.000000
 
 Following cartesian coordinates:
            Coordinates               Weight
  0.000000  0.000000  0.000000      1.000000
 


--------------------------------------------------------------------------------------------------------




 Dimension of arrays:
   k-points           NKPTS =      1   k-points in BZ     NKDIM =      1   number of bands    NBANDS=     64
   number of dos      NEDOS =    301   number of ions     NIONS =      8
   non local maximal  LDIM  =      4   non local SUM 2l+1 LMDIM =      8
   total plane-waves  NPLWV = ******
   max r-space proj   IRMAX =      1   max aug-charges    IRDMAX=   6562
   dimension x,y,z NGX =   144 NGY =  140 NGZ =  140
   dimension x,y,z NGXF=   288 NGYF=  280 NGZF=  280
   support grid    NGXF=   288 NGYF=  280 NGZF=  280
   ions per type =               2   6
   NGX,Y,Z   is equivalent  to a cutoff of  13.58, 13.33, 13.69 a.u.
   NGXF,Y,Z  is equivalent  to a cutoff of  27.16, 26.66, 27.38 a.u.

 SYSTEM =  MgO-rocksalt                            
 POSCAR =   C  H                                   

--------------------------------------------------------------------------------------------------------


  energy-cutoff  :      600.00
  volume of cell :     5234.43
      direct lattice vectors                 reciprocal lattice vectors
    17.628904171  0.000000000  0.000000000     0.056725023  0.000000000  0.000000000
     0.000000000 17.463116291  0.000000000     0.000000000  0.057263548  0.000000000
     0.000000000  0.000000000 17.002886139     0.000000000  0.000000000  0.058813544

  length of vectors
    17.628904171 17.463116291 17.002886139     0.056725023  0.057263548  0.058813544



 k-points in units of 2pi/SCALE and weight: pymatgen v2020.8.13 with grid density = 
   0.00000000  0.00000000  0.00000000       1.000

 k-points in reciprocal lattice and weights: pymatgen v2020.8.13 with grid density = 
   0.00000000  0.00000000  0.00000000       1.000

 position of ions in fractional coordinates (direct lattice) 
   0.46592675  0.52039924  0.48068275
   0.53410094  0.47986043  0.51860341
   0.43536346  0.48141949  0.44110158
   0.48381948  0.57052339  0.44647705
   0.42543767  0.54012001  0.52530981
   0.57456233  0.46063759  0.47369411
   0.51606484  0.42947661  0.55234704
   0.56449546  0.51817061  0.55889842

 position of ions in cartesian coordinates  (Angst):
   8.21377795  9.08779238  8.17299411
   9.41561433  8.37985841  8.81775469
   7.67498064  8.40708452  7.50000000
   8.52920717  9.96311629  7.59139842
   7.50000000  9.43217862  8.93178284
  10.12890417  8.04416775  8.05416709
   9.09765754  7.50000000  9.39149385
   9.95143633  9.04887355  9.50288614



--------------------------------------------------------------------------------------------------------

--------------------------------------- Iteration      FINAL  ---------------------------------------


--------------------OUTCAR has been truncated-------------------------


--------------------OUTCAR has been truncated-------------------------


--------------------OUTCAR has been truncated-------------------------


--------------------OUTCAR has been truncated-------------------------


--------------------OUTCAR has been truncated-------------------------


--------------------OUTCAR has been truncated-------------------------


--------------------OUTCAR has been truncated-------------------------


--------------------OUTCAR has been truncated-------------------------


--------------------OUTCAR has been truncated-------------------------


--------------------OUTCAR has been truncated-------------------------


  DFT-D2 method for vdW energy calculation
  -------------------------------------------------------------------

  Parameters of vdW forcefield:
         C6(Jnm^6/mol)     R0(A)
   -----------------------------
   C        1.750          1.452
   H        0.140          1.001

  vdW correction parametrized for the method pbe       

  IVDW =   1
  VDW_RADIUS =    50.000 A
  VDW_S6 =     0.750
  VDW_SR =     1.000
  VDW_D =    20.000
  LVDW_EWALD = F

  Number of pair interactions contributing to vdW energy:    3292
  Edisp (eV):   -0.06898
    FORVDW:  cpu time      0.0012: real time      0.0012

  FORCE on cell =-STRESS in cart. coord.  units (eV):
  Direction    XX          YY          ZZ          XY          YZ          ZX
  --------------------------------------------------------------------------------------
  Alpha Z     0.14895     0.14895     0.14895
  Ewald     207.03516   142.02435   141.39592   -58.95433   -31.88669    53.73063
  Hartree   294.70877   244.28015   245.39982   -45.71914   -24.53810    41.65712
  E(xc)     -48.46339   -48.48820   -48.49402    -0.02310    -0.01395     0.02142
  Local    -613.66467  -495.54552  -495.91157   107.06054    57.63717   -97.56588
  n-local   -25.28787   -25.83167   -25.88696    -0.49471    -0.27058     0.45334
  augment     0.04433     0.01929     0.01761    -0.02264    -0.01162     0.02067
  Kinetic   185.35446   183.31732   183.32729    -1.76536    -0.85082     1.58886
  Fock        0.00000     0.00000     0.00000     0.00000     0.00000     0.00000
  vdW         0.06421     0.09199     0.09303     0.02412     0.01213    -0.02179
  -------------------------------------------------------------------------------------
  Total      -0.06004     0.01667     0.09006     0.10539     0.07754    -0.11563
  in kB      -0.01838     0.00510     0.02757     0.03226     0.02373    -0.03539
  external pressure =        0.00 kB  Pullay stress =        0.00 kB


 VOLUME and BASIS-vectors are now :
 -----------------------------------------------------------------------------
  energy-cutoff  :      600.00
  volume of cell :     5234.43
      direct lattice vectors                 reciprocal lattice vectors
    17.628904171  0.000000000  0.000000000     0.056725023  0.000000000  0.000000000
     0.000000000 17.463116291  0.000000000     0.000000000  0.057263548  0.000000000
     0.000000000  0.000000000 17.002886139     0.000000000  0.000000000  0.058813544

  length of vectors
    17.628904171 17.463116291 17.002886139     0.056725023  0.057263548  0.058813544


 FORCES acting on ions:
    Electron-Ion                     Ewald-Force                    Non-Local-Force
 -----------------------------------------------------------------------------------------------
   0.603E+02 -.359E+02 0.326E+02   -.602E+02 0.358E+02 -.326E+02   0.643E-01 -.124E+00 0.859E-01
   -.605E+02 0.356E+02 -.326E+02   0.604E+02 -.355E+02 0.325E+02   -.105E+00 0.879E-01 -.786E-01
   0.364E+02 0.319E+02 0.400E+02   -.391E+02 -.352E+02 -.435E+02   0.272E+01 0.339E+01 0.337E+01
   -.933E+01 -.513E+02 0.351E+02   0.109E+02 0.557E+02 -.381E+02   -.155E+01 -.441E+01 0.293E+01
   0.457E+02 -.229E+02 -.365E+02   -.494E+02 0.247E+02 0.404E+02   0.361E+01 -.174E+01 -.379E+01
   -.458E+02 0.224E+02 0.368E+02   0.494E+02 -.242E+02 -.406E+02   -.360E+01 0.169E+01 0.381E+01
   0.942E+01 0.515E+02 -.347E+02   -.110E+02 -.560E+02 0.376E+02   0.156E+01 0.442E+01 -.289E+01
   -.362E+02 -.313E+02 -.407E+02   0.390E+02 0.347E+02 0.442E+02   -.271E+01 -.334E+01 -.345E+01
 -----------------------------------------------------------------------------------------------
   0.141E-01 0.171E-01 0.114E-01   0.000E+00 0.000E+00 -.142E-13   -.141E-01 -.172E-01 -.114E-01


 POSITION                                       TOTAL-FORCE (eV/Angst)
 -----------------------------------------------------------------------------------
      8.21378      9.08779      8.17299         0.126900     -0.159983      0.103710
      9.41561      8.37986      8.81775        -0.160104      0.129626     -0.103959
      7.67498      8.40708      7.50000        -0.021501      0.000069     -0.060610
      8.52921      9.96312      7.59140         0.026086      0.048011     -0.054871
      7.50000      9.43218      8.93178        -0.047587      0.032327      0.070879
     10.12890      8.04417      8.05417         0.055310     -0.039510     -0.038725
      9.09766      7.50000      9.39149        -0.019746     -0.061569      0.032467
      9.95144      9.04887      9.50289         0.040641      0.051029      0.051110
 -----------------------------------------------------------------------------------
    total drift:                                0.000043     -0.000014     -0.000036


--------------------------------------------------------------------------------------------------------



  FREE ENERGIE OF THE ION-ELECTRON SYSTEM (eV)
  ---------------------------------------------------
  free  energy   TOTEN  =       -40.58567581 eV

  energy  without entropy=      -40.58567581  energy(sigma->0) =      -40.58567581



--------------------------------------------------------------------------------------------------------


    POTLOK:  cpu time      0.1648: real time      0.1648


--------------------------------------------------------------------------------------------------------


     LOOP+:  cpu time     20.9170: real time     20.9622
    4ORBIT:  cpu time      0.0000: real time      0.0000

 total amount of memory used by VASP MPI-rank0    68214. kBytes
=======================================================================

   base      :      30000. kBytes
   nonl-proj :       5586. kBytes
   fftplans  :      13010. kBytes
   grid      :      18565. kBytes
   one-center:          3. kBytes
   wavefun   :       1050. kBytes

  
  
 General timing and accounting informations for this job:
 ========================================================
  
                  Total CPU time used (sec):       50.548
                            User time (sec):       49.652
                          System time (sec):        0.896
                         Elapsed time (sec):       65.410
  
                   Maximum memory used (kb):      216012.
                   Average memory used (kb):          N/A
  
                          Minor page faults:        28626
                          Major page faults:         1170
                 Voluntary context switches:        10804
