 **********************************************************************
                          MRCC program system
 **********************************************************************
 
                              Written by
     Mihaly Kallay, Peter R. Nagy, David Mester, Laszlo Gyevi-Nagy,
        Jozsef Csoka, P. Bernat Szabo, Zoltan Rolik, Gyula Samu,
     Jozsef Csontos, Bence Hegely, Adam Ganyecz, Istvan Ladjanszki,
       Lorant Szegedy, Bence Ladoczki, Klara Petrov, Mate Farkas,
                    Pal D. Mezei, and Reka A. Horvath
 
        Department of Physical Chemistry and Materials Science
            Budapest University of Technology and Economics
                  Budapest P.O.Box 91, H-1521 Hungary
 
                              www.mrcc.hu
 
                      Release date: March 18, 2022

 ************************ 2023-02-05 13:13:11 *************************
 Executing minp...

 Reading input from MINP...
 
 Input file:
 
calc=FNO-CCSD(T)
verbosity=3
mem=220GB
unit=angs
scfiguess=small
scfalg=locfit1
ccmaxit=400
ccsdalg=dfdirect
ccsdthreads=4
ccsdmkl=thr
ptthreads=4
lnoepsv=1e-5
naf_cor=1e-2
basis=aug-cc-pVTZ
basis_sm=def2-SVP
dfbasis_scf=def2-QZVPP-RI-JK
dfbasis_cor=aug-cc-pVTZ-RI
unit=angs
geom=xyz
16

C    34.41670262    34.07107264    10.41543014
C    33.11117461    33.45680459    10.91530835
H    34.24160149    35.00442132     9.86225048
H    34.94674030    33.36940783     9.75379242
H    35.10002891    34.30603621    11.24227357
H    32.42643037    33.26105434    10.07939442
H    32.59136835    34.12756100    11.61262818
H    33.28915165    32.50678735    11.43686767
C    34.41670262    17.18910333    10.41543014
C    33.11117461    16.57483529    10.91530835
H    34.24160149    18.12245202     9.86225048
H    34.94674030    16.48743852     9.75379242
H    35.10002891    17.42406690    11.24227357
H    32.42643037    16.37908503    10.07939442
H    32.59136835    17.24559169    11.61262818
H    33.28915165    15.62481804    11.43686767

--------------------Output has been truncated-------------------------


--------------------Output has been truncated-------------------------


--------------------Output has been truncated-------------------------


--------------------Output has been truncated-------------------------


--------------------Output has been truncated-------------------------


--------------------Output has been truncated-------------------------


--------------------Output has been truncated-------------------------


--------------------Output has been truncated-------------------------


--------------------Output has been truncated-------------------------


--------------------Output has been truncated-------------------------


 
 Reference energy [au]:                      -158.519101014731
 DF-MP2 singlet pair energy [au]:              -0.600508764162
 DF-MP2 triplet pair energy [au]:              -0.150063069638
 DF-SCS-MP2 correlation energy [au]:           -0.770631540207
 DF-SCS-MP2 energy [au]:                     -159.289732554938
 DF-SOS-MP2 correlation energy [au]:           -0.780661393411
 DF-SOS-MP2 energy [au]:                     -159.299762408142
 DF-MP2 correlation energy [au]:               -0.750571833800
 DF-MP2 energy [au]:                         -159.269672848531

 Results in FNO basis:
 
 
 Reference energy [au]:                      -158.519101014731
 DF-MP2 singlet pair energy [au]:              -0.598168367491
 DF-MP2 triplet pair energy [au]:              -0.149850527582
 DF-SCS-MP2 correlation energy [au]:           -0.767752216850
 DF-SCS-MP2 energy [au]:                     -159.286853231581
 DF-SOS-MP2 correlation energy [au]:           -0.777618877739
 DF-SOS-MP2 energy [au]:                     -159.296719892469
 DF-MP2 correlation energy [au]:               -0.748018895074
 DF-MP2 energy [au]:                         -159.267119909805

 Results in NAF basis:
 
 
 Reference energy [au]:                      -158.519101014731
 DF-MP2 singlet pair energy [au]:              -0.598047647560
 DF-MP2 triplet pair energy [au]:              -0.149928742177
 DF-SCS-MP2 correlation energy [au]:           -0.767633424464
 DF-SCS-MP2 energy [au]:                     -159.286734439195
 DF-SOS-MP2 correlation energy [au]:           -0.777461941828
 DF-SOS-MP2 energy [au]:                     -159.296562956559
 DF-MP2 correlation energy [au]:               -0.747976389737
 DF-MP2 energy [au]:                         -159.267077404467

 ************************ 2023-02-05 13:13:54 *************************
 Executing ccsd...

 Allocation of 220.0 Gbytes of memory...

 Direct DF-CCSD(T) calculation
 
 Convergence criterion:  1.0E-06
 
 Number of occupied/virtual/auxiliary orbitals:    14   278   756
   3422.71 MB is the minimal memory requirement for (T)
    780.99 MB is the minimal memory requirement for CCSD
 
 Reference energy [au]:            -158.519101014731
 T1 contribution [au]:                0.000000000000
 Same spin MP2 energy [au]:          -0.149889516901
 Opposite spin MP2 energy [au]:      -0.598107666659
 MP2 correlation energy [au]:        -0.747997183560
 Total MP2 energy [au]:            -159.267098198290
 MP2 correction [au]:                -0.002574650241
 
 
 CPU time [min]:     0.909                   Wall time [min]:     0.135
 
 Starting CCSD iterations...
 
                     Residual norm          Energy
 Iteration  1        0.241423293814     -159.308955308563
 Iteration  2        0.060038184628     -159.328085086017
 Iteration  3        0.015975770212     -159.329997196122
 Iteration  4        0.003604178821     -159.330013837855
 Iteration  5        0.000758960511     -159.330024251589
 Iteration  6        0.000215373789     -159.330030406729
 Iteration  7        0.000051276076     -159.330029976107
 Iteration  8        0.000013080226     -159.330030559378
 Iteration  9        0.000002622457     -159.330030507338
 
 CCSD iteration has converged in  9 steps.
    23656.02 MB memory was utilized by CCSD
 
 T1 diagnostic:      7.816E-03            D1 diagnostic:      1.353E-02
 
 T1 contribution [au]:                                  0.000000000000
 PPL energy contribution [au]:                          0.205822950887
 Scaled PPL energy contribution [au]:                   0.206540145977

 OS-PPL energy contribution [au]:                       0.179922576277
 Scaled OS-PPL energy contribution [au]:                0.180664530922
 SS-PPL energy contribution [au]:                       0.025900374610
 Scaled SS-PPL energy contribution [au]:                0.025924009751

 Opposite spin CCSD energy [au]:                       -0.668568212375
 Same spin CCSD energy [au]:                           -0.142398189800
 CCSD correlation energy [au]:                         -0.810966402175
 CCSD correlation energy + MP2 correction [au]:        -0.813541052416
 CCSD correlation energy + MP2 + PPL corr. [au]:       -0.812823857326
 Total CCSD energy [au]:                             -159.330067416906
 Total CCSD energy + MP2 correction [au]:            -159.332642067147
 Total CCSD energy + MP2 + PPL corr. [au]:           -159.331924872057
 
 CPU time [min]:    53.231                   Wall time [min]:     1.815
 
 Calculation of (T) correction...
 
 
     4429.83 MB memory is utilized for (T)

 0%       25%       50%       75%       100%
 |---------|---------|---------|---------| 
 
 (T) correction [au]:                                    -0.027917789855
 (T*) correction [au]:                                   -0.028013884527
 (T+) correction [au]:                                   -0.028012706257
 CCSD(T) correlation energy [au]:                        -0.838884192030
 CCSD(T) correlation energy + MP2 correction [au]:       -0.841458842271
 CCSD(T+) correlation en. + MP2 + PPL corr. [au]:        -0.840836563583
 Total CCSD(T) energy [au]:                            -159.357985206761
 Total CCSD(T) energy + MP2 correction [au]:           -159.360559857002
 Total CCSD(T+) energy + MP2 + PPL corr. [au]:         -159.359937578314
 
 CPU time [min]:   109.742                   Wall time [min]:     3.479
 
 ************************ 2023-02-05 13:17:23 *************************
                      Normal termination of mrcc.
 **********************************************************************
