 vasp.6.3.0 20Jan22 (build Mar 11 2022 13:48:16) complex                        
  
 executed on             LinuxIFC date 2024.01.22  04:54:42
 running on  304 total cores
 distrk:  each k-point on  304 cores,    1 groups
 distr:  one band on NCORE=   2 cores,  152 groups


--------------------------------------------------------------------------------------------------------


 INCAR:
   SYSTEM = TiO2
   ISMEAR = 0
   SIGMA = 0.05
   EDIFF = 1E-5
   ALGO = ALL
   ISTART = 0
   IBRION = -1
   NSW = 0
   ISYM = 0
   ISIF = 2
   EDIFFG = -0.01
   DIPOL = 0.5 0.5 0.5
   IDIPOL = 3
   LDIPOL = .TRUE.
   GGA = RE
   AGGAC = 0.0
   LUSE_VDW = .TRUE.
   LASPH = .TRUE.
   ENCUT = 600
   PREC = Accurate
   LASPH = .TRUE.
   LREAL = .FALSE.
   ISPIN = 1
   NELM = 200
   NELMIN = 8
   NCORE = 2
   KPAR = 1
   LWAVE = .FALSE.
   LCHARG = .FALSE.

 POTCAR:    PAW_PBE H 15Jun2001                   
 POTCAR:    PAW_PBE O 08Apr2002                   
 POTCAR:    PAW_PBE Ti_pv 07Sep2000               
 POTCAR:    PAW_PBE O 08Apr2002                   
 -----------------------------------------------------------------------------
|                                                                             |
|           W    W    AA    RRRRR   N    N  II  N    N   GGGG   !!!           |
|           W    W   A  A   R    R  NN   N  II  NN   N  G    G  !!!           |
|           W    W  A    A  R    R  N N  N  II  N N  N  G       !!!           |
|           W WW W  AAAAAA  RRRRR   N  N N  II  N  N N  G  GGG   !            |
|           WW  WW  A    A  R   R   N   NN  II  N   NN  G    G                |
|           W    W  A    A  R    R  N    N  II  N    N   GGGG   !!!           |
|                                                                             |
|     For optimal performance we recommend to set                             |
|       NCORE = 2 up to number-of-cores-per-socket                            |
|     NCORE specifies how many cores store one orbital (NPAR=cpu/NCORE).      |
|     This setting can greatly improve the performance of VASP for DFT.       |
|     The default, NCORE=1 might be grossly inefficient on modern             |
|     multi-core architectures or massively parallel machines. Do your        |
|     own testing! More info at https://www.vasp.at/wiki/index.php/NCORE      |
|     Unfortunately you need to use the default for GW and RPA                |
|     calculations (for HF NCORE is supported but not extensively tested      |
|     yet).                                                                   |
|                                                                             |
 -----------------------------------------------------------------------------

 -----------------------------------------------------------------------------
|                                                                             |
|               ----> ADVICE to this user running VASP <----                  |
|                                                                             |
|     You have switched on vdW-DFT.                                           |
|     This routine was written and supplied by Jiri Klimes. We recommend      |
|     that you carefully read and cite the following publications:            |
|       J. Klimes, D.R. Bowler, A. Michelides                                 |
|          J. Phys.: Cond Matt. 22 022201 (2010)                              |
|       J. Klimes, D.R. Bowler, A. Michelides                                 |
|          Phys. Rev. B. 83, 195131 (2011)                                    |
|     and references therein.                                                 |
|                                                                             |
 -----------------------------------------------------------------------------

 POTCAR:    PAW_PBE H 15Jun2001                   
   SHA256 =  030f79b5d3ab3cf0e668861823c8fb652ff669f3e15e46930bd03bfd63a607b6 H/POTCAR              
   COPYR  = (c) Copyright 15Jun2001 Georg Kresse                                                    
   COPYR  = This file is part of the software VASP. Any use, copying, and all other rights are regul
   COPYR  = If you do not have a valid VASP license, you may not use, copy or distribute this file. 
   VRHFIN =H: ultrasoft test                                                                        
   LEXCH  = PE                                                                                      
   EATOM  =    12.4884 eV,    0.9179 Ry                                                             
                                                                                                    
   TITEL  = PAW_PBE H 15Jun2001                                                                     
   LULTRA =        F    use ultrasoft PP ?                                                          
   IUNSCR =        0    unscreen: 0-lin 1-nonlin 2-no                                               
   RPACOR =    0.000    partial core radius                                                         
   POMASS =    1.000; ZVAL   =    1.000    mass and valenz                                          
   RCORE  =    1.100    outmost cutoff radius                                                       
   RWIGS  =    0.700; RWIGS  =    0.370    wigner-seitz radius (au A)                               
   ENMAX  =  250.000; ENMIN  =  200.000 eV                                                          
   RCLOC  =    0.701    cutoff for local pot                                                        
   LCOR   =        T    correct aug charges                                                         
   LPAW   =        T    paw PP                                                                      
   EAUG   =  400.000                                                                                
   RMAX   =    1.123    core radius for proj-oper                                                   
   RAUG   =    1.200    factor for augmentation sphere                                              
   RDEP   =    1.112    radius for radial grids                                                     
   RDEPT  =    0.926    core radius for aug-charge                                                  
                                                                                                    
   Atomic configuration                                                                             
    2 entries                                                                                       
     n  l   j            E        occ.                                                              
     1  0  0.50        -6.4927   1.0000                                                             
     2  1  0.50        -3.4015   0.0000                                                             
   Description                                                                                      
     l       E           TYP  RCUT    TYP  RCUT                                                     
     0     -6.4927494     23  1.100                                                                 
     0      6.8029130     23  1.100                                                                 
     1     -4.0817478     23  1.100                                                                 
  local pseudopotential read in
  atomic valenz-charges read in
  non local Contribution for L=           0  read in
    real space projection operators read in
  non local Contribution for L=           0  read in
    real space projection operators read in
  non local Contribution for L=           1  read in
    real space projection operators read in
    PAW grid and wavefunctions read in
 
   number of l-projection  operators is LMAX  =           3
   number of lm-projection operators is LMMAX =           5
 
 POTCAR:    PAW_PBE O 08Apr2002                   
   SHA256 =  818f92134a0a090dccd8ba1447fa70422a3b330e708bb4f08108d8ae51209ddf O/POTCAR              
   COPYR  = (c) Copyright 08Apr2002 Georg Kresse                                                    
   COPYR  = This file is part of the software VASP. Any use, copying, and all other rights are regul
   COPYR  = If you do not have a valid VASP license, you may not use, copy or distribute this file. 
   VRHFIN =O: s2p4                                                                                  
   LEXCH  = PE                                                                                      
   EATOM  =   432.3788 eV,   31.7789 Ry                                                             
                                                                                                    
   TITEL  = PAW_PBE O 08Apr2002                                                                     
   LULTRA =        F    use ultrasoft PP ?                                                          
   IUNSCR =        1    unscreen: 0-lin 1-nonlin 2-no                                               
   RPACOR =    1.200    partial core radius                                                         
   POMASS =   16.000; ZVAL   =    6.000    mass and valenz                                          
   RCORE  =    1.520    outmost cutoff radius                                                       
   RWIGS  =    1.550; RWIGS  =    0.820    wigner-seitz radius (au A)                               
   ENMAX  =  400.000; ENMIN  =  300.000 eV                                                          
   ICORE  =        2    local potential                                                             
   LCOR   =        T    correct aug charges                                                         
   LPAW   =        T    paw PP                                                                      
   EAUG   =  605.392                                                                                
   DEXC   =    0.000                                                                                
   RMAX   =    1.553    core radius for proj-oper                                                   
   RAUG   =    1.300    factor for augmentation sphere                                              
   RDEP   =    1.550    radius for radial grids                                                     
   RDEPT  =    1.329    core radius for aug-charge                                                  
                                                                                                    
   Atomic configuration                                                                             
    4 entries                                                                                       
     n  l   j            E        occ.                                                              
     1  0  0.50      -514.6923   2.0000                                                             
     2  0  0.50       -23.9615   2.0000                                                             
     2  1  0.50        -9.0305   4.0000                                                             
     3  2  1.50        -9.5241   0.0000                                                             
   Description                                                                                      
     l       E           TYP  RCUT    TYP  RCUT                                                     
     0    -23.9615318     23  1.200                                                                 
     0     -9.5240782     23  1.200                                                                 
     1     -9.0304911     23  1.520                                                                 
     1      8.1634956     23  1.520                                                                 
     2     -9.5240782      7  1.500                                                                 
  local pseudopotential read in
  partial core-charges read in
  partial kinetic energy density read in
  kinetic energy density of atom read in
  atomic valenz-charges read in
  non local Contribution for L=           0  read in
    real space projection operators read in
  non local Contribution for L=           0  read in
    real space projection operators read in
  non local Contribution for L=           1  read in
    real space projection operators read in
  non local Contribution for L=           1  read in
    real space projection operators read in
    PAW grid and wavefunctions read in
 
   number of l-projection  operators is LMAX  =           4
   number of lm-projection operators is LMMAX =           8
 
 POTCAR:    PAW_PBE Ti_pv 07Sep2000               
   SHA256 =  f757a1b2c6d082f4c628fa3d987464a8763bf92e53844ac0500b0e2ddc9ce5c0 Ti_pv/POTCAR          
   COPYR  = (c) Copyright 07Sep2000 Georg Kresse                                                    
   COPYR  = This file is part of the software VASP. Any use, copying, and all other rights are regul
   COPYR  = If you do not have a valid VASP license, you may not use, copy or distribute this file. 
   VRHFIN =Ti: d3 s1                                                                                
   LEXCH  = PE                                                                                      
   EATOM  =  1042.5995 eV,   76.6289 Ry                                                             
                                                                                                    
   TITEL  = PAW_PBE Ti_pv 07Sep2000                                                                 
   LULTRA =        F    use ultrasoft PP ?                                                          
   IUNSCR =        1    unscreen: 0-lin 1-nonlin 2-no                                               
   RPACOR =    2.200    partial core radius                                                         
   POMASS =   47.880; ZVAL   =   10.000    mass and valenz                                          
   RCORE  =    2.500    outmost cutoff radius                                                       
   RWIGS  =    2.500; RWIGS  =    1.323    wigner-seitz radius (au A)                               
   ENMAX  =  222.335; ENMIN  =  166.751 eV                                                          
   RCLOC  =    1.701    cutoff for local pot                                                        
   LCOR   =        T    correct aug charges                                                         
   LPAW   =        T    paw PP                                                                      
   EAUG   =  482.848                                                                                
   DEXC   =    0.000                                                                                
   RMAX   =    2.564    core radius for proj-oper                                                   
   RAUG   =    1.300    factor for augmentation sphere                                              
   RDEP   =    2.538    radius for radial grids                                                     
   RDEPT  =    1.952    core radius for aug-charge                                                  
                                                                                                    
   Atomic configuration                                                                             
    8 entries                                                                                       
     n  l   j            E        occ.                                                              
     1  0  0.50     -4865.3608   2.0000                                                             
     2  0  0.50      -533.1368   2.0000                                                             
     2  1  1.50      -440.5031   6.0000                                                             
     3  0  0.50       -59.3186   2.0000                                                             
     3  1  1.50       -35.7012   6.0000                                                             
     3  2  2.50        -1.9157   3.0000                                                             
     4  0  0.50        -3.7291   1.0000                                                             
     4  3  2.50        -1.3606   0.0000                                                             
   Description                                                                                      
     l       E           TYP  RCUT    TYP  RCUT                                                     
     1    -35.7012140     23  2.300                                                                 
     1     -1.3605826     23  2.300                                                                 
     2     -1.9156996     23  2.500                                                                 
     2     -0.4063033     23  2.500                                                                 
     0     -3.7290856     23  2.500                                                                 
     0     20.4087390     23  2.500                                                                 
  local pseudopotential read in
  partial core-charges read in
  partial kinetic energy density read in
  atomic valenz-charges read in
  non local Contribution for L=           1  read in
    real space projection operators read in
  non local Contribution for L=           1  read in
    real space projection operators read in
  non local Contribution for L=           2  read in
    real space projection operators read in
  non local Contribution for L=           2  read in
    real space projection operators read in
  non local Contribution for L=           0  read in
    real space projection operators read in
  non local Contribution for L=           0  read in
    real space projection operators read in
    PAW grid and wavefunctions read in
 
   number of l-projection  operators is LMAX  =           6
   number of lm-projection operators is LMMAX =          18
 
 POTCAR:    PAW_PBE O 08Apr2002                   
   SHA256 =  818f92134a0a090dccd8ba1447fa70422a3b330e708bb4f08108d8ae51209ddf O/POTCAR              
   COPYR  = (c) Copyright 08Apr2002 Georg Kresse                                                    
   COPYR  = This file is part of the software VASP. Any use, copying, and all other rights are regul
   COPYR  = If you do not have a valid VASP license, you may not use, copy or distribute this file. 
   VRHFIN =O: s2p4                                                                                  
   LEXCH  = PE                                                                                      
   EATOM  =   432.3788 eV,   31.7789 Ry                                                             
                                                                                                    
   TITEL  = PAW_PBE O 08Apr2002                                                                     
   LULTRA =        F    use ultrasoft PP ?                                                          
   IUNSCR =        1    unscreen: 0-lin 1-nonlin 2-no                                               
   RPACOR =    1.200    partial core radius                                                         
   POMASS =   16.000; ZVAL   =    6.000    mass and valenz                                          
   RCORE  =    1.520    outmost cutoff radius                                                       
   RWIGS  =    1.550; RWIGS  =    0.820    wigner-seitz radius (au A)                               
   ENMAX  =  400.000; ENMIN  =  300.000 eV                                                          
   ICORE  =        2    local potential                                                             
   LCOR   =        T    correct aug charges                                                         
   LPAW   =        T    paw PP                                                                      
   EAUG   =  605.392                                                                                
   DEXC   =    0.000                                                                                
   RMAX   =    1.553    core radius for proj-oper                                                   
   RAUG   =    1.300    factor for augmentation sphere                                              
   RDEP   =    1.550    radius for radial grids                                                     
   RDEPT  =    1.329    core radius for aug-charge                                                  
                                                                                                    
   Atomic configuration                                                                             
    4 entries                                                                                       
     n  l   j            E        occ.                                                              
     1  0  0.50      -514.6923   2.0000                                                             
     2  0  0.50       -23.9615   2.0000                                                             
     2  1  0.50        -9.0305   4.0000                                                             
     3  2  1.50        -9.5241   0.0000                                                             
   Description                                                                                      
     l       E           TYP  RCUT    TYP  RCUT                                                     
     0    -23.9615318     23  1.200                                                                 
     0     -9.5240782     23  1.200                                                                 
     1     -9.0304911     23  1.520                                                                 
     1      8.1634956     23  1.520                                                                 
     2     -9.5240782      7  1.500                                                                 
  local pseudopotential read in
  partial core-charges read in
  partial kinetic energy density read in
  kinetic energy density of atom read in
  atomic valenz-charges read in
  non local Contribution for L=           0  read in
    real space projection operators read in
  non local Contribution for L=           0  read in
    real space projection operators read in
  non local Contribution for L=           1  read in
    real space projection operators read in
  non local Contribution for L=           1  read in
    real space projection operators read in
    PAW grid and wavefunctions read in
 
   number of l-projection  operators is LMAX  =           4
   number of lm-projection operators is LMMAX =           8
 
 -----------------------------------------------------------------------------
|                                                                             |
|               ----> ADVICE to this user running VASP <----                  |
|                                                                             |
|     You have a (more or less) 'large supercell' and for larger cells it     |
|     might be more efficient to use real-space projection operators.         |
|     Therefore, try LREAL= Auto in the INCAR file.                           |
|     Mind: For very accurate calculation, you might also keep the            |
|     reciprocal projection scheme (i.e. LREAL=.FALSE.).                      |
|                                                                             |
 -----------------------------------------------------------------------------

 -----------------------------------------------------------------------------
|                                                                             |
|               ----> ADVICE to this user running VASP <----                  |
|                                                                             |
|     You enforced a specific xc type in the INCAR file but a different       |
|     type was found in the POTCAR file.                                      |
|     I HOPE YOU KNOW WHAT YOU ARE DOING!                                     |
|                                                                             |
 -----------------------------------------------------------------------------

  PAW_PBE H 15Jun2001                   :
 energy of atom  1       EATOM=  -12.4884
 kinetic energy error for atom=    0.0004 (will be added to EATOM!!)
  PAW_PBE O 08Apr2002                   :
 energy of atom  2       EATOM= -432.3788
 kinetic energy error for atom=    0.0168 (will be added to EATOM!!)
  PAW_PBE Ti_pv 07Sep2000               :
 energy of atom  3       EATOM=-1042.5995
 kinetic energy error for atom=    0.0007 (will be added to EATOM!!)
  PAW_PBE O 08Apr2002                   :
 energy of atom  4       EATOM= -432.3788
 kinetic energy error for atom=    0.0168 (will be added to EATOM!!)
 
 
 POSCAR:  H  O Ti  O
  positions in direct lattice
  No initial velocities read in
 exchange correlation table for  LEXCH =       40
   RHO(1)=    0.500       N(1)  =     2000
   RHO(2)=  100.500       N(2)  =     4000
 


--------------------------------------------------------------------------------------------------------


 ion  position               nearest neighbor table
   1  0.670  0.567  0.782-   3 0.98
   2  0.670  0.433  0.782-   3 0.98
   3  0.613  0.500  0.780-   1 0.98   2 0.98  51 2.35
   4  0.815  0.833  0.293-  54 1.97  88 1.97  56 1.97  53 2.02  55 2.02  21 3.11   5 3.11   7 3.11

   5  0.599  0.667  0.325-  52 1.97 119 1.97  55 1.97  57 1.97  58 2.02  56 2.02  36 3.11   4 3.11
                             6 3.11  10 3.14
   6  0.315  0.667  0.293-  58 1.97 124 1.97  60 1.97  52 2.02  59 2.02  39 3.11   7 3.11   5 3.11

   7  0.099  0.833  0.325-  53 1.97  91 1.97  59 1.97  61 1.97  54 2.02  60 2.02  22 3.11   6 3.11
                             4 3.11   8 3.15
   8  0.949  0.833  0.422-  62 1.95  96 1.96  64 1.96  63 2.01  54 2.01  61 2.04  11 3.05   9 3.10
                            25 3.10   7 3.15
   9  0.730  0.666  0.451-  57 1.91 127 1.96  63 1.97  65 2.00  66 2.01  64 2.03  10 3.06   8 3.10
                            40 3.11  14 3.17
  10  0.448  0.666  0.422-  66 1.95 132 1.96  68 1.96  58 2.01  67 2.01  57 2.04   9 3.06  11 3.11
                            43 3.11   5 3.14
  11  0.229  0.833  0.451-  61 1.92  99 1.97  67 1.97  62 2.00  69 2.01  68 2.04   8 3.05  26 3.11
                            10 3.11
  12  0.088  0.834  0.551-  70 1.94 104 1.96  72 1.96  71 2.00  69 2.04  62 2.05  15 3.00  13 3.10
                            29 3.11
  13  0.866  0.666  0.576-  65 1.88 135 1.96  71 1.97  74 1.98  72 2.04  73 2.05  14 3.02  12 3.10
                            44 3.11
  14  0.586  0.667  0.550-  74 1.96 140 1.96  76 1.96  75 2.00  66 2.02  65 2.05  13 3.02  15 3.11
                            47 3.12   9 3.17
  15  0.365  0.833  0.577-  69 1.88 107 1.97  75 1.98  70 1.98  77 2.04  76 2.05  12 3.00  30 3.11
                            14 3.11
  16  0.231  0.833  0.683-  78 1.87  80 1.96 112 1.97  79 2.02  77 2.14  70 2.16  19 2.90  33 3.12
                            17 3.14
  17  0.999  0.666  0.702-  73 1.79  81 1.86 143 2.00  79 2.01  80 2.10  18 2.91  16 3.14  48 3.15

  18  0.729  0.666  0.680-  81 1.90 147 1.95  83 1.97  82 2.02  74 2.09  73 2.13  17 2.91  19 3.13
                            51 3.14
  19  0.502  0.834  0.702-  77 1.79  78 1.86  82 2.00 114 2.00  83 2.09  16 2.90  34 3.12  18 3.13

  20  0.815  0.167  0.293-  86 1.97  88 1.97 120 1.97  85 2.02  87 2.02  21 3.11  37 3.11  23 3.11

  21  0.599  0.000  0.325-  84 1.97  55 1.97  87 1.97  89 1.97  88 2.02  90 2.02   4 3.11  20 3.11
                            22 3.11  26 3.15
  22  0.315  0.000  0.293-  90 1.97  60 1.97  92 1.97  91 2.02  84 2.02  23 3.11   7 3.11  21 3.11

  23  0.099  0.167  0.325-  85 1.97  91 1.97 123 1.97  93 1.97  86 2.02  92 2.02  22 3.11  38 3.11
                            20 3.11  24 3.15
  24  0.949  0.167  0.422-  94 1.95  96 1.96 128 1.96  95 2.01  86 2.01  93 2.04  27 3.05  41 3.10
                            25 3.10  23 3.15
  25  0.729  0.000  0.451-  89 1.91  95 1.97  63 1.97  98 2.00  97 2.00  96 2.04  26 3.06  24 3.10
                             8 3.10
  26  0.449  1.000  0.422-  98 1.95 100 1.96  68 1.96  99 2.01  90 2.01  89 2.04  25 3.06  27 3.11
                            11 3.11  21 3.15
  27  0.229  0.167  0.451-  93 1.92  99 1.97 131 1.97  94 2.00 101 2.01 100 2.04  24 3.05  26 3.11
                            42 3.11
  28  0.088  0.166  0.551- 102 1.94 104 1.96 136 1.96 103 2.00 101 2.04  94 2.05  31 3.00  45 3.10
                            29 3.11
  29  0.865  1.000  0.576-  97 1.88 106 1.97  71 1.97 103 1.97 105 2.05 104 2.06  30 3.00  12 3.11
                            28 3.11
  30  0.587  0.000  0.551- 106 1.94 108 1.96  76 1.96 107 2.00  98 2.04  97 2.04  29 3.00  31 3.11
                            15 3.11
  31  0.365  0.167  0.577- 101 1.88 107 1.97 139 1.98 102 1.98 109 2.04 108 2.05  28 3.00  30 3.11
                            46 3.11
  32  0.231  0.167  0.683- 110 1.87 144 1.96 112 1.97 111 2.02 109 2.14 102 2.16  35 2.90  33 3.12
                            49 3.14
  33  0.002  0.000  0.702- 105 1.80 113 1.86 111 2.01  79 2.01 112 2.07  34 2.89  16 3.12  32 3.12

  34  0.732  1.000  0.682- 113 1.87  83 1.96 115 1.96 114 2.03 105 2.13 106 2.15  33 2.89  19 3.12
                            35 3.12
  35  0.502  0.166  0.702- 109 1.79 110 1.86 146 2.00 114 2.00 115 2.09  32 2.90  34 3.12  50 3.13

  36  0.815  0.500  0.293- 118 1.97  56 1.97 120 1.97 119 2.02 117 2.02   5 3.11  37 3.11  39 3.11

  37  0.599  0.333  0.325- 116 1.97 119 1.97  87 1.97 121 1.97 120 2.02 122 2.02  36 3.11  20 3.11
                            38 3.11  42 3.14
  38  0.315  0.333  0.293- 122 1.97 124 1.97  92 1.97 123 2.02 116 2.02  39 3.11  23 3.11  37 3.11

  39  0.099  0.500  0.325- 117 1.97  59 1.97 123 1.97 125 1.97 124 2.02 118 2.02  38 3.11   6 3.11
                            36 3.11  40 3.13
  40  0.950  0.500  0.422- 126 1.95 128 1.96  64 1.96 118 2.01 127 2.02 125 2.03  43 3.05   9 3.11
                            41 3.11  39 3.13
  41  0.730  0.334  0.451- 121 1.91 127 1.96  95 1.97 129 2.00 130 2.01 128 2.03  42 3.06  24 3.10
                            40 3.11  46 3.17
  42  0.448  0.334  0.422- 130 1.95 132 1.96 100 1.96 122 2.01 131 2.01 121 2.04  41 3.06  27 3.11
                            43 3.11  37 3.14
  43  0.229  0.500  0.452- 125 1.94  67 1.97 131 1.97 126 1.99 133 2.01 132 2.04  40 3.05  10 3.11
                            42 3.11  44 3.15
  44  0.090  0.500  0.551- 134 1.94  72 1.96 136 1.96 133 2.02 135 2.02 126 2.05  47 3.00  13 3.11
                            45 3.11  43 3.15
  45  0.866  0.334  0.576- 129 1.88 135 1.96 103 1.97 138 1.98 136 2.04 137 2.05  46 3.02  28 3.10
                            44 3.11
  46  0.586  0.333  0.550- 138 1.96 140 1.96 108 1.96 139 2.00 130 2.02 129 2.05  45 3.02  31 3.11
                            47 3.12  41 3.17
  47  0.366  0.500  0.579- 133 1.92 134 1.96 139 1.97  75 1.97 141 2.05 140 2.06  44 3.00  46 3.12
                            14 3.12
  48  0.233  0.500  0.683- 142 1.87 144 1.96  80 1.96 143 2.05 141 2.09 134 2.15  51 2.91  49 3.15
                            17 3.15
  49  0.999  0.334  0.702- 137 1.79 145 1.86 143 2.00 111 2.01 144 2.10  50 2.91  32 3.14  48 3.15

  50  0.729  0.334  0.680- 145 1.90 147 1.95 115 1.97 146 2.02 138 2.09 137 2.13  49 2.91  35 3.13
                            51 3.14
  51  0.503  0.500  0.707- 142 1.85 141 1.86  82 2.01 146 2.01 147 2.13   3 2.35  48 2.91  50 3.14
                            18 3.14
  52  0.494  0.667  0.267-   5 1.97   6 2.02
  53  0.994  0.833  0.267-   7 1.97   4 2.02
  54  0.919  0.833  0.351-   4 1.97   8 2.01   7 2.02
  55  0.636  0.833  0.320-  21 1.97   5 1.97   4 2.02
  56  0.778  0.667  0.299-  36 1.97   4 1.97   5 2.02
  57  0.628  0.667  0.394-   9 1.91   5 1.97  10 2.04
  58  0.419  0.667  0.351-   6 1.97  10 2.01   5 2.02
  59  0.136  0.667  0.320-  39 1.97   7 1.97   6 2.02
  60  0.278  0.833  0.299-  22 1.97   6 1.97   7 2.02
  61  0.128  0.833  0.394-  11 1.92   7 1.97   8 2.04
  62  0.054  0.833  0.479-   8 1.95  11 2.00  12 2.05
  63  0.770  0.833  0.447-  25 1.97   9 1.97   8 2.01
  64  0.912  0.667  0.426-  40 1.96   8 1.96   9 2.03
  65  0.765  0.666  0.521-  13 1.88   9 2.00  14 2.05
  66  0.554  0.666  0.479-  10 1.95   9 2.01  14 2.02
  67  0.269  0.667  0.447-  43 1.97  11 1.97  10 2.01
  68  0.412  0.833  0.426-  10 1.96  26 1.96  11 2.04
  69  0.265  0.833  0.521-  15 1.88  11 2.01  12 2.04
  70  0.195  0.833  0.607-  12 1.94  15 1.98  16 2.16
  71  0.907  0.833  0.573-  29 1.97  13 1.97  12 2.00
  72  0.051  0.666  0.554-  44 1.96  12 1.96  13 2.04
  73  0.912  0.668  0.647-  17 1.79  13 2.05  18 2.13
  74  0.696  0.668  0.606-  14 1.96  13 1.98  18 2.09
  75  0.407  0.666  0.575-  47 1.97  15 1.98  14 2.00
  76  0.550  0.833  0.554-  14 1.96  30 1.96  15 2.05
  77  0.411  0.835  0.648-  19 1.79  15 2.04  16 2.14
  78  0.347  0.833  0.734-  19 1.86  16 1.87
  79  0.052  0.833  0.710-  33 2.01  17 2.01  16 2.02
  80  0.193  0.666  0.683-  16 1.96  48 1.96  17 2.10
  81  0.843  0.663  0.733-  17 1.86  18 1.90
  82  0.554  0.668  0.709-  19 2.00  51 2.01  18 2.02
  83  0.693  0.834  0.681-  34 1.96  18 1.97  19 2.09
  84  0.494  0.000  0.267-  21 1.97  22 2.02
  85  0.994  0.167  0.267-  23 1.97  20 2.02
  86  0.919  0.167  0.351-  20 1.97  24 2.01  23 2.02
  87  0.636  0.167  0.320-  21 1.97  37 1.97  20 2.02
  88  0.778  0.000  0.299-   4 1.97  20 1.97  21 2.02
  89  0.628  0.000  0.394-  25 1.91  21 1.97  26 2.04
  90  0.419  0.000  0.351-  22 1.97  26 2.01  21 2.02
  91  0.136  0.000  0.320-   7 1.97  23 1.97  22 2.02
  92  0.278  0.167  0.299-  22 1.97  38 1.97  23 2.02
  93  0.128  0.167  0.394-  27 1.92  23 1.97  24 2.04
  94  0.054  0.167  0.479-  24 1.95  27 2.00  28 2.05
  95  0.770  0.167  0.447-  25 1.97  41 1.97  24 2.01
  96  0.912  0.000  0.426-  24 1.96   8 1.96  25 2.04
  97  0.765  0.000  0.521-  29 1.88  25 2.00  30 2.04
  98  0.554  1.000  0.479-  26 1.95  25 2.00  30 2.04
  99  0.269  0.000  0.447-  27 1.97  11 1.97  26 2.01
 100  0.412  0.167  0.426-  42 1.96  26 1.96  27 2.04
 101  0.265  0.167  0.521-  31 1.88  27 2.01  28 2.04
 102  0.195  0.167  0.607-  28 1.94  31 1.98  32 2.16
 103  0.907  0.167  0.573-  29 1.97  45 1.97  28 2.00
 104  0.051  0.000  0.554-  28 1.96  12 1.96  29 2.06
 105  0.912  0.000  0.647-  33 1.80  29 2.05  34 2.13
 106  0.695  0.000  0.607-  30 1.94  29 1.97  34 2.15
 107  0.407  1.000  0.574-  15 1.97  31 1.97  30 2.00
 108  0.550  0.167  0.554-  46 1.96  30 1.96  31 2.05
 109  0.411  0.165  0.648-  35 1.79  31 2.04  32 2.14
 110  0.347  0.167  0.734-  35 1.86  32 1.87
 111  0.052  0.167  0.710-  33 2.01  49 2.01  32 2.02
 112  0.193  1.000  0.683-  16 1.97  32 1.97  33 2.07
 113  0.846  0.000  0.733-  33 1.86  34 1.87
 114  0.554  0.000  0.710-  35 2.00  19 2.00  34 2.03
 115  0.693  0.166  0.681-  34 1.96  50 1.97  35 2.09
 116  0.494  0.333  0.267-  37 1.97  38 2.02
 117  0.994  0.500  0.267-  39 1.97  36 2.02
 118  0.919  0.500  0.351-  36 1.97  40 2.01  39 2.02
 119  0.636  0.500  0.320-   5 1.97  37 1.97  36 2.02
 120  0.778  0.333  0.299-  36 1.97  20 1.97  37 2.02
 121  0.628  0.333  0.394-  41 1.91  37 1.97  42 2.04
 122  0.419  0.333  0.351-  38 1.97  42 2.01  37 2.02
 123  0.136  0.333  0.320-  39 1.97  23 1.97  38 2.02
 124  0.278  0.500  0.299-   6 1.97  38 1.97  39 2.02
 125  0.128  0.500  0.394-  43 1.94  39 1.97  40 2.03
 126  0.055  0.500  0.479-  40 1.95  43 1.99  44 2.05
 127  0.770  0.500  0.447-   9 1.96  41 1.96  40 2.02
 128  0.912  0.333  0.426-  40 1.96  24 1.96  41 2.03
 129  0.765  0.334  0.521-  45 1.88  41 2.00  46 2.05
 130  0.554  0.334  0.479-  42 1.95  41 2.01  46 2.02
 131  0.269  0.333  0.447-  43 1.97  27 1.97  42 2.01
 132  0.412  0.500  0.426-  42 1.96  10 1.96  43 2.04
 133  0.266  0.500  0.522-  47 1.92  43 2.01  44 2.02
 134  0.195  0.500  0.608-  44 1.94  47 1.96  48 2.15
 135  0.907  0.500  0.574-  45 1.96  13 1.96  44 2.02
 136  0.051  0.334  0.554-  44 1.96  28 1.96  45 2.04
 137  0.912  0.332  0.647-  49 1.79  45 2.05  50 2.13
 138  0.696  0.332  0.606-  46 1.96  45 1.98  50 2.09
 139  0.407  0.334  0.575-  47 1.97  31 1.98  46 2.00
 140  0.551  0.500  0.555-  14 1.96  46 1.96  47 2.06
 141  0.411  0.500  0.650-  51 1.86  47 2.05  48 2.09
 142  0.344  0.500  0.735-  51 1.85  48 1.87
 143  0.051  0.500  0.710-  49 2.00  17 2.00  48 2.05
 144  0.193  0.334  0.683-  32 1.96  48 1.96  49 2.10
 145  0.843  0.337  0.733-  49 1.86  50 1.90
 146  0.554  0.332  0.709-  35 2.00  51 2.01  50 2.02
 147  0.692  0.500  0.679-  50 1.95  18 1.95  51 2.13
 

IMPORTANT INFORMATION: All symmetrisations will be switched off!
NOSYMM: (Re-)initialisation of all symmetry stuff for point group C_1.


----------------------------------------------------------------------------------------

                                     Primitive cell                                     

  volume of cell :    3395.7474

  direct lattice vectors                    reciprocal lattice vectors
    10.494937820  0.000000000  0.000000000     0.095284033 -0.000000000  0.000000000
     0.000000000 11.517876715  0.000000000     0.000000000  0.086821558  0.000000000
     0.000000000  0.000000000 28.092027652     0.000000000  0.000000000  0.035597288

  length of vectors
    10.494937820 11.517876715 28.092027652     0.095284033  0.086821558  0.035597288

  position of ions in fractional coordinates (direct lattice)
     0.669779616  0.567096327  0.782135053
     0.669780927  0.432903384  0.782134908
     0.613144128  0.500000364  0.779721031
     0.815063392  0.833333333  0.293307909
     0.598520054  0.666666667  0.325106693
     0.315063392  0.666666667  0.293307909
     0.098520054  0.833333333  0.325106693
     0.948984557  0.833430361  0.422126504
     0.729901191  0.666339836  0.450697672
     0.448480316  0.666499916  0.421994103
     0.229015123  0.833294267  0.451008521
     0.087780526  0.833589077  0.551056261
     0.865942638  0.666282949  0.575973333
     0.586482671  0.666505733  0.550190984
     0.364705803  0.833391961  0.576971099
     0.230540257  0.832720368  0.682954085
     0.999404875  0.665892959  0.701739206
     0.728889809  0.665932756  0.679759585
     0.501850229  0.834273862  0.701673255
     0.815063392  0.166666667  0.293307909
     0.598520054  0.000000000  0.325106693
     0.315063392  0.000000000  0.293307909
     0.098520054  0.166666667  0.325106693
     0.948984539  0.166569621  0.422126503
     0.729410509  0.000000014  0.450755862
     0.448596503  0.999999998  0.422107140
     0.229015151  0.166705716  0.451008526
     0.087780628  0.166410942  0.551056260
     0.864569074  0.999999974  0.576433919
     0.586959584  0.000000041  0.550588467
     0.364705830  0.166608110  0.576971128
     0.230540262  0.167279756  0.682954098
     0.001596120  0.000000042  0.701770859
     0.731633391  0.999999984  0.682140051
     0.501849942  0.165726149  0.701673201
     0.815063392  0.500000000  0.293307909
     0.598520054  0.333333333  0.325106693
     0.315063392  0.333333333  0.293307909
     0.098520054  0.500000000  0.325106693
     0.950035502  0.499999985  0.421909096
     0.729901165  0.333660151  0.450697674
     0.448480339  0.333500084  0.421994109
     0.229297640  0.500000021  0.451791123
     0.090018017  0.500000011  0.551079929
     0.865942587  0.333717093  0.575973313
     0.586482594  0.333494276  0.550190992
     0.366025818  0.499999951  0.579412413
     0.233018832  0.499999901  0.683195658
     0.999405219  0.334107039  0.701739284
     0.728889760  0.334067324  0.679759607
     0.502682785  0.500000000  0.707019091
     0.494353489  0.666666667  0.266979660
     0.994353489  0.833333333  0.266979660
     0.919229957  0.833333333  0.351434942
     0.635773295  0.833333333  0.319636158
     0.777810152  0.666666667  0.298778443
     0.628180138  0.666666667  0.394174793
     0.419229957  0.666666667  0.351434942
     0.135773295  0.666666667  0.319636158
     0.277810152  0.833333333  0.298778443
     0.128180138  0.833333333  0.394174793
     0.054464677  0.833450051  0.479160346
     0.769536992  0.833286552  0.446842584
     0.912083809  0.666548589  0.426314561
     0.765024364  0.666279589  0.520707148
     0.554095445  0.666187741  0.479221449
     0.269356225  0.666524539  0.447225186
     0.411500422  0.833236256  0.426268045
     0.265118395  0.832849883  0.521321866
     0.194938778  0.833079491  0.607387736
     0.906972719  0.833479128  0.573486885
     0.051286173  0.666456751  0.553790088
     0.912190893  0.667510906  0.646827930
     0.696165749  0.668321461  0.606469284
     0.407422163  0.666433550  0.574980495
     0.549730461  0.833270579  0.553566887
     0.410759534  0.834739207  0.647614490
     0.346696144  0.832937042  0.733592011
     0.051894196  0.832854008  0.710014196
     0.192984179  0.666438487  0.683147015
     0.842502229  0.663080681  0.732535878
     0.553635735  0.668310707  0.709156781
     0.693247744  0.833875375  0.681477603
     0.494353489  0.000000000  0.266979660
     0.994353489  0.166666667  0.266979660
     0.919229957  0.166666667  0.351434942
     0.635773295  0.166666667  0.319636158
     0.777810152  0.000000000  0.298778443
     0.628180138  0.000000000  0.394174793
     0.419229957  0.000000000  0.351434942
     0.135773295  0.000000000  0.319636158
     0.277810152  0.166666667  0.298778443
     0.128180138  0.166666667  0.394174793
     0.054464714  0.166549959  0.479160342
     0.769537005  0.166713450  0.446842586
     0.911889829  0.000000021  0.426235930
     0.764837299  0.000000023  0.520881866
     0.554227743  0.999999980  0.479076592
     0.269374736  0.000000010  0.447213477
     0.411500427  0.166763740  0.426268048
     0.265118364  0.167150113  0.521321843
     0.194938743  0.166920566  0.607387720
     0.906972681  0.166520961  0.573486891
     0.051393273  0.000000028  0.553911422
     0.911639632  0.000000014  0.647343668
     0.695428692  0.000000054  0.606699702
     0.406547240  0.999999982  0.574063821
     0.549730479  0.166729432  0.553566870
     0.410759667  0.165260757  0.647614587
     0.346696247  0.167063050  0.733592004
     0.051894160  0.167146015  0.710014200
     0.192804239  0.999999972  0.683010594
     0.846046662  0.000000099  0.733327976
     0.553667618  0.000000054  0.710262953
     0.693247711  0.166124683  0.681477589
     0.494353489  0.333333333  0.266979660
     0.994353489  0.500000000  0.266979660
     0.919229957  0.500000000  0.351434942
     0.635773295  0.500000000  0.319636158
     0.777810152  0.333333333  0.298778443
     0.628180138  0.333333333  0.394174793
     0.419229957  0.333333333  0.351434942
     0.135773295  0.333333333  0.319636158
     0.277810152  0.500000000  0.298778443
     0.128180138  0.500000000  0.394174793
     0.055088729  0.500000030  0.479320949
     0.769571240  0.500000006  0.446688723
     0.912083839  0.333451394  0.426314573
     0.765024411  0.333720435  0.520707182
     0.554095445  0.333812272  0.479221448
     0.269356230  0.333475449  0.447225195
     0.411612614  0.499999998  0.426291932
     0.266030554  0.499999990  0.522183175
     0.195345105  0.499999997  0.607979906
     0.906966447  0.499999949  0.573783966
     0.051286122  0.333543251  0.553790070
     0.912190740  0.332489137  0.646827864
     0.696165800  0.331678531  0.606469312
     0.407422202  0.333566483  0.574980500
     0.550947286  0.500000012  0.554502497
     0.411450149  0.499999992  0.650221156
     0.343872592  0.499999954  0.735428955
     0.051317716  0.500000037  0.709753189
     0.192984074  0.333561592  0.683147003
     0.842502106  0.336919320  0.732535913
     0.553635755  0.331689272  0.709156789
     0.691854680  0.499999909  0.679075294

  ion indices of the primitive-cell ions
   primitive index   ion index
                 1           1
                 2           2
                 3           3
                 4           4
                 5           5
                 6           6
                 7           7
                 8           8
                 9           9
                10          10
                11          11
                12          12
                13          13
                14          14
                15          15
                16          16
                17          17
                18          18
                19          19
                20          20
                21          21
                22          22
                23          23
                24          24
                25          25
                26          26
                27          27
                28          28
                29          29
                30          30
                31          31
                32          32
                33          33
                34          34
                35          35
                36          36
                37          37
                38          38
                39          39
                40          40
                41          41
                42          42
                43          43
                44          44
                45          45
                46          46
                47          47
                48          48
                49          49
                50          50
                51          51
                52          52
                53          53
                54          54
                55          55
                56          56
                57          57
                58          58
                59          59
                60          60
                61          61
                62          62
                63          63
                64          64
                65          65
                66          66
                67          67
                68          68
                69          69
                70          70
                71          71
                72          72
                73          73
                74          74
                75          75
                76          76
                77          77
                78          78
                79          79
                80          80
                81          81
                82          82
                83          83
                84          84
                85          85
                86          86
                87          87
                88          88
                89          89
                90          90
                91          91
                92          92
                93          93
                94          94
                95          95
                96          96
                97          97
                98          98
                99          99
               100         100
               101         101
               102         102
               103         103
               104         104
               105         105
               106         106
               107         107
               108         108
               109         109
               110         110
               111         111
               112         112
               113         113
               114         114
               115         115
               116         116
               117         117
               118         118
               119         119
               120         120
               121         121
               122         122
               123         123
               124         124
               125         125
               126         126
               127         127
               128         128
               129         129
               130         130
               131         131
               132         132
               133         133
               134         134
               135         135
               136         136
               137         137
               138         138
               139         139
               140         140
               141         141
               142         142
               143         143
               144         144
               145         145
               146         146
               147         147

----------------------------------------------------------------------------------------

 
 
 KPOINTS: pymatgen v2020.8.13 with grid density = 

Automatic generation of k-mesh.
 Grid dimensions read from file:
 generate k-points for:    3    3    1

 Generating k-lattice:

  Cartesian coordinates                     Fractional coordinates (reciprocal lattice)
     0.031761344 -0.000000000  0.000000000     0.333333333 -0.000000000  0.000000000
     0.000000000  0.028940519  0.000000000     0.000000000  0.333333333  0.000000000
     0.000000000  0.000000000  0.035597288     0.000000000  0.000000000  1.000000000

  Length of vectors
     0.031761344  0.028940519  0.035597288

  Shift w.r.t. Gamma in fractional coordinates (k-lattice)
     0.000000000  0.000000000  0.000000000

 
 Subroutine IBZKPT returns following result:
 ===========================================
 
 Found      5 irreducible k-points:
 
 Following reciprocal coordinates:
            Coordinates               Weight
  0.000000  0.000000  0.000000      1.000000
  0.333333  0.000000  0.000000      2.000000
  0.000000  0.333333  0.000000      2.000000
  0.333333  0.333333  0.000000      2.000000
  0.333333 -0.333333  0.000000      2.000000
 
 Following cartesian coordinates:
            Coordinates               Weight
  0.000000  0.000000  0.000000      1.000000
  0.031761 -0.000000  0.000000      2.000000
  0.000000  0.028941  0.000000      2.000000
  0.031761  0.028941  0.000000      2.000000
  0.031761 -0.028941  0.000000      2.000000
 


--------------------------------------------------------------------------------------------------------




 Dimension of arrays:
   k-points           NKPTS =      5   k-points in BZ     NKDIM =      5   number of bands    NBANDS=    760
   number of dos      NEDOS =    301   number of ions     NIONS =    147
   non local maximal  LDIM  =      6   non local SUM 2l+1 LMDIM =     18
   total plane-waves  NPLWV = ******
   max r-space proj   IRMAX =      1   max aug-charges    IRDMAX=  20849
   dimension x,y,z NGX =    84 NGY =   96 NGZ =  224
   dimension x,y,z NGXF=   168 NGYF=  192 NGZF=  448
   support grid    NGXF=   168 NGYF=  192 NGZF=  448
   ions per type =               2   1  48  96
   NGX,Y,Z   is equivalent  to a cutoff of  13.31, 13.86, 13.26 a.u.
   NGXF,Y,Z  is equivalent  to a cutoff of  26.61, 27.71, 26.51 a.u.

 SYSTEM =  TiO2                                    
 POSCAR =   H  O Ti  O                             

--------------------------------------------------------------------------------------------------------


  energy-cutoff  :      600.00
  volume of cell :     3395.75
      direct lattice vectors                 reciprocal lattice vectors
    10.494937820  0.000000000  0.000000000     0.095284033 -0.000000000  0.000000000
     0.000000000 11.517876715  0.000000000     0.000000000  0.086821558  0.000000000
     0.000000000  0.000000000 28.092027652     0.000000000  0.000000000  0.035597288

  length of vectors
    10.494937820 11.517876715 28.092027652     0.095284033  0.086821558  0.035597288


 
 k-points in units of 2pi/SCALE and weight: pymatgen v2020.8.13 with grid density = 
   0.00000000  0.00000000  0.00000000       0.111
   0.03176134 -0.00000000  0.00000000       0.222
   0.00000000  0.02894052  0.00000000       0.222
   0.03176134  0.02894052  0.00000000       0.222
   0.03176134 -0.02894052  0.00000000       0.222
 
 k-points in reciprocal lattice and weights: pymatgen v2020.8.13 with grid density = 
   0.00000000  0.00000000  0.00000000       0.111
   0.33333333  0.00000000  0.00000000       0.222
   0.00000000  0.33333333  0.00000000       0.222
   0.33333333  0.33333333  0.00000000       0.222
   0.33333333 -0.33333333  0.00000000       0.222
 
 position of ions in fractional coordinates (direct lattice) 
   0.66977962  0.56709633  0.78213505
   0.66978093  0.43290338  0.78213491
   0.61314413  0.50000036  0.77972103
   0.81506339  0.83333333  0.29330791
   0.59852005  0.66666667  0.32510669
   0.31506339  0.66666667  0.29330791
   0.09852005  0.83333333  0.32510669
   0.94898456  0.83343036  0.42212650
   0.72990119  0.66633984  0.45069767
   0.44848032  0.66649992  0.42199410
   0.22901512  0.83329427  0.45100852
   0.08778053  0.83358908  0.55105626
   0.86594264  0.66628295  0.57597333
   0.58648267  0.66650573  0.55019098
   0.36470580  0.83339196  0.57697110
   0.23054026  0.83272037  0.68295408
   0.99940487  0.66589296  0.70173921
   0.72888981  0.66593276  0.67975959
   0.50185023  0.83427386  0.70167325
   0.81506339  0.16666667  0.29330791
   0.59852005  0.00000000  0.32510669
   0.31506339  0.00000000  0.29330791
   0.09852005  0.16666667  0.32510669
   0.94898454  0.16656962  0.42212650
   0.72941051  0.00000001  0.45075586
   0.44859650  1.00000000  0.42210714
   0.22901515  0.16670572  0.45100853
   0.08778063  0.16641094  0.55105626
   0.86456907  0.99999997  0.57643392
   0.58695958  0.00000004  0.55058847
   0.36470583  0.16660811  0.57697113
   0.23054026  0.16727976  0.68295410
   0.00159612  0.00000004  0.70177086
   0.73163339  0.99999998  0.68214005
   0.50184994  0.16572615  0.70167320
   0.81506339  0.50000000  0.29330791
   0.59852005  0.33333333  0.32510669
   0.31506339  0.33333333  0.29330791
   0.09852005  0.50000000  0.32510669
   0.95003550  0.49999998  0.42190910
   0.72990117  0.33366015  0.45069767
   0.44848034  0.33350008  0.42199411
   0.22929764  0.50000002  0.45179112
   0.09001802  0.50000001  0.55107993
   0.86594259  0.33371709  0.57597331
   0.58648259  0.33349428  0.55019099
   0.36602582  0.49999995  0.57941241
   0.23301883  0.49999990  0.68319566
   0.99940522  0.33410704  0.70173928
   0.72888976  0.33406732  0.67975961
   0.50268279  0.50000000  0.70701909
   0.49435349  0.66666667  0.26697966
   0.99435349  0.83333333  0.26697966
   0.91922996  0.83333333  0.35143494
   0.63577329  0.83333333  0.31963616
   0.77781015  0.66666667  0.29877844
   0.62818014  0.66666667  0.39417479
   0.41922996  0.66666667  0.35143494
   0.13577329  0.66666667  0.31963616
   0.27781015  0.83333333  0.29877844
   0.12818014  0.83333333  0.39417479
   0.05446468  0.83345005  0.47916035
   0.76953699  0.83328655  0.44684258
   0.91208381  0.66654859  0.42631456
   0.76502436  0.66627959  0.52070715
   0.55409544  0.66618774  0.47922145
   0.26935623  0.66652454  0.44722519
   0.41150042  0.83323626  0.42626805
   0.26511839  0.83284988  0.52132187
   0.19493878  0.83307949  0.60738774
   0.90697272  0.83347913  0.57348688
   0.05128617  0.66645675  0.55379009
   0.91219089  0.66751091  0.64682793
   0.69616575  0.66832146  0.60646928
   0.40742216  0.66643355  0.57498049
   0.54973046  0.83327058  0.55356689
   0.41075953  0.83473921  0.64761449
   0.34669614  0.83293704  0.73359201
   0.05189420  0.83285401  0.71001420
   0.19298418  0.66643849  0.68314702
   0.84250223  0.66308068  0.73253588
   0.55363573  0.66831071  0.70915678
   0.69324774  0.83387538  0.68147760
   0.49435349  0.00000000  0.26697966
   0.99435349  0.16666667  0.26697966
   0.91922996  0.16666667  0.35143494
   0.63577329  0.16666667  0.31963616
   0.77781015  0.00000000  0.29877844
   0.62818014  0.00000000  0.39417479
   0.41922996  0.00000000  0.35143494
   0.13577329  0.00000000  0.31963616
   0.27781015  0.16666667  0.29877844
   0.12818014  0.16666667  0.39417479
   0.05446471  0.16654996  0.47916034
   0.76953701  0.16671345  0.44684259
   0.91188983  0.00000002  0.42623593
   0.76483730  0.00000002  0.52088187
   0.55422774  0.99999998  0.47907659
   0.26937474  0.00000001  0.44721348
   0.41150043  0.16676374  0.42626805
   0.26511836  0.16715011  0.52132184
   0.19493874  0.16692057  0.60738772
   0.90697268  0.16652096  0.57348689
   0.05139327  0.00000003  0.55391142
   0.91163963  0.00000001  0.64734367
   0.69542869  0.00000005  0.60669970
   0.40654724  0.99999998  0.57406382
   0.54973048  0.16672943  0.55356687
   0.41075967  0.16526076  0.64761459
   0.34669625  0.16706305  0.73359200
   0.05189416  0.16714602  0.71001420
   0.19280424  0.99999997  0.68301059
   0.84604666  0.00000010  0.73332798
   0.55366762  0.00000005  0.71026295
   0.69324771  0.16612468  0.68147759
   0.49435349  0.33333333  0.26697966
   0.99435349  0.50000000  0.26697966
   0.91922996  0.50000000  0.35143494
   0.63577329  0.50000000  0.31963616
   0.77781015  0.33333333  0.29877844
   0.62818014  0.33333333  0.39417479
   0.41922996  0.33333333  0.35143494
   0.13577329  0.33333333  0.31963616
   0.27781015  0.50000000  0.29877844
   0.12818014  0.50000000  0.39417479
   0.05508873  0.50000003  0.47932095
   0.76957124  0.50000001  0.44668872
   0.91208384  0.33345139  0.42631457
   0.76502441  0.33372044  0.52070718
   0.55409545  0.33381227  0.47922145
   0.26935623  0.33347545  0.44722520
   0.41161261  0.50000000  0.42629193
   0.26603055  0.49999999  0.52218317
   0.19534511  0.50000000  0.60797991
   0.90696645  0.49999995  0.57378397
   0.05128612  0.33354325  0.55379007
   0.91219074  0.33248914  0.64682786
   0.69616580  0.33167853  0.60646931
   0.40742220  0.33356648  0.57498050
   0.55094729  0.50000001  0.55450250
   0.41145015  0.49999999  0.65022116
   0.34387259  0.49999995  0.73542895
   0.05131772  0.50000004  0.70975319
   0.19298407  0.33356159  0.68314700
   0.84250211  0.33691932  0.73253591
   0.55363576  0.33168927  0.70915679
   0.69185468  0.49999991  0.67907529
 
 position of ions in cartesian coordinates  (Angst):
   7.02929542  6.53174558 21.97175953
   7.02930918  4.98612781 21.97175547
   6.43490949  5.75894255 21.90394476
   8.55403962  9.59823060  8.23961390
   6.28143075  7.67858448  9.13290620
   3.30657071  7.67858448  8.23961390
   1.03396184  9.59823060  9.13290620
   9.95953392  9.59934815 11.85838942
   7.66026762  7.67482009 12.66101146
   4.70677303  7.67666386 11.85467000
   2.40349948  9.59778063 12.66974385
   0.92125116  9.60117622 15.48028773
   9.08801414  7.67416487 16.18025881
   6.15509916  7.67673087 15.45598034
   3.82756473  9.59890586 16.20828806
   2.41950566  9.59117053 19.18556503
  10.48869201  7.66967300 19.71327718
   7.64965323  7.67013139 19.09582506
   5.26688695  9.60906349 19.71142447
   8.55403962  1.91964612  8.23961390
   6.28143075  0.00000000  9.13290620
   3.30657071  0.00000000  8.23961390
   1.03396184  1.91964612  9.13290620
   9.95953373  1.91852836 11.85838940
   7.65511794  0.00000016 12.66264613
   4.70799241 11.51787669 11.85784544
   2.40349977  1.92009588 12.66974399
   0.92125224  1.91670071 15.48028770
   9.07359867 11.51787642 16.19319760
   6.16010434  0.00000047 15.46714644
   3.82756501  1.91897167 16.20828889
   2.41950571  1.92670761 19.18556541
   0.01675118  0.00000049 19.71416639
   7.67844694 11.51787653 19.16269717
   5.26688393  1.90881335 19.71142297
   8.55403962  5.75893836  8.23961390
   6.28143075  3.83929224  9.13290620
   3.30657071  3.83929224  8.23961390
   1.03396184  5.75893836  9.13290620
   9.97056352  5.75893818 11.85228199
   7.66026734  3.84305648 12.66101152
   4.70677327  3.84121286 11.85467017
   2.40646447  5.75893860 12.69172873
   0.94473349  5.75893849 15.48095259
   9.08801361  3.84371234 16.18025822
   6.15509835  3.84114596 15.45598057
   3.84141820  5.75893779 16.27686952
   2.44551816  5.75893721 19.19235131
  10.48869563  3.84820369 19.71327936
   7.64965271  3.84774625 19.09582569
   5.27562457  5.75893836 19.86159987
   5.18820913  7.67858448  7.50000000
  10.43567804  9.59823060  7.50000000
   9.64726124  9.59823060  9.87252010
   6.67240119  9.59823060  8.97922780
   8.16306918  7.67858448  8.39329230
   6.59271149  7.67858448 11.07316918
   4.39979233  7.67858448  9.87252010
   1.42493229  7.67858448  8.97922780
   2.91560027  9.59823060  8.39329230
   1.34524258  9.59823060 11.07316918
   0.57160340  9.59957494 13.46058570
   8.07624288  9.59769178 12.55271422
   9.57226286  7.67722448 11.97604044
   8.02888313  7.67412617 14.62771959
   5.81519724  7.67306827 13.46230219
   2.82687684  7.67694747 12.56346228
   4.31867134  9.59711248 11.97473371
   2.78240107  9.59266227 14.64498827
   2.04587035  9.59530687 17.06275309
   9.51862229  9.59990984 16.11040942
   0.53824520  7.67616669 15.55708646
   9.57338671  7.68830832 18.17070808
   7.30621625  7.69764419 17.03695189
   4.27587027  7.67589947 16.15236795
   5.76938701  9.59750779 15.55081629
   4.31089577  9.61442328 18.19280416
   3.63855448  9.59366617 20.60808706
   0.54462636  9.59270979 19.94573842
   2.02535696  7.67595633 19.19098485
   8.84200851  7.63728154 20.57841813
   5.81037261  7.69752033 19.92165191
   7.27559196  9.60447377 19.14408767
   5.18820913  0.00000000  7.50000000
  10.43567804  1.91964612  7.50000000
   9.64726124  1.91964612  9.87252010
   6.67240119  1.91964612  8.97922780
   8.16306918  0.00000000  8.39329230
   6.59271149  0.00000000 11.07316918
   4.39979233  0.00000000  9.87252010
   1.42493229  0.00000000  8.97922780
   2.91560027  1.91964612  8.39329230
   1.34524258  1.91964612 11.07316918
   0.57160379  1.91830189 13.46058557
   8.07624302  1.92018497 12.55271428
   9.57022705  0.00000024 11.97383154
   8.02691989  0.00000027 14.63262778
   5.81658570 11.51787648 13.45823286
   2.82707111  0.00000012 12.56313335
   4.31867139  1.92076420 11.97473378
   2.78240074  1.92521439 14.64498763
   2.04586999  1.92257051 17.06275264
   9.51862189  1.91796790 16.11040960
   0.53936920  0.00000032 15.56049500
   9.56760125  0.00000016 18.18519622
   7.29848088  0.00000063 17.04342481
   4.26668801 11.51787650 16.12661674
   5.76938719  1.92036904 15.55081582
   4.31089717  1.90345303 18.19280690
   3.63855555  1.92421162 20.60808686
   0.54462599  1.92516720 19.94573853
   2.02346850 11.51787640 19.18715250
   8.87920711  0.00000114 20.60066979
   5.81070722  0.00000062 19.95272651
   7.27559162  1.91340361 19.14408727
   5.18820913  3.83929224  7.50000000
  10.43567804  5.75893836  7.50000000
   9.64726124  5.75893836  9.87252010
   6.67240119  5.75893836  8.97922780
   8.16306918  3.83929224  8.39329230
   6.59271149  3.83929224 11.07316918
   4.39979233  3.83929224  9.87252010
   1.42493229  3.83929224  8.97922780
   2.91560027  5.75893836  8.39329230
   1.34524258  5.75893836 11.07316918
   0.57815279  5.75893870 13.46509736
   8.07660231  5.75893843 12.54839196
   9.57226318  3.84065205 11.97604077
   8.02888362  3.84375083 14.62772057
   5.81519724  3.84480859 13.46230216
   2.82687688  3.84092911 12.56346255
   4.31984879  5.75893833 11.97540475
   2.79197412  5.75893825 14.66918418
   2.05013473  5.75893833 17.07938834
   9.51855647  5.75893777 16.11875503
   0.53824466  3.84171005 15.55708596
   9.57338510  3.82956889 18.17070624
   7.30621678  3.82023243 17.03695268
   4.27587067  3.84197763 16.15236811
   5.78215750  5.75893850 15.57709948
   4.31814373  5.75893826 18.26603069
   3.60892147  5.75893783 20.65969053
   0.53857624  5.75893878 19.93840621
   2.02535586  3.84192130 19.19098451
   8.84200721  3.88059520 20.57841911
   5.81037283  3.82035614 19.92165212
   7.26097185  5.75893731 19.07660192
 


--------------------------------------------------------------------------------------------------------

--------------------------------------- Iteration      FINAL  ---------------------------------------


--------------------OUTCAR has been truncated-------------------------


--------------------OUTCAR has been truncated-------------------------


--------------------OUTCAR has been truncated-------------------------


--------------------OUTCAR has been truncated-------------------------


--------------------OUTCAR has been truncated-------------------------


--------------------OUTCAR has been truncated-------------------------


--------------------OUTCAR has been truncated-------------------------


--------------------OUTCAR has been truncated-------------------------


--------------------OUTCAR has been truncated-------------------------


--------------------OUTCAR has been truncated-------------------------


  FORCE on cell =-STRESS in cart. coord.  units (eV):
  Direction    XX          YY          ZZ          XY          YZ          ZX
  --------------------------------------------------------------------------------------
  Alpha Z  2345.55001  2345.55001  2345.55001
  Ewald  464839.84431457971.60547************     0.00026     0.00137 -1728.87661
  Hartree486098.03574481891.78184************    -0.00020     0.00060 -1192.33874
  E(xc)   -5301.18353 -5306.12646 -5309.23378     0.00000     0.00001    -0.61622
  Local  ************************958950.33590     0.00031    -0.00179  2932.47837
  n-local -3305.99191 -3279.34547 -3319.23758    -0.00009    -0.00000     1.57985
  augment  3188.60979  3185.71146  3179.35206    -0.00001    -0.00001     0.43015
  Kinetic 17149.32122 17204.46022 17282.94299     0.00011    -0.00016   -21.62088
  Fock        0.00000     0.00000     0.00000     0.00000     0.00000     0.00000
  -------------------------------------------------------------------------------------
  Total     -48.83340   -21.07219   -14.52218     0.00039     0.00002    -8.96409
  in kB     -23.04051    -9.94225    -6.85184     0.00019     0.00001    -4.22943
  external pressure =      -13.28 kB  Pullay stress =        0.00 kB


 VOLUME and BASIS-vectors are now :
 -----------------------------------------------------------------------------
  energy-cutoff  :      600.00
  volume of cell :     3395.75
      direct lattice vectors                 reciprocal lattice vectors
    10.494937820  0.000000000  0.000000000     0.095284033 -0.000000000  0.000000000
     0.000000000 11.517876715  0.000000000     0.000000000  0.086821558  0.000000000
     0.000000000  0.000000000 28.092027652     0.000000000  0.000000000  0.035597288

  length of vectors
    10.494937820 11.517876715 28.092027652     0.095284033  0.086821558  0.035597288


 FORCES acting on ions:
    Electron-Ion                     Ewald-Force                    Non-Local-Force
 -----------------------------------------------------------------------------------------------
   -.518E+02 -.683E+02 -.344E+03   0.568E+02 0.751E+02 0.345E+03   -.496E+01 -.678E+01 -.610E+00
   -.518E+02 0.683E+02 -.344E+03   0.568E+02 -.751E+02 0.345E+03   -.496E+01 0.678E+01 -.610E+00
   0.162E+02 0.138E-02 -.206E+04   -.593E+02 -.262E-02 0.206E+04   0.431E+02 0.589E-03 -.164E+01
   0.408E+01 -.774E-01 0.323E+04   0.559E+00 0.819E-01 -.323E+04   -.987E+00 -.894E-03 -.323E+01
   0.552E+01 -.196E+00 0.265E+04   -.702E+01 0.201E+00 -.266E+04   -.903E-01 -.124E-02 -.772E-01
   0.407E+01 0.527E-01 0.323E+04   0.545E+00 -.529E-01 -.322E+04   -.985E+00 0.271E-03 -.323E+01
   0.431E+01 0.224E-01 0.265E+04   -.584E+01 -.245E-01 -.266E+04   -.825E-01 0.525E-03 -.822E-01
   -.125E+01 0.137E+00 0.121E+04   0.106E+01 -.138E+00 -.121E+04   0.187E+00 -.282E-02 -.265E-01
   -.126E+01 -.181E+01 0.766E+03   0.129E+01 0.179E+01 -.766E+03   -.651E-03 0.200E-01 -.105E+00
   0.839E-02 -.418E+00 0.121E+04   -.183E+00 0.411E+00 -.121E+04   0.180E+00 0.769E-02 -.428E-01
   -.747E+01 0.709E-01 0.758E+03   0.747E+01 -.745E-01 -.758E+03   0.287E-01 0.314E-02 -.107E+00
   -.488E+01 -.195E+01 -.749E+03   0.455E+01 0.194E+01 0.749E+03   0.323E+00 -.225E-02 0.343E-01
   -.136E+02 -.488E+01 -.112E+04   0.137E+02 0.490E+01 0.112E+04   -.394E-01 -.117E-01 -.152E+00
   0.137E+01 -.252E+01 -.724E+03   -.166E+01 0.252E+01 0.724E+03   0.290E+00 0.544E-02 0.237E-01
   -.389E+01 -.168E+01 -.115E+04   0.399E+01 0.169E+01 0.115E+04   -.467E-01 -.135E-01 -.205E+00
   0.280E+02 -.120E+02 -.267E+04   -.290E+02 0.120E+02 0.267E+04   0.970E+00 0.211E-01 -.300E+00
   -.886E+02 -.224E+02 -.304E+04   0.887E+02 0.223E+02 0.304E+04   0.999E-01 0.134E+00 0.735E+00
   -.100E+02 -.459E+02 -.258E+04   0.915E+01 0.459E+02 0.258E+04   0.871E+00 -.553E-02 -.117E+00
   -.600E+02 -.326E+02 -.303E+04   0.601E+02 0.325E+02 0.303E+04   0.104E+00 0.130E-01 0.744E+00
   0.408E+01 0.774E-01 0.323E+04   0.559E+00 -.819E-01 -.323E+04   -.987E+00 0.896E-03 -.323E+01
   0.550E+01 0.113E-04 0.265E+04   -.703E+01 -.303E-05 -.266E+04   -.842E-01 0.143E-05 -.828E-01
   0.397E+01 0.951E-05 0.323E+04   0.658E+00 0.354E-05 -.323E+04   -.987E+00 -.459E-05 -.323E+01
   0.431E+01 -.224E-01 0.265E+04   -.584E+01 0.245E-01 -.266E+04   -.825E-01 -.526E-03 -.822E-01
   -.125E+01 -.137E+00 0.121E+04   0.106E+01 0.138E+00 -.121E+04   0.187E+00 0.282E-02 -.265E-01
   -.385E+01 0.727E-04 0.763E+03   0.384E+01 -.864E-04 -.763E+03   0.353E-01 0.306E-05 -.111E+00
   0.308E+00 0.515E-04 0.121E+04   -.486E+00 -.372E-04 -.121E+04   0.179E+00 -.183E-05 -.417E-01
   -.747E+01 -.709E-01 0.758E+03   0.747E+01 0.746E-01 -.758E+03   0.287E-01 -.314E-02 -.107E+00
   -.488E+01 0.195E+01 -.749E+03   0.455E+01 -.194E+01 0.749E+03   0.323E+00 0.224E-02 0.343E-01
   -.133E+02 -.158E-03 -.114E+04   0.133E+02 0.198E-03 0.114E+04   -.318E-03 -.492E-05 -.164E+00
   -.157E+01 0.171E-03 -.740E+03   0.125E+01 -.188E-03 0.740E+03   0.318E+00 0.110E-05 0.653E-01
   -.389E+01 0.168E+01 -.115E+04   0.399E+01 -.169E+01 0.115E+04   -.467E-01 0.135E-01 -.205E+00
   0.280E+02 0.120E+02 -.267E+04   -.290E+02 -.120E+02 0.267E+04   0.970E+00 -.211E-01 -.300E+00
   -.753E+02 0.146E-03 -.305E+04   0.754E+02 -.171E-03 0.305E+04   0.523E-01 0.564E-05 0.729E+00
   0.117E+02 -.955E-04 -.266E+04   -.127E+02 0.145E-03 0.266E+04   0.908E+00 -.869E-05 -.240E+00
   -.600E+02 0.326E+02 -.303E+04   0.601E+02 -.325E+02 0.303E+04   0.104E+00 -.130E-01 0.744E+00
   0.410E+01 0.740E-05 0.323E+04   0.531E+00 -.369E-05 -.323E+04   -.987E+00 -.679E-05 -.323E+01
   0.552E+01 0.196E+00 0.265E+04   -.702E+01 -.201E+00 -.266E+04   -.903E-01 0.124E-02 -.772E-01
   0.407E+01 -.527E-01 0.323E+04   0.545E+00 0.529E-01 -.322E+04   -.985E+00 -.268E-03 -.323E+01
   0.352E+01 0.410E-06 0.265E+04   -.501E+01 -.995E-05 -.266E+04   -.990E-01 0.241E-06 -.774E-01
   -.448E+00 0.356E-04 0.121E+04   0.280E+00 -.432E-04 -.121E+04   0.165E+00 0.376E-06 0.794E-02
   -.126E+01 0.181E+01 0.766E+03   0.129E+01 -.179E+01 -.766E+03   -.657E-03 -.200E-01 -.105E+00
   0.851E-02 0.418E+00 0.121E+04   -.183E+00 -.411E+00 -.121E+04   0.180E+00 -.769E-02 -.428E-01
   -.101E+02 0.838E-04 0.746E+03   0.101E+02 -.894E-04 -.746E+03   0.252E-01 -.122E-05 -.361E-01
   -.225E+01 -.843E-04 -.749E+03   0.199E+01 0.677E-04 0.749E+03   0.240E+00 0.702E-06 0.715E-01
   -.136E+02 0.488E+01 -.112E+04   0.137E+02 -.490E+01 0.112E+04   -.394E-01 0.117E-01 -.152E+00
   0.137E+01 0.252E+01 -.724E+03   -.166E+01 -.252E+01 0.724E+03   0.290E+00 -.544E-02 0.237E-01
   -.593E+01 -.374E-03 -.118E+04   0.600E+01 0.414E-03 0.118E+04   -.260E-01 -.653E-05 -.975E-01
   0.457E+02 -.794E-03 -.266E+04   -.465E+02 0.863E-03 0.266E+04   0.771E+00 -.117E-04 -.174E+00
   -.886E+02 0.224E+02 -.304E+04   0.886E+02 -.223E+02 0.304E+04   0.999E-01 -.134E+00 0.735E+00
   -.100E+02 0.459E+02 -.258E+04   0.915E+01 -.459E+02 0.258E+04   0.871E+00 0.554E-02 -.117E+00
   0.115E+02 -.111E-03 -.298E+04   -.112E+02 0.106E-03 0.298E+04   -.111E+00 0.158E-05 0.427E+00
   -.315E+02 -.458E-01 0.218E+04   0.361E+02 0.471E-01 -.220E+04   -.633E+01 -.152E-02 0.166E+02
   -.318E+02 -.433E-01 0.218E+04   0.364E+02 0.435E-01 -.220E+04   -.633E+01 -.261E-03 0.166E+02
   0.779E+02 0.635E-01 0.133E+04   -.820E+02 -.674E-01 -.132E+04   0.325E+01 0.145E-02 -.414E+01
   0.724E+02 -.534E-01 0.162E+04   -.787E+02 0.558E-01 -.161E+04   0.668E+01 -.488E-02 -.235E+01
   -.835E+02 -.978E-01 0.186E+04   0.900E+02 0.994E-01 -.186E+04   -.628E+01 -.586E-02 -.338E+00
   -.638E+02 -.767E+00 0.101E+04   0.686E+02 0.807E+00 -.102E+04   -.483E+01 -.371E-01 0.414E+01
   0.785E+02 0.584E-02 0.133E+04   -.826E+02 0.101E-01 -.132E+04   0.322E+01 -.184E-01 -.400E+01
   0.716E+02 0.282E-01 0.162E+04   -.779E+02 -.312E-01 -.161E+04   0.669E+01 0.799E-02 -.235E+01
   -.836E+02 -.209E-02 0.186E+04   0.902E+02 0.389E-02 -.186E+04   -.627E+01 -.597E-02 -.342E+00
   -.671E+02 0.124E+00 0.101E+04   0.720E+02 -.125E+00 -.102E+04   -.493E+01 -.208E-02 0.423E+01
   0.750E+02 -.622E+00 0.150E+03   -.808E+02 0.626E+00 -.145E+03   0.577E+01 -.423E-02 -.519E+01
   0.771E+02 -.316E-01 0.464E+03   -.831E+02 -.212E-01 -.461E+03   0.601E+01 0.541E-01 -.287E+01
   -.773E+02 -.488E+00 0.715E+03   0.832E+02 0.532E+00 -.717E+03   -.588E+01 -.416E-01 0.240E+01
   -.594E+02 -.977E+00 -.117E+03   0.634E+02 0.950E+00 0.112E+03   -.396E+01 0.279E-01 0.544E+01
   0.766E+02 0.719E+00 0.157E+03   -.822E+02 -.789E+00 -.153E+03   0.555E+01 0.710E-01 -.430E+01
   0.745E+02 0.311E+00 0.460E+03   -.803E+02 -.270E+00 -.457E+03   0.586E+01 -.411E-01 -.282E+01
   -.756E+02 0.674E-01 0.715E+03   0.814E+02 -.696E-01 -.718E+03   -.577E+01 0.294E-02 0.242E+01
   -.616E+02 0.124E+01 -.122E+03   0.659E+02 -.138E+01 0.116E+03   -.429E+01 0.144E+00 0.587E+01
   0.777E+02 -.216E+01 -.104E+04   -.831E+02 0.211E+01 0.105E+04   0.531E+01 0.420E-01 -.769E+01
   0.744E+02 -.268E+01 -.686E+03   -.805E+02 0.257E+01 0.689E+03   0.610E+01 0.115E+00 -.295E+01
   -.786E+02 -.165E+01 -.441E+03   0.843E+02 0.174E+01 0.439E+03   -.570E+01 -.902E-01 0.254E+01
   -.613E+02 -.120E+02 -.122E+04   0.627E+02 0.125E+02 0.121E+04   -.149E+01 -.418E+00 0.983E+01
   0.767E+02 -.116E+02 -.100E+04   -.823E+02 0.120E+02 0.101E+04   0.557E+01 -.430E+00 -.606E+01
   0.773E+02 -.197E+01 -.698E+03   -.830E+02 0.209E+01 0.701E+03   0.577E+01 -.115E+00 -.314E+01
   -.736E+02 -.191E+01 -.437E+03   0.792E+02 0.189E+01 0.435E+03   -.558E+01 0.167E-01 0.250E+01
   -.391E+02 -.101E+02 -.123E+04   0.399E+02 0.103E+02 0.122E+04   -.785E+00 -.244E+00 0.968E+01
   0.522E+02 -.145E+02 -.219E+04   -.568E+02 0.144E+02 0.222E+04   0.452E+01 0.120E+00 -.207E+02
   0.591E+02 -.576E+01 -.193E+04   -.636E+02 0.565E+01 0.194E+04   0.449E+01 0.112E+00 -.739E+01
   -.481E+02 -.689E+01 -.159E+04   0.526E+02 0.675E+01 0.158E+04   -.447E+01 0.143E+00 0.272E+01
   0.785E+01 -.313E+02 -.217E+04   -.127E+02 0.311E+02 0.219E+04   0.485E+01 0.177E+00 -.192E+02
   0.770E+02 -.500E+02 -.187E+04   -.815E+02 0.499E+02 0.187E+04   0.451E+01 0.751E-01 -.644E+01
   -.637E+02 -.136E+02 -.157E+04   0.687E+02 0.132E+02 0.157E+04   -.498E+01 0.372E+00 0.288E+01
   -.315E+02 0.107E-06 0.218E+04   0.362E+02 0.736E-06 -.220E+04   -.633E+01 -.191E-06 0.166E+02
   -.318E+02 0.433E-01 0.218E+04   0.364E+02 -.435E-01 -.220E+04   -.633E+01 0.257E-03 0.166E+02
   0.779E+02 -.635E-01 0.133E+04   -.820E+02 0.674E-01 -.132E+04   0.325E+01 -.145E-02 -.414E+01
   0.724E+02 0.534E-01 0.162E+04   -.787E+02 -.558E-01 -.161E+04   0.668E+01 0.488E-02 -.235E+01
   -.835E+02 -.716E-05 0.186E+04   0.900E+02 -.209E-05 -.186E+04   -.628E+01 -.155E-05 -.343E+00
   -.640E+02 0.157E-04 0.101E+04   0.688E+02 -.201E-04 -.102E+04   -.481E+01 0.190E-05 0.420E+01
   0.781E+02 0.717E-05 0.132E+04   -.823E+02 0.130E-05 -.132E+04   0.322E+01 -.318E-05 -.409E+01
   0.717E+02 0.456E-05 0.162E+04   -.781E+02 0.190E-05 -.161E+04   0.669E+01 -.269E-05 -.234E+01
   -.836E+02 0.210E-02 0.186E+04   0.902E+02 -.388E-02 -.186E+04   -.627E+01 0.598E-02 -.342E+00
   -.671E+02 -.124E+00 0.101E+04   0.720E+02 0.125E+00 -.102E+04   -.493E+01 0.208E-02 0.423E+01
   0.750E+02 0.622E+00 0.150E+03   -.808E+02 -.626E+00 -.145E+03   0.577E+01 0.422E-02 -.519E+01
   0.771E+02 0.315E-01 0.464E+03   -.831E+02 0.213E-01 -.461E+03   0.601E+01 -.541E-01 -.287E+01
   -.762E+02 0.178E-03 0.716E+03   0.820E+02 -.208E-03 -.718E+03   -.580E+01 0.115E-04 0.246E+01
   -.606E+02 -.956E-06 -.119E+03   0.647E+02 0.105E-04 0.114E+03   -.414E+01 -.128E-04 0.569E+01
   0.754E+02 0.101E-03 0.154E+03   -.809E+02 -.114E-03 -.149E+03   0.558E+01 0.178E-04 -.485E+01
   0.747E+02 0.156E-03 0.459E+03   -.806E+02 -.159E-03 -.456E+03   0.586E+01 0.675E-05 -.296E+01
   -.756E+02 -.674E-01 0.715E+03   0.814E+02 0.697E-01 -.718E+03   -.577E+01 -.294E-02 0.242E+01
   -.616E+02 -.124E+01 -.122E+03   0.659E+02 0.138E+01 0.116E+03   -.429E+01 -.144E+00 0.587E+01
   0.777E+02 0.216E+01 -.104E+04   -.831E+02 -.212E+01 0.105E+04   0.531E+01 -.419E-01 -.769E+01
   0.744E+02 0.268E+01 -.686E+03   -.805E+02 -.257E+01 0.689E+03   0.610E+01 -.115E+00 -.295E+01
   -.751E+02 -.128E-04 -.447E+03   0.806E+02 0.107E-04 0.444E+03   -.543E+01 -.801E-05 0.238E+01
   -.524E+02 -.316E-04 -.123E+04   0.536E+02 0.382E-04 0.122E+04   -.121E+01 -.109E-04 0.991E+01
   0.766E+02 -.283E-04 -.103E+04   -.821E+02 0.490E-04 0.104E+04   0.551E+01 -.277E-04 -.767E+01
   0.767E+02 -.275E-03 -.692E+03   -.825E+02 0.291E-03 0.695E+03   0.583E+01 0.128E-04 -.299E+01
   -.736E+02 0.191E+01 -.437E+03   0.792E+02 -.189E+01 0.435E+03   -.558E+01 -.167E-01 0.250E+01
   -.391E+02 0.101E+02 -.123E+04   0.399E+02 -.103E+02 0.122E+04   -.785E+00 0.244E+00 0.968E+01
   0.522E+02 0.145E+02 -.219E+04   -.568E+02 -.144E+02 0.222E+04   0.452E+01 -.120E+00 -.207E+02
   0.591E+02 0.576E+01 -.193E+04   -.636E+02 -.565E+01 0.194E+04   0.449E+01 -.112E+00 -.739E+01
   -.574E+02 -.397E-03 -.159E+04   0.626E+02 0.422E-03 0.159E+04   -.523E+01 0.121E-04 0.292E+01
   0.368E+02 -.124E-03 -.220E+04   -.415E+02 0.153E-03 0.222E+04   0.470E+01 -.329E-04 -.207E+02
   0.579E+02 0.965E-04 -.193E+04   -.620E+02 -.754E-04 0.194E+04   0.406E+01 -.345E-04 -.778E+01
   -.637E+02 0.136E+02 -.157E+04   0.687E+02 -.132E+02 0.157E+04   -.498E+01 -.372E+00 0.288E+01
   -.315E+02 0.458E-01 0.218E+04   0.361E+02 -.471E-01 -.220E+04   -.633E+01 0.152E-02 0.166E+02
   -.318E+02 0.274E-05 0.218E+04   0.364E+02 -.172E-05 -.220E+04   -.634E+01 -.408E-06 0.166E+02
   0.784E+02 0.824E-05 0.133E+04   -.827E+02 -.444E-05 -.132E+04   0.335E+01 -.283E-05 -.407E+01
   0.724E+02 0.424E-05 0.162E+04   -.788E+02 -.176E-05 -.161E+04   0.668E+01 -.102E-04 -.235E+01
   -.835E+02 0.978E-01 0.186E+04   0.900E+02 -.994E-01 -.186E+04   -.628E+01 0.587E-02 -.338E+00
   -.638E+02 0.767E+00 0.101E+04   0.686E+02 -.807E+00 -.102E+04   -.483E+01 0.371E-01 0.414E+01
   0.785E+02 -.585E-02 0.133E+04   -.826E+02 -.101E-01 -.132E+04   0.322E+01 0.184E-01 -.400E+01
   0.716E+02 -.282E-01 0.162E+04   -.779E+02 0.312E-01 -.161E+04   0.669E+01 -.799E-02 -.235E+01
   -.836E+02 -.125E-04 0.186E+04   0.901E+02 -.558E-05 -.186E+04   -.626E+01 -.139E-05 -.354E+00
   -.726E+02 0.230E-04 0.101E+04   0.782E+02 -.301E-04 -.101E+04   -.556E+01 0.110E-05 0.403E+01
   0.782E+02 -.735E-04 0.151E+03   -.845E+02 0.821E-04 -.145E+03   0.633E+01 -.403E-05 -.513E+01
   0.746E+02 0.102E-03 0.467E+03   -.803E+02 -.104E-03 -.465E+03   0.571E+01 -.265E-05 -.269E+01
   -.773E+02 0.488E+00 0.715E+03   0.832E+02 -.532E+00 -.717E+03   -.588E+01 0.416E-01 0.240E+01
   -.594E+02 0.977E+00 -.117E+03   0.634E+02 -.950E+00 0.112E+03   -.396E+01 -.279E-01 0.544E+01
   0.766E+02 -.719E+00 0.157E+03   -.822E+02 0.789E+00 -.153E+03   0.555E+01 -.710E-01 -.430E+01
   0.745E+02 -.311E+00 0.460E+03   -.803E+02 0.270E+00 -.457E+03   0.586E+01 0.411E-01 -.282E+01
   -.732E+02 0.255E-04 0.715E+03   0.788E+02 -.106E-04 -.717E+03   -.557E+01 0.104E-05 0.243E+01
   -.726E+02 -.460E-04 -.131E+03   0.783E+02 0.530E-04 0.126E+03   -.563E+01 -.704E-05 0.523E+01
   0.831E+02 -.179E-03 -.103E+04   -.892E+02 0.201E-03 0.104E+04   0.613E+01 -.230E-04 -.768E+01
   0.677E+02 -.484E-03 -.683E+03   -.732E+02 0.502E-03 0.686E+03   0.546E+01 0.135E-04 -.293E+01
   -.786E+02 0.165E+01 -.441E+03   0.843E+02 -.174E+01 0.439E+03   -.570E+01 0.903E-01 0.254E+01
   -.613E+02 0.120E+02 -.122E+04   0.627E+02 -.125E+02 0.121E+04   -.149E+01 0.418E+00 0.983E+01
   0.767E+02 0.116E+02 -.100E+04   -.823E+02 -.120E+02 0.101E+04   0.557E+01 0.430E+00 -.606E+01
   0.773E+02 0.197E+01 -.698E+03   -.830E+02 -.209E+01 0.701E+03   0.577E+01 0.115E+00 -.314E+01
   -.695E+02 -.128E-03 -.445E+03   0.749E+02 0.121E-03 0.443E+03   -.539E+01 -.112E-04 0.209E+01
   -.472E+02 -.252E-03 -.124E+04   0.509E+02 0.271E-03 0.123E+04   -.377E+01 -.208E-04 0.783E+01
   0.104E+03 -.125E-03 -.218E+04   -.109E+03 0.138E-03 0.220E+04   0.531E+01 -.125E-04 -.208E+02
   0.457E+02 -.266E-03 -.192E+04   -.493E+02 0.311E-03 0.192E+04   0.361E+01 -.560E-04 -.702E+01
   -.481E+02 0.689E+01 -.159E+04   0.526E+02 -.675E+01 0.158E+04   -.447E+01 -.143E+00 0.272E+01
   0.785E+01 0.313E+02 -.217E+04   -.127E+02 -.311E+02 0.219E+04   0.485E+01 -.177E+00 -.192E+02
   0.770E+02 0.500E+02 -.187E+04   -.815E+02 -.499E+02 0.187E+04   0.451E+01 -.751E-01 -.644E+01
   -.611E+02 -.753E-03 -.148E+04   0.646E+02 0.805E-03 0.148E+04   -.345E+01 -.108E-04 0.419E+01
 -----------------------------------------------------------------------------------------------
   -.506E+02 -.164E-03 0.702E+02   0.114E-12 -.718E-12 -.364E-11   0.506E+02 0.122E-03 -.702E+02
 
 
 POSITION                                       TOTAL-FORCE (eV/Angst)
 -----------------------------------------------------------------------------------
      7.02930      6.53175     21.97176        -0.001951      0.002096      0.002103
      7.02931      4.98613     21.97176        -0.002432     -0.001458      0.002048
      6.43491      5.75894     21.90394        -0.003813     -0.000648      0.002643
      8.55404      9.59823      8.23961         3.659635      0.003600      1.725254
      6.28143      7.67858      9.13291        -1.594491      0.002991     -1.904790
      3.30657      7.67858      8.23961         3.636241      0.000038      1.708545
      1.03396      9.59823      9.13291        -1.623376     -0.001579     -1.913396
      9.95953      9.59935     11.85839        -0.002033     -0.002049      0.000018
      7.66027      7.67482     12.66101         0.001017     -0.000862      0.000414
      4.70677      7.67666     11.85467         0.001192     -0.000528      0.002406
      2.40350      9.59778     12.66974        -0.000288     -0.000184      0.001312
      0.92125      9.60118     15.48029        -0.000754     -0.000911     -0.001556
      9.08801      7.67416     16.18026         0.000221     -0.002826     -0.001340
      6.15510      7.67673     15.45598        -0.001693     -0.000097     -0.000704
      3.82756      9.59891     16.20829         0.001067     -0.000286     -0.000632
      2.41951      9.59117     19.18557         0.000996     -0.002077     -0.000371
     10.48869      7.66967     19.71328         0.003184     -0.001644      0.000904
      7.64965      7.67013     19.09583        -0.003118     -0.000337     -0.000951
      5.26689      9.60906     19.71142        -0.001962     -0.001105      0.000469
      8.55404      1.91965      8.23961         3.659640     -0.003615      1.725303
      6.28143      0.00000      9.13291        -1.610780      0.000010     -1.909214
      3.30657      0.00000      8.23961         3.652937      0.000009      1.719122
      1.03396      1.91965      9.13291        -1.623405      0.001587     -1.913373
      9.95953      1.91853     11.85839        -0.001998      0.002054      0.000007
      7.65512      0.00000     12.66265        -0.001307     -0.000010     -0.000073
      4.70799     11.51788     11.85785        -0.001647      0.000013      0.001071
      2.40350      1.92010     12.66974        -0.000294      0.000187      0.001295
      0.92125      1.91670     15.48029        -0.000790      0.000918     -0.001579
      9.07360     11.51788     16.19320         0.001695      0.000035      0.001822
      6.16010      0.00000     15.46715        -0.002662     -0.000015      0.000143
      3.82757      1.91897     16.20829         0.001046      0.000256     -0.000661
      2.41951      1.92671     19.18557         0.000987      0.002009     -0.000363
      0.01675      0.00000     19.71417         0.002807     -0.000019     -0.001422
      7.67845     11.51788     19.16270        -0.003066      0.000040     -0.002693
      5.26688      1.90881     19.71142        -0.001798      0.001120      0.000597
      8.55404      5.75894      8.23961         3.656968     -0.000003      1.711989
      6.28143      3.83929      9.13291        -1.594499     -0.002985     -1.904799
      3.30657      3.83929      8.23961         3.636253     -0.000035      1.708555
      1.03396      5.75894      9.13291        -1.589091     -0.000009     -1.867631
      9.97056      5.75894     11.85228         0.001456     -0.000007     -0.000653
      7.66027      3.84306     12.66101         0.001025      0.000893      0.000418
      4.70677      3.84121     11.85467         0.001176      0.000516      0.002425
      2.40646      5.75894     12.69173         0.000404     -0.000006      0.000777
      0.94473      5.75894     15.48095        -0.001165     -0.000016      0.001053
      9.08801      3.84371     16.18026         0.000242      0.002805     -0.001288
      6.15510      3.84115     15.45598        -0.001637      0.000112     -0.000692
      3.84142      5.75894     16.27687        -0.001599      0.000032      0.000264
      2.44552      5.75894     19.19235         0.000831      0.000056      0.000911
     10.48870      3.84820     19.71328         0.002985      0.001655      0.000794
      7.64965      3.84775     19.09583        -0.003084      0.000280     -0.000961
      5.27562      5.75894     19.86160        -0.003781     -0.000003      0.002274
      5.18821      7.67858      7.50000        -1.712332     -0.000243      1.041317
     10.43568      9.59823      7.50000        -1.706912     -0.000016      1.037164
      9.64726      9.59823      9.87252        -0.899390     -0.002463     -0.147478
      6.67240      9.59823      8.97923         0.345324     -0.002501     -0.060561
      8.16307      7.67858      8.39329         0.258572     -0.004236     -1.072775
      6.59271      7.67858     11.07317        -0.069734      0.002608      0.404390
      4.39979      7.67858      9.87252        -0.907750     -0.002411     -0.131566
      1.42493      7.67858      8.97923         0.353077      0.004985     -0.065226
      2.91560      9.59823      8.39329         0.265730     -0.004172     -1.074587
      1.34524      9.59823     11.07317        -0.013378     -0.003033      0.425332
      0.57160      9.59957     13.46059        -0.000091      0.000202      0.000500
      8.07624      9.59769     12.55271        -0.000366      0.001313     -0.000015
      9.57226      7.67722     11.97604        -0.000936      0.002125     -0.000648
      8.02888      7.67413     14.62772         0.000598      0.000707      0.000746
      5.81520      7.67307     13.46230        -0.001378      0.001147     -0.002028
      2.82688      7.67695     12.56346         0.000628      0.000565     -0.000000
      4.31867      9.59711     11.97473         0.000097      0.000697     -0.000330
      2.78240      9.59266     14.64499        -0.000752     -0.000228     -0.000125
      2.04587      9.59531     17.06275        -0.000671     -0.000153     -0.000225
      9.51862      9.59991     16.11041        -0.000000      0.002063     -0.000502
      0.53825      7.67617     15.55709         0.001294      0.001208     -0.000528
      9.57339      7.68831     18.17071        -0.001421     -0.000253     -0.001022
      7.30622      7.69764     17.03695         0.000488     -0.000021     -0.000259
      4.27587      7.67590     16.15237        -0.000027      0.002714      0.000726
      5.76939      9.59751     15.55082         0.000383      0.001111      0.000177
      4.31090      9.61442     18.19280         0.001069      0.000599      0.001111
      3.63855      9.59367     20.60809        -0.000263      0.000606     -0.001271
      0.54463      9.59271     19.94574        -0.000624      0.000701      0.000965
      2.02536      7.67596     19.19098         0.000994     -0.000212     -0.000169
      8.84201      7.63728     20.57842        -0.003303      0.000716      0.000223
      5.81037      7.69752     19.92165         0.002788      0.000849      0.000957
      7.27559      9.60447     19.14409        -0.000316     -0.000845      0.000072
      5.18821      0.00000      7.50000        -1.709843      0.000001      1.038736
     10.43568      1.91965      7.50000        -1.706898      0.000017      1.037176
      9.64726      1.91965      9.87252        -0.899386      0.002459     -0.147489
      6.67240      1.91965      8.97923         0.345304      0.002509     -0.060571
      8.16307      0.00000      8.39329         0.259936     -0.000011     -1.074108
      6.59271      0.00000     11.07317        -0.055397     -0.000002      0.387906
      4.39979      0.00000      9.87252        -0.905553      0.000006     -0.138706
      1.42493      0.00000      8.97923         0.349654      0.000004     -0.059983
      2.91560      1.91965      8.39329         0.265731      0.004194     -1.074588
      1.34524      1.91965     11.07317        -0.013374      0.003036      0.425325
      0.57160      1.91830     13.46059        -0.000082     -0.000206      0.000505
      8.07624      1.92018     12.55271        -0.000386     -0.001310     -0.000008
      9.57023      0.00000     11.97383        -0.000896     -0.000018      0.001176
      8.02692      0.00000     14.63263        -0.000382     -0.000003     -0.002177
      5.81659     11.51788     13.45823        -0.000423      0.000005     -0.002483
      2.82707      0.00000     12.56313         0.000385      0.000003     -0.000258
      4.31867      1.92076     11.97473         0.000083     -0.000717     -0.000321
      2.78240      1.92521     14.64499        -0.000719      0.000228     -0.000113
      2.04587      1.92257     17.06275        -0.000629      0.000154     -0.000194
      9.51862      1.91797     16.11041        -0.000000     -0.002098     -0.000508
      0.53937      0.00000     15.56049        -0.000197     -0.000010     -0.000351
      9.56760      0.00000     18.18520         0.000295     -0.000004      0.000351
      7.29848      0.00000     17.04342         0.000566     -0.000007      0.000338
      4.26669     11.51788     16.12662        -0.000411      0.000029     -0.000014
      5.76939      1.92037     15.55082         0.000366     -0.001093      0.000175
      4.31090      1.90345     18.19281         0.000989     -0.000592      0.000983
      3.63856      1.92421     20.60809        -0.000315     -0.000602     -0.001254
      0.54463      1.92517     19.94574        -0.000596     -0.000694      0.000977
      2.02347     11.51788     19.18715        -0.000255      0.000038     -0.000788
      8.87921      0.00000     20.60067        -0.000369     -0.000004      0.000121
      5.81071      0.00000     19.95273         0.001931     -0.000013      0.000263
      7.27559      1.91340     19.14409        -0.000317      0.000821      0.000074
      5.18821      3.83929      7.50000        -1.712321      0.000238      1.041333
     10.43568      5.75894      7.50000        -1.718770      0.000001      1.030989
      9.64726      5.75894      9.87252        -0.909553      0.000001     -0.150324
      6.67240      5.75894      8.97923         0.345622     -0.000007     -0.061100
      8.16307      3.83929      8.39329         0.258556      0.004245     -1.072784
      6.59271      3.83929     11.07317        -0.069738     -0.002602      0.404383
      4.39979      3.83929      9.87252        -0.907749      0.002407     -0.131601
      1.42493      3.83929      8.97923         0.353090     -0.004992     -0.065222
      2.91560      5.75894      8.39329         0.267268     -0.000019     -1.077602
      1.34524      5.75894     11.07317         0.009977     -0.000006      0.507102
      0.57815      5.75894     13.46510         0.001697      0.000005      0.001702
      8.07660      5.75894     12.54839        -0.000829     -0.000004      0.000361
      9.57226      3.84065     11.97604        -0.000939     -0.002109     -0.000652
      8.02888      3.84375     14.62772         0.000558     -0.000705      0.000718
      5.81520      3.84481     13.46230        -0.001369     -0.001153     -0.001998
      2.82688      3.84093     12.56346         0.000627     -0.000570     -0.000000
      4.31985      5.75894     11.97540         0.001070      0.000016     -0.000235
      2.79197      5.75894     14.66918         0.000815      0.000000     -0.001365
      2.05013      5.75894     17.07939         0.001641     -0.000000      0.000531
      9.51856      5.75894     16.11876         0.000441      0.000032     -0.000749
      0.53824      3.84171     15.55709         0.001303     -0.001197     -0.000529
      9.57339      3.82957     18.17071        -0.001342      0.000250     -0.000889
      7.30622      3.82023     17.03695         0.000453      0.000023     -0.000307
      4.27587      3.84198     16.15237        -0.000034     -0.002738      0.000724
      5.78216      5.75894     15.57710         0.000671     -0.000018     -0.001288
      4.31814      5.75894     18.26603        -0.002820     -0.000001     -0.005640
      3.60892      5.75894     20.65969        -0.004124      0.000001      0.001793
      0.53858      5.75894     19.93841        -0.001808     -0.000011     -0.000018
      2.02536      3.84192     19.19098         0.001008      0.000174     -0.000168
      8.84201      3.88060     20.57842        -0.003236     -0.000709      0.000216
      5.81037      3.82036     19.92165         0.002765     -0.000840      0.000964
      7.26097      5.75894     19.07660         0.001370      0.000042      0.001301
 -----------------------------------------------------------------------------------
    total drift:                               -0.000205     -0.000042     -0.021660


--------------------------------------------------------------------------------------------------------



  FREE ENERGIE OF THE ION-ELECTRON SYSTEM (eV)
  ---------------------------------------------------
  free  energy   TOTEN  =      -953.98153571 eV

  energy  without entropy=     -953.98153571  energy(sigma->0) =     -953.98153571
 


--------------------------------------------------------------------------------------------------------


    POTLOK:  cpu time      0.5763: real time      0.5781


--------------------------------------------------------------------------------------------------------


     LOOP+:  cpu time    735.9737: real time    740.3013
    4ORBIT:  cpu time      0.0000: real time      0.0000

 total amount of memory used by VASP MPI-rank0   469737. kBytes
=======================================================================

   base      :      30000. kBytes
   nonl-proj :     297428. kBytes
   fftplans  :      29442. kBytes
   grid      :      42405. kBytes
   one-center:       1150. kBytes
   wavefun   :      69312. kBytes
 
  
  
 General timing and accounting informations for this job:
 ========================================================
  
                  Total CPU time used (sec):      762.150
                            User time (sec):      759.046
                          System time (sec):        3.104
                         Elapsed time (sec):      767.379
  
                   Maximum memory used (kb):     1061436.
                   Average memory used (kb):          N/A
  
                          Minor page faults:        96736
                          Major page faults:          119
                 Voluntary context switches:         2762
