 **********************************************************************
                          MRCC program system
 **********************************************************************
 
                              Written by
     Mihaly Kallay, Peter R. Nagy, David Mester, Laszlo Gyevi-Nagy,
        Jozsef Csoka, P. Bernat Szabo, Zoltan Rolik, Gyula Samu,
     Jozsef Csontos, Bence Hegely, Adam Ganyecz, Istvan Ladjanszki,
       Lorant Szegedy, Bence Ladoczki, Klara Petrov, Mate Farkas,
                    Pal D. Mezei, and Reka A. Horvath
 
        Department of Physical Chemistry and Materials Science
            Budapest University of Technology and Economics
                  Budapest P.O.Box 91, H-1521 Hungary
 
                              www.mrcc.hu
 
                      Release date: March 18, 2022

 ************************ 2023-02-05 13:18:46 *************************
 Executing minp...

 Reading input from MINP...
 
 Input file:
 
calc=FNO-CCSD(T)
verbosity=3
mem=220GB
unit=angs
scfiguess=small
scfalg=locfit1
ccmaxit=400
ccsdalg=dfdirect
ccsdthreads=4
ccsdmkl=thr
ptthreads=4
lnoepsv=1e-5
naf_cor=1e-2
basis=aug-cc-pVTZ
basis_sm=def2-SVP
dfbasis_scf=def2-QZVPP-RI-JK
dfbasis_cor=aug-cc-pVTZ-RI
unit=angs
geom=xyz
16

C    34.41670262    34.07107264    10.41543014
C    33.11117461    33.45680459    10.91530835
H    34.24160149    35.00442132     9.86225048
H    34.94674030    33.36940783     9.75379242
H    35.10002891    34.30603621    11.24227357
H    32.42643037    33.26105434    10.07939442
H    32.59136835    34.12756100    11.61262818
H    33.28915165    32.50678735    11.43686767
C    45.74245317    48.84299654    10.40841099
C    47.04217115    48.22916242    10.92356869
H    45.21721276    48.13879085     9.74571409
H    45.92448905    49.77393588     9.85291346
H    45.05142584    49.08363081    11.22702485
H    47.73601157    48.03252119    10.09551480
H    46.85793094    47.27964286    11.44396498
H    47.55429059    48.90070429    11.62587494

--------------------Output has been truncated-------------------------


--------------------Output has been truncated-------------------------


--------------------Output has been truncated-------------------------


--------------------Output has been truncated-------------------------


--------------------Output has been truncated-------------------------


--------------------Output has been truncated-------------------------


--------------------Output has been truncated-------------------------


--------------------Output has been truncated-------------------------


--------------------Output has been truncated-------------------------


--------------------Output has been truncated-------------------------


 
 Reference energy [au]:                      -158.519089274067
 DF-MP2 singlet pair energy [au]:              -0.600509664637
 DF-MP2 triplet pair energy [au]:              -0.150063448844
 DF-SCS-MP2 correlation energy [au]:           -0.770632747179
 DF-SCS-MP2 energy [au]:                     -159.289722021247
 DF-SOS-MP2 correlation energy [au]:           -0.780662564028
 DF-SOS-MP2 energy [au]:                     -159.299751838096
 DF-MP2 correlation energy [au]:               -0.750573113481
 DF-MP2 energy [au]:                         -159.269662387549

 Results in FNO basis:
 
 
 Reference energy [au]:                      -158.519089274067
 DF-MP2 singlet pair energy [au]:              -0.598169251951
 DF-MP2 triplet pair energy [au]:              -0.149850905490
 DF-SCS-MP2 correlation energy [au]:           -0.767753404171
 DF-SCS-MP2 energy [au]:                     -159.286842678238
 DF-SOS-MP2 correlation energy [au]:           -0.777620027536
 DF-SOS-MP2 energy [au]:                     -159.296709301603
 DF-MP2 correlation energy [au]:               -0.748020157441
 DF-MP2 energy [au]:                         -159.267109431509

 Results in NAF basis:
 
 
 Reference energy [au]:                      -158.519089274067
 DF-MP2 singlet pair energy [au]:              -0.598047774802
 DF-MP2 triplet pair energy [au]:              -0.149928990423
 DF-SCS-MP2 correlation energy [au]:           -0.767633659903
 DF-SCS-MP2 energy [au]:                     -159.286722933971
 DF-SOS-MP2 correlation energy [au]:           -0.777462107242
 DF-SOS-MP2 energy [au]:                     -159.296551381310
 DF-MP2 correlation energy [au]:               -0.747976765225
 DF-MP2 energy [au]:                         -159.267066039292

 ************************ 2023-02-05 13:19:28 *************************
 Executing ccsd...

 Allocation of 220.0 Gbytes of memory...

 Direct DF-CCSD(T) calculation
 
 Convergence criterion:  1.0E-06
 
 Number of occupied/virtual/auxiliary orbitals:    14   278   756
   3422.71 MB is the minimal memory requirement for (T)
    780.99 MB is the minimal memory requirement for CCSD
 
 Reference energy [au]:            -158.519089274067
 T1 contribution [au]:                0.000000000000
 Same spin MP2 energy [au]:          -0.149889829599
 Opposite spin MP2 energy [au]:      -0.598108171879
 MP2 correlation energy [au]:        -0.747998001478
 Total MP2 energy [au]:            -159.267087275545
 MP2 correction [au]:                -0.002575112004
 
 
 CPU time [min]:     0.919                   Wall time [min]:     0.132
 
 Starting CCSD iterations...
 
                     Residual norm          Energy
 Iteration  1        0.241423311938     -159.308944252845
 Iteration  2        0.060038637172     -159.328074286447
 Iteration  3        0.015975928661     -159.329986440936
 Iteration  4        0.003604227519     -159.330003077777
 Iteration  5        0.000758967382     -159.330013493617
 Iteration  6        0.000215375720     -159.330019648408
 Iteration  7        0.000051277161     -159.330019217684
 Iteration  8        0.000013080807     -159.330019800956
 Iteration  9        0.000002622729     -159.330019748906
 
 CCSD iteration has converged in  9 steps.
    23656.02 MB memory was utilized by CCSD
 
 T1 diagnostic:      7.817E-03            D1 diagnostic:      1.354E-02
 
 T1 contribution [au]:                                  0.000000000000
 PPL energy contribution [au]:                          0.205823752630
 Scaled PPL energy contribution [au]:                   0.206541195560

 OS-PPL energy contribution [au]:                       0.179923310873
 Scaled OS-PPL energy contribution [au]:                0.180665497415
 SS-PPL energy contribution [au]:                       0.025900441757
 Scaled SS-PPL energy contribution [au]:                0.025924097859

 Opposite spin CCSD energy [au]:                       -0.668569378908
 Same spin CCSD energy [au]:                           -0.142398451686
 CCSD correlation energy [au]:                         -0.810967830594
 CCSD correlation energy + MP2 correction [au]:        -0.813542942597
 CCSD correlation energy + MP2 + PPL corr. [au]:       -0.812825499667
 Total CCSD energy [au]:                             -159.330057104661
 Total CCSD energy + MP2 correction [au]:            -159.332632216665
 Total CCSD energy + MP2 + PPL corr. [au]:           -159.331914773734
 
 CPU time [min]:    53.768                   Wall time [min]:     1.803
 
 Calculation of (T) correction...
 
 
     4429.83 MB memory is utilized for (T)

 0%       25%       50%       75%       100%
 |---------|---------|---------|---------| 
 
 (T) correction [au]:                                    -0.027917935294
 (T*) correction [au]:                                   -0.028014047597
 (T+) correction [au]:                                   -0.028012883654
 CCSD(T) correlation energy [au]:                        -0.838885765888
 CCSD(T) correlation energy + MP2 correction [au]:       -0.841460877891
 CCSD(T+) correlation en. + MP2 + PPL corr. [au]:        -0.840838383321
 Total CCSD(T) energy [au]:                            -159.357975039955
 Total CCSD(T) energy + MP2 correction [au]:           -159.360550151959
 Total CCSD(T+) energy + MP2 + PPL corr. [au]:         -159.359927657388
 
 CPU time [min]:   111.729                   Wall time [min]:     3.505
 
 ************************ 2023-02-05 13:22:59 *************************
                      Normal termination of mrcc.
 **********************************************************************
