 **********************************************************************
                          MRCC program system
 **********************************************************************
 
                              Written by
     Mihaly Kallay, Peter R. Nagy, David Mester, Laszlo Gyevi-Nagy,
        Jozsef Csoka, P. Bernat Szabo, Zoltan Rolik, Gyula Samu,
     Jozsef Csontos, Bence Hegely, Adam Ganyecz, Istvan Ladjanszki,
       Lorant Szegedy, Bence Ladoczki, Klara Petrov, Mate Farkas,
                    Pal D. Mezei, and Reka A. Horvath
 
        Department of Physical Chemistry and Materials Science
            Budapest University of Technology and Economics
                  Budapest P.O.Box 91, H-1521 Hungary
 
                              www.mrcc.hu
 
                      Release date: March 18, 2022

 ************************ 2022-11-11 05:26:22 *************************
 Executing minp...

 Reading input from MINP...
 
 Input file:
 
calc=LNO-CCSD(T)
scftype=rhf
verbosity=3
mem=150GB
symm=off
unit=angs
scfiguess=small
scfmaxit=1000
scfalg=locfit1


lcorthr=tight
bpedo=0.99999
ccmaxit=400
usedisk=0
ccsdalg=dfdirect
ccsdthreads=4
ccsdmkl=thr
ptthreads=4

charge=0
core=3

basis=special
aug-cc-pVTZ
aug-cc-pVTZ
aug-cc-pVTZ
bse_CVTZ
aug-cc-pVTZ
aug-cc-pVTZ
aug-cc-pVTZ
aug-cc-pVTZ
aug-cc-pVTZ
bse_CVTZ
aug-cc-pVTZ
aug-cc-pVTZ
aug-cc-pVTZ

basis_sm=special
def2-SVP
def2-SVP
def2-SVP
def2-SVP
def2-SVP
def2-SVP
def2-SVP
def2-SVP
def2-SVP
def2-SVP
def2-SVP
def2-SVP
def2-SVP

dfbasis_scf=special
def2-QZVPP-RI-JK
def2-QZVPP-RI-JK
def2-QZVPP-RI-JK
def2-QZVPP-RI-JK
def2-QZVPP-RI-JK
def2-QZVPP-RI-JK
def2-QZVPP-RI-JK
def2-QZVPP-RI-JK
def2-QZVPP-RI-JK
def2-QZVPP-RI-JK
def2-QZVPP-RI-JK
def2-QZVPP-RI-JK
def2-QZVPP-RI-JK

dfbasis_cor=special
aug-cc-pVTZ-RI
aug-cc-pVTZ-RI
aug-cc-pVTZ-RI
bse_CVTZ_mp2fit
aug-cc-pVTZ-RI
aug-cc-pVTZ-RI
aug-cc-pVTZ-RI
aug-cc-pVTZ-RI
aug-cc-pVTZ-RI
bse_CVTZ_mp2fit
aug-cc-pVTZ-RI
aug-cc-pVTZ-RI
aug-cc-pVTZ-RI

ecp=special
none
none
none
none
none
none
none
none
none
none
none
none
none

unit=angs
geom=xyz
13
C1 O2 Mg2 O8 ECP34
C     1.07134204963    1.07134208764    2.54859637317
O     0.23687064860    0.23687054207    2.57853216822
O     1.90574724198    1.90574732149    2.57852015735
Mg    0.00000000000    0.00000000000   -0.05750956508
O    -2.09962978654    0.01470322800   -0.02732848039
O     0.01470321233   -2.09962977677   -0.02732855680
O     0.01644304005    0.01644305562   -2.17083353252
O     0.01889723898    2.12373883871   -0.00000011507
O     2.12373889513    0.01889723349    0.00000000000
Mg    2.14263700734    2.14263713021   -0.05751152737
O     2.12619360260    2.12619359049   -2.17083412053
O     2.12793386548    4.24226721255   -0.02733002184
O     4.24226719994    2.12793396473   -0.02732998446

ghost=serialno
4-13

 
 
 Checking keyword combinations...
 
 Keywords:
 
 active=none
--------------------Output has been truncated-------------------------


--------------------Output has been truncated-------------------------


--------------------Output has been truncated-------------------------


--------------------Output has been truncated-------------------------


--------------------Output has been truncated-------------------------


--------------------Output has been truncated-------------------------


--------------------Output has been truncated-------------------------


--------------------Output has been truncated-------------------------


--------------------Output has been truncated-------------------------


--------------------Output has been truncated-------------------------


 
 Final local CC results:
 
 Minimum number of correlated electrons:        16       (100.0%)
 Maximum number of correlated electrons:        16       (100.0%)
 Average number of correlated electrons:        16.0     (100.0%)
 Minimum number of correlated orbitals:         84       ( 13.5%)
 Maximum number of correlated orbitals:         97       ( 15.6%)
 Average number of correlated orbitals:         93.6     ( 15.1%)
 
 CPU time for integral calculations [min]:                  3.936
 Wall time for integral calculations [min]:                 0.102
 
 CPU time for SCF calculation [min]:                       13.046
 Wall time for SCF calculation [min]:                       0.343
 
 CPU time for orbital localization [min]:                   0.142
 Wall time for orbital localization [min]:                  0.016
 
 CPU time for integral transformations [min]:              96.907
 Wall time for integral transformations [min]:              2.565
 
 Reference energy [au]:                                  -187.703342029947
 
 LMP2 correlation energy [au]:                             -0.618567290098
 Total LMP2 energy [au]:                                 -188.321909320045
 
 Total MP2 correction for dropped NAFs [au]:               -0.000005674098
 Total MP2 correction [au]:                                -0.000545681541
 
 CPU time for CCSD calculations [min]:                      5.472
 Total CPU time for CCSD [min]:                           119.502
 Wall time for CCSD calculations [min]:                     0.137
 Total wall time for CCSD [min]:                            3.164
 
 CCSD correlation energy [au]:                             -0.606313317703
 Total CCSD energy [au]:                                 -188.309655347650
 CCSD correlation energy + 0.5 MP2 corrections [au]:       -0.606586158473
 Total LNO-CCSD energy with MP2 corrections [au]:        -188.309928188420
 
 CPU time for (T) corrections [min]:                        5.150
 Total CPU time for CCSD(T) [min]:                        124.652
 Wall time for (T) corrections [min]:                       0.129
 Total wall time for CCSD(T) [min]:                         3.293
 
 Total (T) correlation energy contribution [au]:           -0.030796506779
 Total (T) correlation energy+0.5 MP2 correction [au]:     -0.031069347549
 CCSD(T) correlation energy [au]:                          -0.637109824482
 Total CCSD(T) energy [au]:                              -188.340451854429
 CCSD(T) correlation energy + MP2 corrections [au]:        -0.637655506023
 Total LNO-CCSD(T) energy with MP2 corrections [au]:     -188.340997535970
 
 ======================================================================
 ======================================================================
 
 ************************ 2022-11-11 05:29:50 *************************
                      Normal termination of mrcc.
 **********************************************************************
