 **********************************************************************
                          MRCC program system
 **********************************************************************
 
                              Written by
     Mihaly Kallay, Peter R. Nagy, David Mester, Laszlo Gyevi-Nagy,
        Jozsef Csoka, P. Bernat Szabo, Zoltan Rolik, Gyula Samu,
     Jozsef Csontos, Bence Hegely, Adam Ganyecz, Istvan Ladjanszki,
       Lorant Szegedy, Bence Ladoczki, Klara Petrov, Mate Farkas,
                    Pal D. Mezei, and Reka A. Horvath
 
        Department of Physical Chemistry and Materials Science
            Budapest University of Technology and Economics
                  Budapest P.O.Box 91, H-1521 Hungary
 
                              www.mrcc.hu
 
                      Release date: March 18, 2022

 ************************ 2023-02-05 13:26:39 *************************
 Executing minp...

 Reading input from MINP...
 
 Input file:
 
calc=FNO-CCSD(T)
verbosity=3
mem=220GB
unit=angs
scfiguess=small
scfalg=locfit1
ccmaxit=400
ccsdalg=dfdirect
ccsdthreads=4
ccsdmkl=thr
ptthreads=4
lnoepsv=1e-5
naf_cor=1e-2
basis=aug-cc-pVTZ
basis_sm=def2-SVP
dfbasis_scf=def2-QZVPP-RI-JK
dfbasis_cor=aug-cc-pVTZ-RI
unit=angs
geom=xyz
16

C    34.41670262    34.07107264    10.41543014
C    33.11117461    33.45680459    10.91530835
H    34.24160149    35.00442132     9.86225048
H    34.94674030    33.36940783     9.75379242
H    35.10002891    34.30603621    11.24227357
H    32.42643037    33.26105434    10.07939442
H    32.59136835    34.12756100    11.61262818
H    33.28915165    32.50678735    11.43686767
C    20.41949921    48.84299654    10.40841099
C    21.71921719    48.22916242    10.92356869
H    19.89425880    48.13879085     9.74571409
H    20.60153508    49.77393588     9.85291346
H    19.72847188    49.08363081    11.22702485
H    22.41305761    48.03252119    10.09551480
H    21.53497697    47.27964286    11.44396498
H    22.23133663    48.90070429    11.62587494

--------------------Output has been truncated-------------------------


--------------------Output has been truncated-------------------------


--------------------Output has been truncated-------------------------


--------------------Output has been truncated-------------------------


--------------------Output has been truncated-------------------------


--------------------Output has been truncated-------------------------


--------------------Output has been truncated-------------------------


--------------------Output has been truncated-------------------------


--------------------Output has been truncated-------------------------


--------------------Output has been truncated-------------------------


 
 Reference energy [au]:                      -158.519089273666
 DF-MP2 singlet pair energy [au]:              -0.600509663216
 DF-MP2 triplet pair energy [au]:              -0.150063447222
 DF-SCS-MP2 correlation energy [au]:           -0.770632744933
 DF-SCS-MP2 energy [au]:                     -159.289722018599
 DF-SOS-MP2 correlation energy [au]:           -0.780662562181
 DF-SOS-MP2 energy [au]:                     -159.299751835847
 DF-MP2 correlation energy [au]:               -0.750573110438
 DF-MP2 energy [au]:                         -159.269662384104

 Results in FNO basis:
 
 
 Reference energy [au]:                      -158.519089273666
 DF-MP2 singlet pair energy [au]:              -0.598169250730
 DF-MP2 triplet pair energy [au]:              -0.149850903942
 DF-SCS-MP2 correlation energy [au]:           -0.767753402190
 DF-SCS-MP2 energy [au]:                     -159.286842675856
 DF-SOS-MP2 correlation energy [au]:           -0.777620025948
 DF-SOS-MP2 energy [au]:                     -159.296709299615
 DF-MP2 correlation energy [au]:               -0.748020154672
 DF-MP2 energy [au]:                         -159.267109428338

 Results in NAF basis:
 
 
 Reference energy [au]:                      -158.519089273666
 DF-MP2 singlet pair energy [au]:              -0.598047755101
 DF-MP2 triplet pair energy [au]:              -0.149929010115
 DF-SCS-MP2 correlation energy [au]:           -0.767633642826
 DF-SCS-MP2 energy [au]:                     -159.286722916493
 DF-SOS-MP2 correlation energy [au]:           -0.777462081631
 DF-SOS-MP2 energy [au]:                     -159.296551355298
 DF-MP2 correlation energy [au]:               -0.747976765216
 DF-MP2 energy [au]:                         -159.267066038882

 ************************ 2023-02-05 13:27:21 *************************
 Executing ccsd...

 Allocation of 220.0 Gbytes of memory...

 Direct DF-CCSD(T) calculation
 
 Convergence criterion:  1.0E-06
 
 Number of occupied/virtual/auxiliary orbitals:    14   278   756
   3422.71 MB is the minimal memory requirement for (T)
    780.99 MB is the minimal memory requirement for CCSD
 
 Reference energy [au]:            -158.519089273666
 T1 contribution [au]:                0.000000000000
 Same spin MP2 energy [au]:          -0.149889838638
 Opposite spin MP2 energy [au]:      -0.598108161265
 MP2 correlation energy [au]:        -0.747997999904
 Total MP2 energy [au]:            -159.267087273570
 MP2 correction [au]:                -0.002575110534
 
 
 CPU time [min]:     0.907                   Wall time [min]:     0.132
 
 Starting CCSD iterations...
 
                     Residual norm          Energy
 Iteration  1        0.241423350150     -159.308944247201
 Iteration  2        0.060038646189     -159.328074288162
 Iteration  3        0.015975930032     -159.329986442550
 Iteration  4        0.003604226544     -159.330003079453
 Iteration  5        0.000758967042     -159.330013495314
 Iteration  6        0.000215375614     -159.330019650096
 Iteration  7        0.000051277153     -159.330019219371
 Iteration  8        0.000013080806     -159.330019802643
 Iteration  9        0.000002622728     -159.330019750593
 
 CCSD iteration has converged in  9 steps.
    23656.02 MB memory was utilized by CCSD
 
 T1 diagnostic:      7.817E-03            D1 diagnostic:      1.354E-02
 
 T1 contribution [au]:                                  0.000000000000
 PPL energy contribution [au]:                          0.205823726674
 Scaled PPL energy contribution [au]:                   0.206541168821

 OS-PPL energy contribution [au]:                       0.179923283100
 Scaled OS-PPL energy contribution [au]:                0.180665474828
 SS-PPL energy contribution [au]:                       0.025900443575
 Scaled SS-PPL energy contribution [au]:                0.025924096408

 Opposite spin CCSD energy [au]:                       -0.668569372079
 Same spin CCSD energy [au]:                           -0.142398455215
 CCSD correlation energy [au]:                         -0.810967827294
 CCSD correlation energy + MP2 correction [au]:        -0.813542937828
 CCSD correlation energy + MP2 + PPL corr. [au]:       -0.812825495681
 Total CCSD energy [au]:                             -159.330057100960
 Total CCSD energy + MP2 correction [au]:            -159.332632211494
 Total CCSD energy + MP2 + PPL corr. [au]:           -159.331914769347
 
 CPU time [min]:    53.763                   Wall time [min]:     1.816
 
 Calculation of (T) correction...
 
 
     4429.83 MB memory is utilized for (T)

 0%       25%       50%       75%       100%
 |---------|---------|---------|---------| 
 
 (T) correction [au]:                                    -0.027917935095
 (T*) correction [au]:                                   -0.028014047343
 (T+) correction [au]:                                   -0.028012883310
 CCSD(T) correlation energy [au]:                        -0.838885762389
 CCSD(T) correlation energy + MP2 correction [au]:       -0.841460872923
 CCSD(T+) correlation en. + MP2 + PPL corr. [au]:        -0.840838378990
 Total CCSD(T) energy [au]:                            -159.357975036056
 Total CCSD(T) energy + MP2 correction [au]:           -159.360550146590
 Total CCSD(T+) energy + MP2 + PPL corr. [au]:         -159.359927652657
 
 CPU time [min]:   111.576                   Wall time [min]:     3.514
 
 ************************ 2023-02-05 13:30:52 *************************
                      Normal termination of mrcc.
 **********************************************************************
