 **********************************************************************
                          MRCC program system
 **********************************************************************
 
                              Written by
     Mihaly Kallay, Peter R. Nagy, David Mester, Laszlo Gyevi-Nagy,
        Jozsef Csoka, P. Bernat Szabo, Zoltan Rolik, Gyula Samu,
     Jozsef Csontos, Bence Hegely, Adam Ganyecz, Istvan Ladjanszki,
       Lorant Szegedy, Bence Ladoczki, Klara Petrov, Mate Farkas,
                    Pal D. Mezei, and Reka A. Horvath
 
        Department of Physical Chemistry and Materials Science
            Budapest University of Technology and Economics
                  Budapest P.O.Box 91, H-1521 Hungary
 
                              www.mrcc.hu
 
                      Release date: March 18, 2022

 ************************ 2023-02-04 11:43:24 *************************
 Executing minp...

 Reading input from MINP...
 
 Input file:
 
calc=FNO-CCSD(T)
verbosity=3
mem=220GB
unit=angs
scfiguess=small
scfalg=locfit1
ccmaxit=400
ccsdalg=dfdirect
ccsdthreads=4
ccsdmkl=thr
ptthreads=4
lnoepsv=1e-5
naf_cor=1e-2
basis=aug-cc-pVTZ
basis_sm=def2-SVP
dfbasis_scf=def2-QZVPP-RI-JK
dfbasis_cor=aug-cc-pVTZ-RI
unit=angs
geom=xyz
10

C    29.54344629    29.54344629    16.97505516
H    29.54344670    30.44187631    17.60392580
H    29.54344662    28.64496649    17.60393442
H    30.44658454    29.54342777    16.34911135
H    28.64030918    29.54342779    16.34911130
C    33.76393855    25.32295416    16.97520498
H    32.86104419    25.32293552    16.34891491
H    33.76393892    24.42443359    17.60414260
H    33.76393902    26.22142438    17.60413400
H    34.66683405    25.32293540    16.34891492

--------------------Output has been truncated-------------------------


--------------------Output has been truncated-------------------------


--------------------Output has been truncated-------------------------


--------------------Output has been truncated-------------------------


--------------------Output has been truncated-------------------------


--------------------Output has been truncated-------------------------


--------------------Output has been truncated-------------------------


--------------------Output has been truncated-------------------------


--------------------Output has been truncated-------------------------


--------------------Output has been truncated-------------------------


 
 Reference energy [au]:                       -40.213015279420
 DF-MP2 singlet pair energy [au]:              -0.164427038440
 DF-MP2 triplet pair energy [au]:              -0.036595145496
 DF-SCS-MP2 correlation energy [au]:           -0.209510827959
 DF-SCS-MP2 energy [au]:                      -40.422526107380
 DF-SOS-MP2 correlation energy [au]:           -0.213755149971
 DF-SOS-MP2 energy [au]:                      -40.426770429392
 DF-MP2 correlation energy [au]:               -0.201022183935
 DF-MP2 energy [au]:                          -40.414037463356

 Results in FNO basis:
 
 
 Reference energy [au]:                       -40.213015279420
 DF-MP2 singlet pair energy [au]:              -0.163774730184
 DF-MP2 triplet pair energy [au]:              -0.036551231567
 DF-SCS-MP2 correlation energy [au]:           -0.208713420077
 DF-SCS-MP2 energy [au]:                      -40.421728699497
 DF-SOS-MP2 correlation energy [au]:           -0.212907149240
 DF-SOS-MP2 energy [au]:                      -40.425922428660
 DF-MP2 correlation energy [au]:               -0.200325961752
 DF-MP2 energy [au]:                          -40.413341241172

 Results in NAF basis:
 
 
 Reference energy [au]:                       -40.213015279420
 DF-MP2 singlet pair energy [au]:              -0.163740567361
 DF-MP2 triplet pair energy [au]:              -0.036570523238
 DF-SCS-MP2 correlation energy [au]:           -0.208678855246
 DF-SCS-MP2 energy [au]:                      -40.421694134667
 DF-SOS-MP2 correlation energy [au]:           -0.212862737570
 DF-SOS-MP2 energy [au]:                      -40.425878016990
 DF-MP2 correlation energy [au]:               -0.200311090599
 DF-MP2 energy [au]:                          -40.413326370020

 ************************ 2023-02-04 11:43:42 *************************
 Executing ccsd...

 Allocation of 220.0 Gbytes of memory...

 Direct DF-CCSD(T) calculation
 
 Convergence criterion:  1.0E-06
 
 Number of occupied/virtual/auxiliary orbitals:     4    83   221
     89.04 MB is the minimal memory requirement for (T)
     22.38 MB is the minimal memory requirement for CCSD
 
 Reference energy [au]:             -40.213015279420
 T1 contribution [au]:                0.000000000000
 Same spin MP2 energy [au]:          -0.036560850027
 Opposite spin MP2 energy [au]:      -0.163757567181
 MP2 correlation energy [au]:        -0.200318417208
 Total MP2 energy [au]:             -40.413333696628
 MP2 correction [au]:                -0.000703766728
 
 
 CPU time [min]:     0.059                   Wall time [min]:     0.004
 
 Starting CCSD iterations...
 
                     Residual norm          Energy
 Iteration  1        0.131891352921      -40.427801210480
 Iteration  2        0.033756637783      -40.433324504816
 Iteration  3        0.008182644877      -40.433790742006
 Iteration  4        0.001914052794      -40.433793338707
 Iteration  5        0.000362957288      -40.433800389455
 Iteration  6        0.000073628086      -40.433800521716
 Iteration  7        0.000017732647      -40.433801127282
 Iteration  8        0.000003101026      -40.433801145056
 
 CCSD iteration has converged in  8 steps.
      207.43 MB memory was utilized by CCSD
 
 T1 diagnostic:      7.476E-03            D1 diagnostic:      1.210E-02
 
 T1 contribution [au]:                                  0.000000000000
 PPL energy contribution [au]:                          0.057491100919
 Scaled PPL energy contribution [au]:                   0.057694739334

 OS-PPL energy contribution [au]:                       0.050875893903
 Scaled OS-PPL energy contribution [au]:                0.051088643986
 SS-PPL energy contribution [au]:                       0.006615207016
 Scaled SS-PPL energy contribution [au]:                0.006619796200

 Opposite spin CCSD energy [au]:                       -0.185474644204
 Same spin CCSD energy [au]:                           -0.035322571695
 CCSD correlation energy [au]:                         -0.220797215900
 CCSD correlation energy + MP2 correction [au]:        -0.221500982627
 CCSD correlation energy + MP2 + PPL corr. [au]:       -0.221297344212
 Total CCSD energy [au]:                              -40.433812495320
 Total CCSD energy + MP2 correction [au]:             -40.434516262048
 Total CCSD energy + MP2 + PPL corr. [au]:            -40.434312623632
 
 CPU time [min]:     0.387                   Wall time [min]:     0.013
 
 Calculation of (T) correction...
 
 
       67.65 MB memory is utilized for (T)

 0%       25%       50%       75%       100%
 |---------|---------|---------|---------| 
 
 (T) correction [au]:                                    -0.006569285145
 (T*) correction [au]:                                   -0.006592364622
 (T+) correction [au]:                                   -0.006592381796
 CCSD(T) correlation energy [au]:                        -0.227366501045
 CCSD(T) correlation energy + MP2 correction [au]:       -0.228070267772
 CCSD(T+) correlation en. + MP2 + PPL corr. [au]:        -0.227889726008
 Total CCSD(T) energy [au]:                             -40.440381780465
 Total CCSD(T) energy + MP2 correction [au]:            -40.441085547193
 Total CCSD(T+) energy + MP2 + PPL corr. [au]:          -40.440905005428
 
 CPU time [min]:     0.452                   Wall time [min]:     0.015
 
 ************************ 2023-02-04 11:43:43 *************************
                      Normal termination of mrcc.
 **********************************************************************
