 vasp.6.3.0 20Jan22 (build Apr  1 2022 16:44:48) complex                         
 executed on        HPECrayEX_GCC date 2023.01.23  22:20:20
 running  512 mpi-ranks, with    1 threads/rank
 distrk:  each k-point on  512 cores,    1 groups
 distr:  one band on NCORE=   8 cores,   64 groups


--------------------------------------------------------------------------------------------------------


 INCAR:
   SYSTEM = MgO-rocksalt
   ISMEAR = 0
   SIGMA = 0.05
   EDIFF = 1E-8
   ALGO = ALL
   ISTART = 0
   IBRION = 5
   POTIM = 0.01
   NFREE = 2
   ISYM = 0
   DIPOL = 0.5 0.5 0.5
   IDIPOL = 3
   LDIPOL = .TRUE.
   GGA = RE
   AGGAC = 0.0
   LUSE_VDW = .TRUE.
   LASPH = .TRUE.
   ENCUT = 600
   PREC = Accurate
   LASPH = .TRUE.
   LREAL = .FALSE.
   ISPIN = 2
   MAGMOM = 1.0 0.0 0.0 0.0 0.0 0.0 0.0 0.0 0.0 0.0 0.0 0.0 0.0 0.0 0.0 0.0 0.0 0.0 0.0 0.0 0.0 0.0 0.0 0.0 0.0 0.0 0.0 0.0 0.0 0.0 0.0 0.0 0.0 0.0 0.0 0.0 0.0 0.0 0.0 0.0 0.0 0.0 0.0 0.0 0.0 0.0 0.0 0.0 0.0 0.0 0.0 0.0 0.0 0.0 0.0 0.0 0.0 0.0 0.0 0.0 0.0 0.0 0.0 0.0 0.0 0.0
   NELM = 200
   NELMIN = 8
   NCORE = 8
   KPAR = 1
   LWAVE = .FALSE.
   LCHARG = .FALSE.

 POTCAR:    PAW_PBE N 08Apr2002                   
 POTCAR:    PAW_PBE O 08Apr2002                   
 POTCAR:    PAW_PBE Mg_pv 13Apr2007               
 POTCAR:    PAW_PBE O 08Apr2002                   
 -----------------------------------------------------------------------------
|                                                                             |
|               ----> ADVICE to this user running VASP <----                  |
|                                                                             |
|     You have switched on vdW-DFT.                                           |
|     This routine was written and supplied by Jiri Klimes. We recommend      |
|     that you carefully read and cite the following publications:            |
|       J. Klimes, D.R. Bowler, A. Michelides                                 |
|          J. Phys.: Cond Matt. 22 022201 (2010)                              |
|       J. Klimes, D.R. Bowler, A. Michelides                                 |
|          Phys. Rev. B. 83, 195131 (2011)                                    |
|     and references therein.                                                 |
|                                                                             |
 -----------------------------------------------------------------------------

 POTCAR:    PAW_PBE N 08Apr2002                   
   SHA256 =  e053789ff3a61a86a1b75d8a110fcc91f86041011e7b0817c7c99e4e8a6349d7 N/POTCAR              
   COPYR  = (c) Copyright 08Apr2002 Georg Kresse                                                    
   COPYR  = This file is part of the software VASP. Any use, copying, and all other rights are regul
   COPYR  = If you do not have a valid VASP license, you may not use, copy or distribute this file. 
   VRHFIN =N: s2p3                                                                                  
   LEXCH  = PE                                                                                      
   EATOM  =   264.5486 eV,   19.4438 Ry                                                             
                                                                                                    
   TITEL  = PAW_PBE N 08Apr2002                                                                     
   LULTRA =        F    use ultrasoft PP ?                                                          
   IUNSCR =        1    unscreen: 0-lin 1-nonlin 2-no                                               
   RPACOR =    1.200    partial core radius                                                         
   POMASS =   14.001; ZVAL   =    5.000    mass and valenz                                          
   RCORE  =    1.500    outmost cutoff radius                                                       
   RWIGS  =    1.400; RWIGS  =    0.741    wigner-seitz radius (au A)                               
   ENMAX  =  400.000; ENMIN  =  300.000 eV                                                          
   ICORE  =        2    local potential                                                             
   LCOR   =        T    correct aug charges                                                         
   LPAW   =        T    paw PP                                                                      
   EAUG   =  627.112                                                                                
   DEXC   =    0.000                                                                                
   RMAX   =    1.529    core radius for proj-oper                                                   
   RAUG   =    1.300    factor for augmentation sphere                                              
   RDEP   =    1.514    radius for radial grids                                                     
   RDEPT  =    1.338    core radius for aug-charge                                                  
                                                                                                    
   Atomic configuration                                                                             
    4 entries                                                                                       
     n  l   j            E        occ.                                                              
     1  0  0.50      -384.7179   2.0000                                                             
     2  0  0.50       -18.5828   2.0000                                                             
     2  1  0.50        -7.0898   3.0000                                                             
     3  2  1.50        -6.8029   0.0000                                                             
   Description                                                                                      
     l       E           TYP  RCUT    TYP  RCUT                                                     
     0    -18.5828119     23  1.200                                                                 
     0    -13.5018863     23  1.200                                                                 
     1     -7.0897853     23  1.500                                                                 
     1      9.5240782     23  1.500                                                                 
     2     -6.8029130      7  1.500                                                                 
  local pseudopotential read in
  partial core-charges read in
  partial kinetic energy density read in
  atomic valenz-charges read in
  non local Contribution for L=           0  read in
    real space projection operators read in
  non local Contribution for L=           0  read in
    real space projection operators read in
  non local Contribution for L=           1  read in
    real space projection operators read in
  non local Contribution for L=           1  read in
    real space projection operators read in
    PAW grid and wavefunctions read in

   number of l-projection  operators is LMAX  =           4
   number of lm-projection operators is LMMAX =           8

 POTCAR:    PAW_PBE O 08Apr2002                   
   SHA256 =  818f92134a0a090dccd8ba1447fa70422a3b330e708bb4f08108d8ae51209ddf O/POTCAR              
   COPYR  = (c) Copyright 08Apr2002 Georg Kresse                                                    
   COPYR  = This file is part of the software VASP. Any use, copying, and all other rights are regul
   COPYR  = If you do not have a valid VASP license, you may not use, copy or distribute this file. 
   VRHFIN =O: s2p4                                                                                  
   LEXCH  = PE                                                                                      
   EATOM  =   432.3788 eV,   31.7789 Ry                                                             
                                                                                                    
   TITEL  = PAW_PBE O 08Apr2002                                                                     
   LULTRA =        F    use ultrasoft PP ?                                                          
   IUNSCR =        1    unscreen: 0-lin 1-nonlin 2-no                                               
   RPACOR =    1.200    partial core radius                                                         
   POMASS =   16.000; ZVAL   =    6.000    mass and valenz                                          
   RCORE  =    1.520    outmost cutoff radius                                                       
   RWIGS  =    1.550; RWIGS  =    0.820    wigner-seitz radius (au A)                               
   ENMAX  =  400.000; ENMIN  =  300.000 eV                                                          
   ICORE  =        2    local potential                                                             
   LCOR   =        T    correct aug charges                                                         
   LPAW   =        T    paw PP                                                                      
   EAUG   =  605.392                                                                                
   DEXC   =    0.000                                                                                
   RMAX   =    1.553    core radius for proj-oper                                                   
   RAUG   =    1.300    factor for augmentation sphere                                              
   RDEP   =    1.550    radius for radial grids                                                     
   RDEPT  =    1.329    core radius for aug-charge                                                  
                                                                                                    
   Atomic configuration                                                                             
    4 entries                                                                                       
     n  l   j            E        occ.                                                              
     1  0  0.50      -514.6923   2.0000                                                             
     2  0  0.50       -23.9615   2.0000                                                             
     2  1  0.50        -9.0305   4.0000                                                             
     3  2  1.50        -9.5241   0.0000                                                             
   Description                                                                                      
     l       E           TYP  RCUT    TYP  RCUT                                                     
     0    -23.9615318     23  1.200                                                                 
     0     -9.5240782     23  1.200                                                                 
     1     -9.0304911     23  1.520                                                                 
     1      8.1634956     23  1.520                                                                 
     2     -9.5240782      7  1.500                                                                 
  local pseudopotential read in
  partial core-charges read in
  partial kinetic energy density read in
  kinetic energy density of atom read in
  atomic valenz-charges read in
  non local Contribution for L=           0  read in
    real space projection operators read in
  non local Contribution for L=           0  read in
    real space projection operators read in
  non local Contribution for L=           1  read in
    real space projection operators read in
  non local Contribution for L=           1  read in
    real space projection operators read in
    PAW grid and wavefunctions read in

   number of l-projection  operators is LMAX  =           4
   number of lm-projection operators is LMMAX =           8

 POTCAR:    PAW_PBE Mg_pv 13Apr2007               
   SHA256 =  f474ac0dd33840b9ae76c01d57fea79fdf77cdfbb07d5ade72c65f83c709b62b Mg_pv/POTCAR          
   COPYR  = (c) Copyright 13Apr2007 Georg Kresse                                                    
   COPYR  = This file is part of the software VASP. Any use, copying, and all other rights are regul
   COPYR  = If you do not have a valid VASP license, you may not use, copy or distribute this file. 
   VRHFIN =Mg: p6s2                                                                                 
   LEXCH  = PE                                                                                      
   EATOM  =  1056.7344 eV,   77.6678 Ry                                                             
                                                                                                    
   TITEL  = PAW_PBE Mg_pv 13Apr2007                                                                 
   LULTRA =        F    use ultrasoft PP ?                                                          
   IUNSCR =        1    unscreen: 0-lin 1-nonlin 2-no                                               
   RPACOR =    1.500    partial core radius                                                         
   POMASS =   24.305; ZVAL   =    8.000    mass and valenz                                          
   RCORE  =    2.000    outmost cutoff radius                                                       
   RWIGS  =    2.000; RWIGS  =    1.058    wigner-seitz radius (au A)                               
   ENMAX  =  403.929; ENMIN  =  302.947 eV                                                          
   RCLOC  =    1.506    cutoff for local pot                                                        
   LCOR   =        T    correct aug charges                                                         
   LPAW   =        T    paw PP                                                                      
   EAUG   =  758.780                                                                                
   DEXC   =    0.000                                                                                
   RMAX   =    2.045    core radius for proj-oper                                                   
   RAUG   =    1.300    factor for augmentation sphere                                              
   RDEP   =    2.025    radius for radial grids                                                     
   RDEPT  =    1.557    core radius for aug-charge                                                  
                                                                                                    
   Atomic configuration                                                                             
    5 entries                                                                                       
     n  l   j            E        occ.                                                              
     1  0  0.50     -1259.6230   2.0000                                                             
     2  0  0.50       -79.8442   2.0000                                                             
     2  1  1.50       -46.6121   6.0000                                                             
     3  0  0.50        -4.7055   2.0000                                                             
     3  2  1.50        -1.3606   0.0000                                                             
   Description                                                                                      
     l       E           TYP  RCUT    TYP  RCUT                                                     
     1    -46.6121073     23  1.600                                                                 
     1      2.7211652     23  1.600                                                                 
     0     -4.7054661     23  2.000                                                                 
     0     61.2262170     23  2.000                                                                 
     2     -1.3605826     23  2.000                                                                 
  local pseudopotential read in
  partial core-charges read in
  partial kinetic energy density read in
  atomic valenz-charges read in
  non local Contribution for L=           1  read in
    real space projection operators read in
  non local Contribution for L=           1  read in
    real space projection operators read in
  non local Contribution for L=           0  read in
    real space projection operators read in
  non local Contribution for L=           0  read in
    real space projection operators read in
  non local Contribution for L=           2  read in
    real space projection operators read in
    PAW grid and wavefunctions read in

   number of l-projection  operators is LMAX  =           5
   number of lm-projection operators is LMMAX =          13

 POTCAR:    PAW_PBE O 08Apr2002                   
   SHA256 =  818f92134a0a090dccd8ba1447fa70422a3b330e708bb4f08108d8ae51209ddf O/POTCAR              
   COPYR  = (c) Copyright 08Apr2002 Georg Kresse                                                    
   COPYR  = This file is part of the software VASP. Any use, copying, and all other rights are regul
   COPYR  = If you do not have a valid VASP license, you may not use, copy or distribute this file. 
   VRHFIN =O: s2p4                                                                                  
   LEXCH  = PE                                                                                      
   EATOM  =   432.3788 eV,   31.7789 Ry                                                             
                                                                                                    
   TITEL  = PAW_PBE O 08Apr2002                                                                     
   LULTRA =        F    use ultrasoft PP ?                                                          
   IUNSCR =        1    unscreen: 0-lin 1-nonlin 2-no                                               
   RPACOR =    1.200    partial core radius                                                         
   POMASS =   16.000; ZVAL   =    6.000    mass and valenz                                          
   RCORE  =    1.520    outmost cutoff radius                                                       
   RWIGS  =    1.550; RWIGS  =    0.820    wigner-seitz radius (au A)                               
   ENMAX  =  400.000; ENMIN  =  300.000 eV                                                          
   ICORE  =        2    local potential                                                             
   LCOR   =        T    correct aug charges                                                         
   LPAW   =        T    paw PP                                                                      
   EAUG   =  605.392                                                                                
   DEXC   =    0.000                                                                                
   RMAX   =    1.553    core radius for proj-oper                                                   
   RAUG   =    1.300    factor for augmentation sphere                                              
   RDEP   =    1.550    radius for radial grids                                                     
   RDEPT  =    1.329    core radius for aug-charge                                                  
                                                                                                    
   Atomic configuration                                                                             
    4 entries                                                                                       
     n  l   j            E        occ.                                                              
     1  0  0.50      -514.6923   2.0000                                                             
     2  0  0.50       -23.9615   2.0000                                                             
     2  1  0.50        -9.0305   4.0000                                                             
     3  2  1.50        -9.5241   0.0000                                                             
   Description                                                                                      
     l       E           TYP  RCUT    TYP  RCUT                                                     
     0    -23.9615318     23  1.200                                                                 
     0     -9.5240782     23  1.200                                                                 
     1     -9.0304911     23  1.520                                                                 
     1      8.1634956     23  1.520                                                                 
     2     -9.5240782      7  1.500                                                                 
  local pseudopotential read in
  partial core-charges read in
  partial kinetic energy density read in
  kinetic energy density of atom read in
  atomic valenz-charges read in
  non local Contribution for L=           0  read in
    real space projection operators read in
  non local Contribution for L=           0  read in
    real space projection operators read in
  non local Contribution for L=           1  read in
    real space projection operators read in
  non local Contribution for L=           1  read in
    real space projection operators read in
    PAW grid and wavefunctions read in

   number of l-projection  operators is LMAX  =           4
   number of lm-projection operators is LMMAX =           8

 -----------------------------------------------------------------------------
|                                                                             |
|               ----> ADVICE to this user running VASP <----                  |
|                                                                             |
|     You have a (more or less) 'large supercell' and for larger cells it     |
|     might be more efficient to use real-space projection operators.         |
|     Therefore, try LREAL= Auto in the INCAR file.                           |
|     Mind: For very accurate calculation, you might also keep the            |
|     reciprocal projection scheme (i.e. LREAL=.FALSE.).                      |
|                                                                             |
 -----------------------------------------------------------------------------

 -----------------------------------------------------------------------------
|                                                                             |
|               ----> ADVICE to this user running VASP <----                  |
|                                                                             |
|     You enforced a specific xc type in the INCAR file but a different       |
|     type was found in the POTCAR file.                                      |
|     I HOPE YOU KNOW WHAT YOU ARE DOING!                                     |
|                                                                             |
 -----------------------------------------------------------------------------

  PAW_PBE N 08Apr2002                   :
 energy of atom  1       EATOM= -264.5486
 kinetic energy error for atom=    0.0103 (will be added to EATOM!!)
  PAW_PBE O 08Apr2002                   :
 energy of atom  2       EATOM= -432.3788
 kinetic energy error for atom=    0.0168 (will be added to EATOM!!)
  PAW_PBE Mg_pv 13Apr2007               :
 energy of atom  3       EATOM=-1056.7344
 kinetic energy error for atom=    0.0221 (will be added to EATOM!!)
  PAW_PBE O 08Apr2002                   :
 energy of atom  4       EATOM= -432.3788
 kinetic energy error for atom=    0.0168 (will be added to EATOM!!)


 POSCAR:  N  O Mg  O
  positions in direct lattice
  No initial velocities read in
 exchange correlation table for  LEXCH =       40
   RHO(1)=    0.500       N(1)  =     2000
   RHO(2)=  100.500       N(2)  =     4000



--------------------------------------------------------------------------------------------------------


 ion  position               nearest neighbor table
   1  0.500  0.500  0.766-   2 1.18
   2  0.500  0.500  0.821-   1 1.18
   3  0.000  0.750  0.350-  35 2.14  37 2.14  38 2.14  45 2.14  54 2.14
   4  0.250  0.000  0.350-  36 2.14  37 2.14  38 2.14  46 2.14  53 2.14
   5  0.000  0.000  0.450-  37 2.14  36 2.14  35 2.14  43 2.14  52 2.14  41 2.14
   6  0.250  0.750  0.450-  38 2.14  36 2.14  35 2.14  44 2.14  51 2.14  42 2.14
   7  1.000  0.750  0.550-  58 2.14  49 2.14  42 2.14  41 2.14  35 2.15  39 2.16
   8  0.250  0.000  0.550-  50 2.14  57 2.14  42 2.14  41 2.14  36 2.15  40 2.16
   9  0.000  0.000  0.650-  41 2.13  40 2.14  56 2.14  47 2.14  39 2.14
  10  0.250  0.750  0.649-  42 2.12  40 2.13  39 2.13  55 2.14  48 2.14
  11  0.000  0.250  0.350-  43 2.14  37 2.14  45 2.14  46 2.14  62 2.14
  12  0.250  0.500  0.350-  44 2.14  38 2.14  45 2.14  46 2.14  61 2.14
  13  0.000  0.500  0.450-  45 2.14  43 2.14  44 2.14  35 2.14  60 2.14  49 2.14
  14  0.250  0.250  0.450-  46 2.14  43 2.14  44 2.14  36 2.14  59 2.14  50 2.14
  15  0.000  0.250  0.550-  50 2.14  49 2.14  66 2.14  41 2.14  43 2.15  47 2.16
  16  0.250  0.500  0.550-  65 2.13  50 2.14  42 2.14  49 2.14  44 2.15  48 2.16
  17  0.000  0.500  0.649-  49 2.13  48 2.13  64 2.13  47 2.14  39 2.14
  18  0.250  0.250  0.650-  50 2.13  40 2.13  47 2.13  63 2.14  48 2.14
  19  0.500  0.750  0.350-  51 2.14  38 2.14  53 2.14  54 2.14  61 2.14
  20  0.750  0.000  0.350-  52 2.14  37 2.14  53 2.14  54 2.14  62 2.14
  21  0.500  0.000  0.450-  53 2.14  51 2.14  52 2.14  36 2.14  59 2.14  57 2.14
  22  0.750  0.750  0.450-  54 2.14  51 2.14  52 2.14  35 2.14  60 2.14  58 2.14
  23  0.500  0.750  0.550-  65 2.13  58 2.14  42 2.14  57 2.14  51 2.15  55 2.16
  24  0.750  1.000  0.550-  58 2.14  57 2.14  66 2.14  41 2.14  52 2.15  56 2.16
  25  0.500  0.000  0.649-  57 2.13  63 2.13  55 2.13  40 2.14  56 2.14
  26  0.750  0.750  0.650-  58 2.13  56 2.13  39 2.13  55 2.14  64 2.14
  27  0.500  0.250  0.350-  59 2.14  53 2.14  46 2.14  61 2.14  62 2.14
  28  0.750  0.500  0.350-  60 2.14  54 2.14  45 2.14  61 2.14  62 2.14
  29  0.500  0.500  0.450-  61 2.14  51 2.14  59 2.14  60 2.14  44 2.14  65 2.15
  30  0.750  0.250  0.450-  62 2.14  52 2.14  59 2.14  60 2.14  43 2.14  66 2.14
  31  0.500  0.250  0.550-  65 2.13  50 2.14  66 2.14  57 2.14  59 2.15  63 2.16
  32  0.750  0.500  0.550-  65 2.13  58 2.14  66 2.14  49 2.14  60 2.15  64 2.16
  33  0.500  0.500  0.652-  48 2.14  64 2.14  63 2.14  55 2.14  65 2.17
  34  0.750  0.250  0.649-  66 2.12  56 2.13  47 2.13  63 2.14  64 2.14
  35  0.000  0.750  0.450-   3 2.14   5 2.14   6 2.14  13 2.14  22 2.14   7 2.15
  36  0.250  0.000  0.450-   4 2.14   5 2.14   6 2.14  14 2.14  21 2.14   8 2.15
  37  0.000  0.000  0.350-   5 2.14   4 2.14   3 2.14  11 2.14  20 2.14
  38  0.250  0.750  0.350-   6 2.14   4 2.14   3 2.14  12 2.14  19 2.14
  39  1.000  0.750  0.651-  10 2.13  26 2.13   9 2.14  17 2.14   7 2.16
  40  0.250  0.000  0.651-  10 2.13  18 2.13   9 2.14  25 2.14   8 2.16
  41  1.000  1.000  0.550-   9 2.13  24 2.14   8 2.14   7 2.14  15 2.14   5 2.14
  42  0.250  0.750  0.550-  10 2.12   7 2.14   8 2.14  16 2.14  23 2.14   6 2.14
  43  0.000  0.250  0.450-  11 2.14   5 2.14  13 2.14  14 2.14  30 2.14  15 2.15
  44  0.250  0.500  0.450-  12 2.14   6 2.14  13 2.14  14 2.14  29 2.14  16 2.15
  45  0.000  0.500  0.350-  13 2.14  11 2.14  12 2.14   3 2.14  28 2.14
  46  0.250  0.250  0.350-  14 2.14  11 2.14  12 2.14   4 2.14  27 2.14
  47  0.000  0.250  0.651-  34 2.13  18 2.13   9 2.14  17 2.14  15 2.16
  48  0.249  0.500  0.651-  17 2.13  10 2.14  18 2.14  33 2.14  16 2.16
  49  0.000  0.500  0.550-  17 2.13  15 2.14   7 2.14  13 2.14  16 2.14  32 2.14
  50  0.250  0.250  0.550-  18 2.13  15 2.14   8 2.14  16 2.14  31 2.14  14 2.14
  51  0.500  0.750  0.450-  19 2.14   6 2.14  21 2.14  22 2.14  29 2.14  23 2.15
  52  0.750  0.000  0.450-  20 2.14   5 2.14  21 2.14  22 2.14  30 2.14  24 2.15
  53  0.500  0.000  0.350-  21 2.14  19 2.14  20 2.14   4 2.14  27 2.14
  54  0.750  0.750  0.350-  22 2.14  19 2.14  20 2.14   3 2.14  28 2.14
  55  0.500  0.751  0.651-  25 2.13  10 2.14  26 2.14  33 2.14  23 2.16
  56  0.750  1.000  0.651-  34 2.13  26 2.13   9 2.14  25 2.14  24 2.16
  57  0.500  0.000  0.550-  25 2.13  24 2.14   8 2.14  21 2.14  31 2.14  23 2.14
  58  0.750  0.750  0.550-  26 2.13   7 2.14  24 2.14  32 2.14  23 2.14  22 2.14
  59  0.500  0.250  0.450-  27 2.14  21 2.14  14 2.14  29 2.14  30 2.14  31 2.15
  60  0.750  0.500  0.450-  28 2.14  22 2.14  13 2.14  29 2.14  30 2.14  32 2.15
  61  0.500  0.500  0.350-  29 2.14  19 2.14  27 2.14  28 2.14  12 2.14
  62  0.750  0.250  0.350-  30 2.14  20 2.14  27 2.14  28 2.14  11 2.14
  63  0.500  0.249  0.651-  25 2.13  34 2.14  18 2.14  33 2.14  31 2.16
  64  0.751  0.500  0.651-  17 2.13  34 2.14  26 2.14  33 2.14  32 2.16
  65  0.500  0.500  0.550-  16 2.13  32 2.13  31 2.13  23 2.13  29 2.15  33 2.17
  66  0.750  0.250  0.550-  34 2.12  15 2.14  24 2.14  32 2.14  31 2.14  30 2.14


IMPORTANT INFORMATION: All symmetrisations will be switched off!
NOSYMM: (Re-)initialisation of all symmetry stuff for point group C_1.


----------------------------------------------------------------------------------------

                                     Primitive cell                                     

  volume of cell :    1563.6717

  direct lattice vectors                    reciprocal lattice vectors
     8.546113626  0.000000000  0.000000000     0.117012252  0.000000000  0.000000000
     0.000000000  8.546113626  0.000000000     0.000000000  0.117012252  0.000000000
     0.000000000  0.000000000 21.409585219     0.000000000  0.000000000  0.046708051

  length of vectors
     8.546113626  8.546113626 21.409585219     0.117012252  0.117012252  0.046708051

  position of ions in fractional coordinates (direct lattice)
     0.500000046  0.500000039  0.765652354
     0.499999949  0.499999929  0.820641961
     0.000000000  0.750000000  0.350310383
     0.250000000  0.000000000  0.350310383
     0.000000000  0.000000000  0.450103461
     0.250000000  0.750000000  0.450103461
     0.999893820  0.749954275  0.550323455
     0.250045644  0.000106188  0.550323218
     0.000000003  0.000000004  0.649520562
     0.249562891  0.750438804  0.649261804
     0.000000000  0.250000000  0.350310383
     0.250000000  0.500000000  0.350310383
     0.000000000  0.500000000  0.450103461
     0.250000000  0.250000000  0.450103461
     0.000106185  0.250045725  0.550323448
     0.250469081  0.500018785  0.550485322
     0.000000002  0.499999992  0.649484959
     0.249865881  0.249864175  0.649561989
     0.500000000  0.750000000  0.350310383
     0.750000000  0.000000000  0.350310383
     0.500000000  0.000000000  0.450103461
     0.750000000  0.750000000  0.450103461
     0.499981206  0.749531432  0.550485477
     0.749954353  0.999893820  0.550323226
     0.499999992  0.000000002  0.649483998
     0.750134115  0.750135821  0.649561974
     0.500000000  0.250000000  0.350310383
     0.750000000  0.500000000  0.350310383
     0.500000000  0.500000000  0.450103461
     0.750000000  0.250000000  0.450103461
     0.500018779  0.250468567  0.550485457
     0.749530914  0.499981207  0.550485342
     0.499999989  0.499999989  0.651644233
     0.750437103  0.249561192  0.649261805
     0.000000000  0.750000000  0.450103461
     0.250000000  0.000000000  0.450103461
     0.000000000  0.000000000  0.350310383
     0.250000000  0.750000000  0.350310383
     0.999909135  0.750215773  0.651410347
     0.249783456  0.000090865  0.651410081
     0.999999998  0.999999997  0.550061661
     0.249907616  0.750091470  0.550081592
     0.000000000  0.250000000  0.450103461
     0.250000000  0.500000000  0.450103461
     0.000000000  0.500000000  0.350310383
     0.250000000  0.250000000  0.350310383
     0.000090872  0.249784227  0.651410341
     0.249086439  0.500312904  0.651321586
     0.000000004  0.500000000  0.550078461
     0.250032923  0.250033826  0.550159857
     0.500000000  0.750000000  0.450103461
     0.750000000  0.000000000  0.450103461
     0.500000000  0.000000000  0.350310383
     0.750000000  0.750000000  0.350310383
     0.499687120  0.750915546  0.651319077
     0.750216541  0.999909144  0.651410086
     0.500000001  0.000000003  0.550077539
     0.749967080  0.749966179  0.550159864
     0.500000000  0.250000000  0.450103461
     0.750000000  0.500000000  0.450103461
     0.500000000  0.500000000  0.350310383
     0.750000000  0.250000000  0.350310383
     0.500312863  0.249084455  0.651319091
     0.750913555  0.499687079  0.651321572
     0.499999992  0.499999991  0.550476767
     0.750092376  0.249908521  0.550081592

  ion indices of the primitive-cell ions
   primitive index   ion index
                 1           1
                 2           2
                 3           3
                 4           4
                 5           5
                 6           6
                 7           7
                 8           8
                 9           9
                10          10
                11          11
                12          12
                13          13
                14          14
                15          15
                16          16
                17          17
                18          18
                19          19
                20          20
                21          21
                22          22
                23          23
                24          24
                25          25
                26          26
                27          27
                28          28
                29          29
                30          30
                31          31
                32          32
                33          33
                34          34
                35          35
                36          36
                37          37
                38          38
                39          39
                40          40
                41          41
                42          42
                43          43
                44          44
                45          45
                46          46
                47          47
                48          48
                49          49
                50          50
                51          51
                52          52
                53          53
                54          54
                55          55
                56          56
                57          57
                58          58
                59          59
                60          60
                61          61
                62          62
                63          63
                64          64
                65          65
                66          66

----------------------------------------------------------------------------------------



 KPOINTS: pymatgen v2020.8.13 with grid density = 

Automatic generation of k-mesh.
 Grid dimensions read from file:
 generate k-points for:    2    2    1

 Generating k-lattice:

  Cartesian coordinates                     Fractional coordinates (reciprocal lattice)
     0.058506126  0.000000000  0.000000000     0.500000000  0.000000000  0.000000000
     0.000000000  0.058506126  0.000000000     0.000000000  0.500000000  0.000000000
     0.000000000  0.000000000  0.046708051     0.000000000  0.000000000  1.000000000

  Length of vectors
     0.058506126  0.058506126  0.046708051

  Shift w.r.t. Gamma in fractional coordinates (k-lattice)
     0.000000000  0.000000000  0.000000000

 
 Subroutine IBZKPT returns following result:
 ===========================================
 
 Found      4 irreducible k-points:
 
 Following reciprocal coordinates:
            Coordinates               Weight
  0.000000  0.000000  0.000000      1.000000
  0.500000  0.000000  0.000000      1.000000
  0.000000  0.500000  0.000000      1.000000
  0.500000  0.500000  0.000000      1.000000
 
 Following cartesian coordinates:
            Coordinates               Weight
  0.000000  0.000000  0.000000      1.000000
  0.058506  0.000000  0.000000      1.000000
  0.000000  0.058506  0.000000      1.000000
  0.058506  0.058506  0.000000      1.000000
 
 
 Subroutine IBZKPT_HF returns following result:
 ==============================================
 
 Found      4 k-points in 1st BZ
 the following      4 k-points will be used (e.g. in the exchange kernel)
 Following reciprocal coordinates:   # in IRBZ
  0.000000  0.000000  0.000000    0.25000000   1 t-inv F
  0.500000  0.000000  0.000000    0.25000000   2 t-inv F
  0.000000  0.500000  0.000000    0.25000000   3 t-inv F
  0.500000  0.500000  0.000000    0.25000000   4 t-inv F


--------------------------------------------------------------------------------------------------------




 Dimension of arrays:
   k-points           NKPTS =      4   k-points in BZ     NKDIM =      4   number of bands    NBANDS=    320
   number of dos      NEDOS =    301   number of ions     NIONS =     66
   non local maximal  LDIM  =      5   non local SUM 2l+1 LMDIM =     13
   total plane-waves  NPLWV = 882000
   max r-space proj   IRMAX =      1   max aug-charges    IRDMAX=  11315
   dimension x,y,z NGX =    70 NGY =   70 NGZ =  180
   dimension x,y,z NGXF=   140 NGYF=  140 NGZF=  360
   support grid    NGXF=   140 NGYF=  140 NGZF=  360
   ions per type =               1   1  32  32
   NGX,Y,Z   is equivalent  to a cutoff of  13.62, 13.62, 13.98 a.u.
   NGXF,Y,Z  is equivalent  to a cutoff of  27.23, 27.23, 27.95 a.u.

 SYSTEM =  MgO-rocksalt                            
 POSCAR =   N  O Mg  O                             

--------------------------------------------------------------------------------------------------------


  energy-cutoff  :      600.00
  volume of cell :     1563.67
      direct lattice vectors                 reciprocal lattice vectors
     8.546113626  0.000000000  0.000000000     0.117012252  0.000000000  0.000000000
     0.000000000  8.546113626  0.000000000     0.000000000  0.117012252  0.000000000
     0.000000000  0.000000000 21.409585219     0.000000000  0.000000000  0.046708051

  length of vectors
     8.546113626  8.546113626 21.409585219     0.117012252  0.117012252  0.046708051



 k-points in units of 2pi/SCALE and weight: pymatgen v2020.8.13 with grid density = 
   0.00000000  0.00000000  0.00000000       0.250
   0.05850613  0.00000000  0.00000000       0.250
   0.00000000  0.05850613  0.00000000       0.250
   0.05850613  0.05850613  0.00000000       0.250

 k-points in reciprocal lattice and weights: pymatgen v2020.8.13 with grid density = 
   0.00000000  0.00000000  0.00000000       0.250
   0.50000000  0.00000000  0.00000000       0.250
   0.00000000  0.50000000  0.00000000       0.250
   0.50000000  0.50000000  0.00000000       0.250

 position of ions in fractional coordinates (direct lattice) 
   0.50000005  0.50000004  0.76565235
   0.49999995  0.49999993  0.82064196
   0.00000000  0.75000000  0.35031038
   0.25000000  0.00000000  0.35031038
   0.00000000  0.00000000  0.45010346
   0.25000000  0.75000000  0.45010346
   0.99989382  0.74995428  0.55032345
   0.25004564  0.00010619  0.55032322
   0.00000000  0.00000000  0.64952056
   0.24956289  0.75043880  0.64926180
   0.00000000  0.25000000  0.35031038
   0.25000000  0.50000000  0.35031038
   0.00000000  0.50000000  0.45010346
   0.25000000  0.25000000  0.45010346
   0.00010618  0.25004573  0.55032345
   0.25046908  0.50001879  0.55048532
   0.00000000  0.49999999  0.64948496
   0.24986588  0.24986417  0.64956199
   0.50000000  0.75000000  0.35031038
   0.75000000  0.00000000  0.35031038
   0.50000000  0.00000000  0.45010346
   0.75000000  0.75000000  0.45010346
   0.49998121  0.74953143  0.55048548
   0.74995435  0.99989382  0.55032323
   0.49999999  0.00000000  0.64948400
   0.75013411  0.75013582  0.64956197
   0.50000000  0.25000000  0.35031038
   0.75000000  0.50000000  0.35031038
   0.50000000  0.50000000  0.45010346
   0.75000000  0.25000000  0.45010346
   0.50001878  0.25046857  0.55048546
   0.74953091  0.49998121  0.55048534
   0.49999999  0.49999999  0.65164423
   0.75043710  0.24956119  0.64926180
   0.00000000  0.75000000  0.45010346
   0.25000000  0.00000000  0.45010346
   0.00000000  0.00000000  0.35031038
   0.25000000  0.75000000  0.35031038
   0.99990913  0.75021577  0.65141035
   0.24978346  0.00009087  0.65141008
   1.00000000  1.00000000  0.55006166
   0.24990762  0.75009147  0.55008159
   0.00000000  0.25000000  0.45010346
   0.25000000  0.50000000  0.45010346
   0.00000000  0.50000000  0.35031038
   0.25000000  0.25000000  0.35031038
   0.00009087  0.24978423  0.65141034
   0.24908644  0.50031290  0.65132159
   0.00000000  0.50000000  0.55007846
   0.25003292  0.25003383  0.55015986
   0.50000000  0.75000000  0.45010346
   0.75000000  0.00000000  0.45010346
   0.50000000  0.00000000  0.35031038
   0.75000000  0.75000000  0.35031038
   0.49968712  0.75091555  0.65131908
   0.75021654  0.99990914  0.65141009
   0.50000000  0.00000000  0.55007754
   0.74996708  0.74996618  0.55015986
   0.50000000  0.25000000  0.45010346
   0.75000000  0.50000000  0.45010346
   0.50000000  0.50000000  0.35031038
   0.75000000  0.25000000  0.35031038
   0.50031286  0.24908445  0.65131909
   0.75091356  0.49968708  0.65132157
   0.49999999  0.49999999  0.55047677
   0.75009238  0.24990852  0.55008159

 position of ions in cartesian coordinates  (Angst):
   4.27305721  4.27305715 16.39229932
   4.27305638  4.27305621 17.56960400
   0.00000000  6.40958522  7.50000000
   2.13652841  0.00000000  7.50000000
   0.00000000  0.00000000  9.63652841
   2.13652841  6.40958522  9.63652841
   8.54520620  6.40919445 11.78219691
   2.13691849  0.00090749 11.78219183
   0.00000002  0.00000003 13.90596583
   2.13279282  6.41333529 13.90042593
   0.00000000  2.13652841  7.50000000
   2.13652841  4.27305681  7.50000000
   0.00000000  4.27305681  9.63652841
   2.13652841  2.13652841  9.63652841
   0.00090747  2.13691918 11.78219675
   2.14053723  4.27321735 11.78566241
   0.00000002  4.27305674 13.90520357
   2.13538221  2.13536763 13.90685276
   4.27305681  6.40958522  7.50000000
   6.40958522  0.00000000  7.50000000
   4.27305681  0.00000000  9.63652841
   6.40958522  6.40958522  9.63652841
   4.27289620  6.40558079 11.78566574
   6.40919511  8.54520620 11.78219200
   4.27305675  0.00000002 13.90518299
   6.41073138  6.41074596 13.90685244
   4.27305681  2.13652841  7.50000000
   6.40958522  4.27305681  7.50000000
   4.27305681  4.27305681  9.63652841
   6.40958522  2.13652841  9.63652841
   4.27321730  2.14053283 11.78566531
   6.40557636  4.27289620 11.78566284
   4.27305672  4.27305672 13.95143274
   6.41332075  2.13277830 13.90042594
   0.00000000  6.40958522  9.63652841
   2.13652841  0.00000000  9.63652841
   0.00000000  0.00000000  7.50000000
   2.13652841  6.40958522  7.50000000
   8.54533708  6.41142924 13.94642533
   2.13467779  0.00077654 13.94641963
   8.54611361  8.54611360 11.77659201
   2.13573888  6.41036694 11.77701872
   0.00000000  2.13652841  9.63652841
   2.13652841  4.27305681  9.63652841
   0.00000000  4.27305681  7.50000000
   2.13652841  2.13652841  7.50000000
   0.00077660  2.13468439 13.94642520
   2.12872101  4.27573093 13.94452500
   0.00000003  4.27305681 11.77695168
   2.13680977  2.13681749 11.77869435
   4.27305681  6.40958522  9.63652841
   6.40958522  0.00000000  9.63652841
   4.27305681  0.00000000  7.50000000
   6.40958522  6.40958522  7.50000000
   4.27038291  6.41740958 13.94447128
   6.41143580  8.54533716 13.94641975
   4.27305682  0.00000002 11.77693195
   6.40930388  6.40929618 11.77869450
   4.27305681  2.13652841  9.63652841
   6.40958522  4.27305681  9.63652841
   4.27305681  4.27305681  7.50000000
   6.40958522  2.13652841  7.50000000
   4.27573057  2.12870405 13.94447158
   6.41739257  4.27038256 13.94452470
   4.27305675  4.27305674 11.78547925
   6.41037467  2.13574662 11.77701872



--------------------------------------------------------------------------------------------------------

--------------------------------------- Iteration      FINAL  ---------------------------------------


--------------------OUTCAR has been truncated-------------------------


--------------------OUTCAR has been truncated-------------------------


--------------------OUTCAR has been truncated-------------------------


--------------------OUTCAR has been truncated-------------------------


--------------------OUTCAR has been truncated-------------------------


--------------------OUTCAR has been truncated-------------------------


--------------------OUTCAR has been truncated-------------------------


--------------------OUTCAR has been truncated-------------------------


--------------------OUTCAR has been truncated-------------------------


--------------------OUTCAR has been truncated-------------------------


  FORCE on cell =-STRESS in cart. coord.  units (eV):
  Direction    XX          YY          ZZ          XY          YZ          ZX
  --------------------------------------------------------------------------------------
  Alpha Z   884.72509   884.72509   884.72509
  Ewald  152632.19195152632.18610************     0.24464    -0.00026    -0.00023
  Hartree163119.06043163119.00411************     6.20407    -0.00008    -0.00007
  E(xc)   -2570.93761 -2570.93946 -2571.21261     0.24332    -0.00000    -0.00000
  Local  ************************324809.02538   -17.80845     0.00030     0.00026
  n-local -2845.93656 -2845.90574 -2872.33654    -4.01177     0.00000     0.00000
  augment  1085.84019  1085.83210  1076.26171     1.03930     0.00000     0.00000
  Kinetic  7541.28922  7541.17948  7548.51877    13.91529     0.00004     0.00004
  Fock        0.00000     0.00000     0.00000     0.00000     0.00000     0.00000
  -------------------------------------------------------------------------------------
  Total     -30.41557   -30.41759    -1.38388    -0.17361     0.00000     0.00000
  in kB     -31.16456   -31.16662    -1.41796    -0.17788     0.00000     0.00000
  external pressure =      -21.25 kB  Pullay stress =        0.00 kB


 VOLUME and BASIS-vectors are now :
 -----------------------------------------------------------------------------
  energy-cutoff  :      600.00
  volume of cell :     1563.67
      direct lattice vectors                 reciprocal lattice vectors
     8.546113626  0.000000000  0.000000000     0.117012252  0.000000000  0.000000000
     0.000000000  8.546113626  0.000000000     0.000000000  0.117012252  0.000000000
     0.000000000  0.000000000 21.409585219     0.000000000  0.000000000  0.046708051

  length of vectors
     8.546113626  8.546113626 21.409585219     0.117012252  0.117012252  0.046708051


 FORCES acting on ions:
    Electron-Ion                     Ewald-Force                    Non-Local-Force
 -----------------------------------------------------------------------------------------------
   -.205E-03 -.230E-03 -.103E+04   0.239E-03 0.268E-03 0.988E+03   -.344E-04 -.405E-04 0.415E+02
   0.175E-03 0.198E-03 -.146E+04   -.219E-03 -.247E-03 0.152E+04   0.393E-04 0.454E-04 -.600E+02
   0.547E-02 -.146E+00 0.202E+04   -.584E-02 0.145E+00 -.201E+04   0.309E-03 0.443E-03 -.640E+01
   0.146E+00 -.546E-02 0.202E+04   -.145E+00 0.583E-02 -.201E+04   -.434E-03 -.309E-03 -.640E+01
   0.128E-04 0.112E-04 0.697E+03   -.139E-04 -.122E-04 -.697E+03   0.742E-06 0.739E-06 0.423E+00
   0.612E+00 -.611E+00 0.698E+03   -.606E+00 0.605E+00 -.699E+03   -.405E-02 0.413E-02 0.436E+00
   0.167E+00 -.295E+01 -.617E+03   -.174E+00 0.293E+01 0.617E+03   0.823E-02 0.186E-01 -.226E+00
   0.296E+01 -.167E+00 -.617E+03   -.293E+01 0.174E+00 0.617E+03   -.182E-01 -.823E-02 -.226E+00
   0.177E-04 0.160E-04 -.194E+04   -.170E-04 -.155E-04 0.194E+04   -.946E-06 -.929E-06 0.559E+01
   0.206E+02 -.206E+02 -.192E+04   -.207E+02 0.207E+02 0.191E+04   0.908E-01 -.898E-01 0.566E+01
   -.546E-02 0.146E+00 0.202E+04   0.583E-02 -.145E+00 -.201E+04   -.309E-03 -.443E-03 -.640E+01
   0.175E+00 0.616E-02 0.202E+04   -.173E+00 -.622E-02 -.201E+04   -.186E-02 0.474E-04 -.641E+01
   0.288E-04 -.126E-04 0.698E+03   -.306E-04 0.135E-04 -.698E+03   0.122E-05 -.630E-06 0.409E+00
   0.617E+00 0.617E+00 0.698E+03   -.606E+00 -.605E+00 -.698E+03   -.799E-02 -.806E-02 0.460E+00
   -.167E+00 0.295E+01 -.617E+03   0.174E+00 -.293E+01 0.617E+03   -.823E-02 -.186E-01 -.226E+00
   0.548E+01 0.185E+00 -.609E+03   -.537E+01 -.193E+00 0.610E+03   -.114E+00 0.803E-02 -.332E+00
   0.148E-04 -.295E-04 -.193E+04   -.116E-04 0.278E-04 0.192E+04   -.290E-05 0.195E-05 0.561E+01
   0.204E+02 0.204E+02 -.192E+04   -.205E+02 -.205E+02 0.192E+04   0.131E+00 0.130E+00 0.566E+01
   -.617E-02 -.175E+00 0.202E+04   0.623E-02 0.173E+00 -.201E+04   -.476E-04 0.187E-02 -.641E+01
   -.146E+00 0.547E-02 0.202E+04   0.145E+00 -.584E-02 -.201E+04   0.434E-03 0.309E-03 -.640E+01
   -.126E-04 0.272E-04 0.698E+03   0.136E-04 -.289E-04 -.698E+03   -.640E-06 0.119E-05 0.409E+00
   -.617E+00 -.617E+00 0.698E+03   0.606E+00 0.605E+00 -.698E+03   0.799E-02 0.806E-02 0.460E+00
   -.185E+00 -.548E+01 -.609E+03   0.193E+00 0.537E+01 0.610E+03   -.804E-02 0.114E+00 -.331E+00
   -.296E+01 0.167E+00 -.617E+03   0.293E+01 -.174E+00 0.617E+03   0.182E-01 0.823E-02 -.226E+00
   -.201E-04 0.804E-05 -.193E+04   0.191E-04 -.559E-05 0.192E+04   0.136E-05 -.207E-05 0.561E+01
   -.204E+02 -.204E+02 -.192E+04   0.205E+02 0.205E+02 0.192E+04   -.131E+00 -.130E+00 0.566E+01
   0.616E-02 0.175E+00 0.202E+04   -.622E-02 -.173E+00 -.201E+04   0.474E-04 -.187E-02 -.641E+01
   -.175E+00 -.617E-02 0.202E+04   0.173E+00 0.623E-02 -.201E+04   0.186E-02 -.476E-04 -.641E+01
   -.295E-04 -.294E-04 0.699E+03   0.311E-04 0.309E-04 -.699E+03   -.114E-05 -.108E-05 0.509E+00
   -.612E+00 0.611E+00 0.698E+03   0.606E+00 -.605E+00 -.699E+03   0.405E-02 -.413E-02 0.436E+00
   0.185E+00 0.548E+01 -.609E+03   -.193E+00 -.537E+01 0.610E+03   0.804E-02 -.114E+00 -.331E+00
   -.548E+01 -.185E+00 -.609E+03   0.537E+01 0.193E+00 0.610E+03   0.114E+00 -.803E-02 -.332E+00
   -.135E-04 -.279E-04 -.184E+04   0.927E-05 0.232E-04 0.184E+04   0.370E-05 0.471E-05 0.502E+01
   -.206E+02 0.206E+02 -.192E+04   0.207E+02 -.207E+02 0.191E+04   -.908E-01 0.898E-01 0.566E+01
   0.292E-01 -.402E+00 0.523E+03   -.212E-01 0.398E+00 -.523E+03   -.109E-01 0.577E-02 -.625E-01
   0.403E+00 -.292E-01 0.523E+03   -.399E+00 0.212E-01 -.523E+03   -.569E-02 0.109E-01 -.623E-01
   0.253E-05 0.241E-05 0.152E+04   -.270E-05 -.256E-05 -.152E+04   0.258E-06 0.204E-06 0.358E+01
   0.120E+00 -.120E+00 0.152E+04   -.118E+00 0.118E+00 -.152E+04   -.220E-02 0.223E-02 0.358E+01
   0.189E+00 -.797E+01 -.147E+04   -.208E+00 0.791E+01 0.148E+04   0.196E-01 0.517E-01 -.490E+01
   0.797E+01 -.189E+00 -.147E+04   -.791E+01 0.208E+00 0.148E+04   -.505E-01 -.196E-01 -.490E+01
   0.781E-05 0.188E-05 -.460E+03   -.835E-05 -.218E-05 0.460E+03   0.625E-06 0.559E-06 0.258E+00
   0.306E+01 -.306E+01 -.454E+03   -.306E+01 0.305E+01 0.454E+03   -.670E-02 0.730E-02 0.356E+00
   -.292E-01 0.402E+00 0.523E+03   0.212E-01 -.398E+00 -.523E+03   0.109E-01 -.577E-02 -.625E-01
   0.617E+00 0.413E-01 0.523E+03   -.641E+00 -.407E-01 -.523E+03   0.304E-01 -.883E-03 -.934E-01
   0.390E-05 -.244E-05 0.152E+04   -.417E-05 0.258E-05 -.152E+04   0.344E-06 -.233E-06 0.357E+01
   0.120E+00 0.119E+00 0.152E+04   -.118E+00 -.118E+00 -.152E+04   -.186E-02 -.189E-02 0.358E+01
   -.189E+00 0.797E+01 -.147E+04   0.208E+00 -.791E+01 0.148E+04   -.195E-01 -.517E-01 -.490E+01
   0.280E+02 0.243E+00 -.144E+04   -.278E+02 -.263E+00 0.144E+04   -.200E+00 0.206E-01 -.489E+01
   0.188E-04 -.100E-04 -.455E+03   -.199E-04 0.106E-04 0.455E+03   0.732E-06 -.713E-06 0.276E+00
   0.304E+01 0.304E+01 -.455E+03   -.302E+01 -.302E+01 0.455E+03   -.167E-01 -.173E-01 0.278E+00
   -.413E-01 -.616E+00 0.523E+03   0.407E-01 0.639E+00 -.523E+03   0.882E-03 -.303E-01 -.933E-01
   -.403E+00 0.292E-01 0.523E+03   0.399E+00 -.212E-01 -.523E+03   0.569E-02 -.109E-01 -.623E-01
   -.257E-05 0.378E-05 0.152E+04   0.270E-05 -.403E-05 -.152E+04   -.215E-06 0.319E-06 0.357E+01
   -.120E+00 -.119E+00 0.152E+04   0.118E+00 0.118E+00 -.152E+04   0.186E-02 0.189E-02 0.358E+01
   -.243E+00 -.280E+02 -.144E+04   0.263E+00 0.278E+02 0.144E+04   -.205E-01 0.200E+00 -.489E+01
   -.797E+01 0.189E+00 -.147E+04   0.791E+01 -.208E+00 0.148E+04   0.505E-01 0.196E-01 -.490E+01
   -.516E-05 0.125E-04 -.455E+03   0.562E-05 -.132E-04 0.455E+03   -.804E-06 0.799E-06 0.277E+00
   -.304E+01 -.304E+01 -.455E+03   0.302E+01 0.302E+01 0.455E+03   0.167E-01 0.173E-01 0.278E+00
   0.413E-01 0.616E+00 0.523E+03   -.407E-01 -.639E+00 -.523E+03   -.883E-03 0.303E-01 -.933E-01
   -.617E+00 -.413E-01 0.523E+03   0.641E+00 0.407E-01 -.523E+03   -.304E-01 0.882E-03 -.934E-01
   -.392E-05 -.386E-05 0.152E+04   0.419E-05 0.406E-05 -.152E+04   -.330E-06 -.323E-06 0.357E+01
   -.120E+00 0.120E+00 0.152E+04   0.118E+00 -.118E+00 -.152E+04   0.220E-02 -.223E-02 0.358E+01
   0.243E+00 0.280E+02 -.144E+04   -.263E+00 -.278E+02 0.144E+04   0.205E-01 -.200E+00 -.489E+01
   -.280E+02 -.243E+00 -.144E+04   0.278E+02 0.263E+00 0.144E+04   0.200E+00 -.206E-01 -.489E+01
   -.195E-04 -.242E-04 -.453E+03   0.203E-04 0.250E-04 0.453E+03   -.459E-06 -.388E-06 -.236E+00
   -.306E+01 0.306E+01 -.454E+03   0.306E+01 -.305E+01 0.454E+03   0.670E-02 -.730E-02 0.356E+00
 -----------------------------------------------------------------------------------------------
   -.163E-04 -.146E-04 0.333E+02   0.163E-12 0.693E-13 -.495E-11   0.106E-04 0.724E-05 -.333E+02


 POSITION                                       TOTAL-FORCE (eV/Angst)
 -----------------------------------------------------------------------------------
      4.27306      4.27306     16.39230        -0.000001     -0.000003     -0.931060
      4.27306      4.27306     17.55960        -0.000004     -0.000004      0.944294
      0.00000      6.40959      7.50000        -0.000058     -0.000196      0.323421
      2.13653      0.00000      7.50000         0.000193      0.000058      0.323413
      0.00000      0.00000      9.63653        -0.000000     -0.000000      0.019463
      2.13653      6.40959      9.63653         0.001618     -0.001646      0.022740
      8.54521      6.40919     11.78220         0.000709     -0.004011      0.001283
      2.13692      0.00091     11.78219         0.003858     -0.000709      0.001187
      0.00000      0.00000     13.90597        -0.000000     -0.000000     -0.002787
      2.13279      6.41334     13.90043        -0.000463     -0.000045     -0.005998
      0.00000      2.13653      7.50000         0.000058      0.000197      0.323421
      2.13653      4.27306      7.50000         0.000450     -0.000008      0.324088
      0.00000      4.27306      9.63653        -0.000000      0.000000      0.030939
      2.13653      2.13653      9.63653         0.003846      0.003875      0.022522
      0.00091      2.13692     11.78220        -0.000709      0.004011      0.001283
      2.14054      4.27322     11.78566        -0.003733      0.000376      0.000311
      0.00000      4.27306     13.90520         0.000000      0.000000     -0.008423
      2.13538      2.13537     13.90685        -0.000372      0.000135     -0.006255
      4.27306      6.40959      7.50000         0.000009     -0.000453      0.324081
      6.40959      0.00000      7.50000        -0.000193     -0.000058      0.323413
      4.27306      0.00000      9.63653         0.000000     -0.000000      0.030813
      6.40959      6.40959      9.63653        -0.003846     -0.003875      0.022523
      4.27290      6.40558     11.78567        -0.000372      0.003535     -0.000098
      6.40920      8.54521     11.78219        -0.003857      0.000709      0.001187
      4.27306      0.00000     13.90518         0.000000      0.000000     -0.008486
      6.41073      6.41075     13.90685         0.000372     -0.000133     -0.006255
      4.27306      2.13653      7.50000        -0.000008      0.000453      0.324081
      6.40959      4.27306      7.50000        -0.000450      0.000009      0.324088
      4.27306      4.27306      9.63653         0.000001      0.000001      0.032754
      6.40959      2.13653      9.63653        -0.001618      0.001647      0.022740
      4.27322      2.14053     11.78567         0.000373     -0.003535     -0.000097
      6.40558      4.27290     11.78566         0.003734     -0.000375      0.000310
      4.27306      4.27306     13.95143        -0.000000      0.000000     -0.008906
      6.41332      2.13278     13.90043         0.000463      0.000045     -0.005998
      0.00000      6.40959      9.63653        -0.002936      0.001443      0.046616
      2.13653      0.00000      9.63653        -0.001421      0.002936      0.046637
      0.00000      0.00000      7.50000         0.000000      0.000000     -0.396341
      2.13653      6.40959      7.50000        -0.000620      0.000628     -0.396579
      8.54534      6.41143     13.94643         0.000937     -0.003257      0.003715
      2.13468      0.00078     13.94642         0.003620     -0.000940      0.003775
      8.54611      8.54611     11.77659         0.000000      0.000000      0.001598
      2.13574      6.41037     11.77702         0.000463     -0.000235     -0.001539
      0.00000      2.13653      9.63653         0.002936     -0.001442      0.046616
      2.13653      4.27306      9.63653         0.007236     -0.000295      0.053838
      0.00000      4.27306      7.50000         0.000000      0.000000     -0.396664
      2.13653      2.13653      7.50000        -0.000515     -0.000523     -0.396672
      0.00078      2.13468     13.94643        -0.000938      0.003256      0.003716
      2.12872      4.27573     13.94453         0.000775      0.000024      0.001388
      0.00000      4.27306     11.77695        -0.000000     -0.000000     -0.001103
      2.13681      2.13682     11.77869         0.000087     -0.000136     -0.001737
      4.27306      6.40959      9.63653         0.000296     -0.007210      0.053876
      6.40959      0.00000      9.63653         0.001421     -0.002936      0.046637
      4.27306      0.00000      7.50000         0.000000      0.000000     -0.396654
      6.40959      6.40959      7.50000         0.000515      0.000523     -0.396672
      4.27038      6.41741     13.94447        -0.000010     -0.000861      0.002320
      6.41144      8.54534     13.94642        -0.003620      0.000939      0.003775
      4.27306      0.00000     11.77693        -0.000000      0.000000     -0.000758
      6.40930      6.40930     11.77869        -0.000087      0.000136     -0.001738
      4.27306      2.13653      9.63653        -0.000296      0.007210      0.053876
      6.40959      4.27306      9.63653        -0.007236      0.000296      0.053838
      4.27306      4.27306      7.50000         0.000000     -0.000000     -0.397543
      6.40959      2.13653      7.50000         0.000620     -0.000628     -0.396579
      4.27573      2.12870     13.94447         0.000011      0.000861      0.002321
      6.41739      4.27038     13.94452        -0.000776     -0.000022      0.001387
      4.27306      4.27306     11.78548         0.000000      0.000001     -0.003803
      6.41037      2.13575     11.77702        -0.000462      0.000236     -0.001539
 -----------------------------------------------------------------------------------
    total drift:                               -0.000006     -0.000007      0.010467


--------------------------------------------------------------------------------------------------------



  FREE ENERGIE OF THE ION-ELECTRON SYSTEM (eV)
  ---------------------------------------------------
  free  energy   TOTEN  =      -235.80804332 eV

  energy  without entropy=     -235.80804328  energy(sigma->0) =     -235.80804330

 d Force =-0.7131517E-03[-0.189E-01, 0.175E-01]  d Energy =-0.2399368E-03-0.473E-03
 d Force =-0.3024412E+02[-0.304E+02,-0.301E+02]  d Ewald  =-0.3024322E+02-0.900E-03


--------------------------------------------------------------------------------------------------------


    POTLOK:  cpu time      3.3757: real time      3.3758


--------------------------------------------------------------------------------------------------------


 Finite differences progress:
  Degree of freedom:   6/  6
  Displacement:        2/  2
  Total:              12/ 12

 SECOND DERIVATIVES (NOT SYMMETRIZED)
 ------------------------------------
               1X          1Y          1Z          2X          2Y          2Z 
  1X    -0.578866    1.218542   -0.000717    0.163848   -0.534684    0.000118
  1Y     1.192752   -0.577904    0.009202   -0.547288    0.150676   -0.000328
  1Z    -0.004371   -0.012090  -90.534592   -0.001577   -0.005622   90.348650
  2X     0.152474   -0.548654   -0.004497    0.041072    0.254036   -0.000746
  2Y    -0.561081    0.163879   -0.001891    0.198213    0.054837   -0.000480
  2Z     0.002085   -0.003960   90.367868    0.005534    0.004365  -90.863653


 Eigenvectors and eigenvalues of the dynamical matrix
 ----------------------------------------------------


   1 f  =   54.431192 THz   342.001264 2PiTHz 1815.629120 cm-1   225.109220 meV
             X         Y         Z           dx          dy          dz
      4.273057  4.273057 16.392299     0.000015   -0.000002    0.729749  
      4.273056  4.273056 17.569604     0.000021    0.000022   -0.683715  
      0.000000  6.409585  7.500000            0           0           0  
      2.136528  0.000000  7.500000            0           0           0  
      0.000000  0.000000  9.636528            0           0           0  
      2.136528  6.409585  9.636528            0           0           0  
      8.545206  6.409194 11.782197            0           0           0  
      2.136918  0.000907 11.782192            0           0           0  
      0.000000  0.000000 13.905966            0           0           0  
      2.132793  6.413335 13.900426            0           0           0  
      0.000000  2.136528  7.500000            0           0           0  
      2.136528  4.273057  7.500000            0           0           0  
      0.000000  4.273057  9.636528            0           0           0  
      2.136528  2.136528  9.636528            0           0           0  
      0.000907  2.136919 11.782197            0           0           0  
      2.140537  4.273217 11.785662            0           0           0  
      0.000000  4.273057 13.905204            0           0           0  
      2.135382  2.135368 13.906853            0           0           0  
      4.273057  6.409585  7.500000            0           0           0  
      6.409585  0.000000  7.500000            0           0           0  
      4.273057  0.000000  9.636528            0           0           0  
      6.409585  6.409585  9.636528            0           0           0  
      4.272896  6.405581 11.785666            0           0           0  
      6.409195  8.545206 11.782192            0           0           0  
      4.273057  0.000000 13.905183            0           0           0  
      6.410731  6.410746 13.906852            0           0           0  
      4.273057  2.136528  7.500000            0           0           0  
      6.409585  4.273057  7.500000            0           0           0  
      4.273057  4.273057  9.636528            0           0           0  
      6.409585  2.136528  9.636528            0           0           0  
      4.273217  2.140533 11.785665            0           0           0  
      6.405576  4.272896 11.785663            0           0           0  
      4.273057  4.273057 13.951433            0           0           0  
      6.413321  2.132778 13.900426            0           0           0  
      0.000000  6.409585  9.636528            0           0           0  
      2.136528  0.000000  9.636528            0           0           0  
      0.000000  0.000000  7.500000            0           0           0  
      2.136528  6.409585  7.500000            0           0           0  
      8.545337  6.411429 13.946425            0           0           0  
      2.134678  0.000777 13.946420            0           0           0  
      8.546114  8.546114 11.776592            0           0           0  
      2.135739  6.410367 11.777019            0           0           0  
      0.000000  2.136528  9.636528            0           0           0  
      2.136528  4.273057  9.636528            0           0           0  
      0.000000  4.273057  7.500000            0           0           0  
      2.136528  2.136528  7.500000            0           0           0  
      0.000777  2.134684 13.946425            0           0           0  
      2.128721  4.275731 13.944525            0           0           0  
      0.000000  4.273057 11.776952            0           0           0  
      2.136810  2.136817 11.778694            0           0           0  
      4.273057  6.409585  9.636528            0           0           0  
      6.409585  0.000000  9.636528            0           0           0  
      4.273057  0.000000  7.500000            0           0           0  
      6.409585  6.409585  7.500000            0           0           0  
      4.270383  6.417410 13.944471            0           0           0  
      6.411436  8.545337 13.946420            0           0           0  
      4.273057  0.000000 11.776932            0           0           0  
      6.409304  6.409296 11.778694            0           0           0  
      4.273057  2.136528  9.636528            0           0           0  
      6.409585  4.273057  9.636528            0           0           0  
      4.273057  4.273057  7.500000            0           0           0  
      6.409585  2.136528  7.500000            0           0           0  
      4.275731  2.128704 13.944472            0           0           0  
      6.417393  4.270383 13.944525            0           0           0  
      4.273057  4.273057 11.785479            0           0           0  
      6.410375  2.135747 11.777019            0           0           0  

   2 f  =    5.935195 THz    37.291932 2PiTHz  197.976804 cm-1    24.545984 meV
             X         Y         Z           dx          dy          dz
      4.273057  4.273057 16.392299     0.666520   -0.666420   -0.000330  
      4.273056  4.273056 17.569604    -0.237013    0.235500   -0.000335  
      0.000000  6.409585  7.500000            0           0           0  
      2.136528  0.000000  7.500000            0           0           0  
      0.000000  0.000000  9.636528            0           0           0  
      2.136528  6.409585  9.636528            0           0           0  
      8.545206  6.409194 11.782197            0           0           0  
      2.136918  0.000907 11.782192            0           0           0  
      0.000000  0.000000 13.905966            0           0           0  
      2.132793  6.413335 13.900426            0           0           0  
      0.000000  2.136528  7.500000            0           0           0  
      2.136528  4.273057  7.500000            0           0           0  
      0.000000  4.273057  9.636528            0           0           0  
      2.136528  2.136528  9.636528            0           0           0  
      0.000907  2.136919 11.782197            0           0           0  
      2.140537  4.273217 11.785662            0           0           0  
      0.000000  4.273057 13.905204            0           0           0  
      2.135382  2.135368 13.906853            0           0           0  
      4.273057  6.409585  7.500000            0           0           0  
      6.409585  0.000000  7.500000            0           0           0  
      4.273057  0.000000  9.636528            0           0           0  
      6.409585  6.409585  9.636528            0           0           0  
      4.272896  6.405581 11.785666            0           0           0  
      6.409195  8.545206 11.782192            0           0           0  
      4.273057  0.000000 13.905183            0           0           0  
      6.410731  6.410746 13.906852            0           0           0  
      4.273057  2.136528  7.500000            0           0           0  
      6.409585  4.273057  7.500000            0           0           0  
      4.273057  4.273057  9.636528            0           0           0  
      6.409585  2.136528  9.636528            0           0           0  
      4.273217  2.140533 11.785665            0           0           0  
      6.405576  4.272896 11.785663            0           0           0  
      4.273057  4.273057 13.951433            0           0           0  
      6.413321  2.132778 13.900426            0           0           0  
      0.000000  6.409585  9.636528            0           0           0  
      2.136528  0.000000  9.636528            0           0           0  
      0.000000  0.000000  7.500000            0           0           0  
      2.136528  6.409585  7.500000            0           0           0  
      8.545337  6.411429 13.946425            0           0           0  
      2.134678  0.000777 13.946420            0           0           0  
      8.546114  8.546114 11.776592            0           0           0  
      2.135739  6.410367 11.777019            0           0           0  
      0.000000  2.136528  9.636528            0           0           0  
      2.136528  4.273057  9.636528            0           0           0  
      0.000000  4.273057  7.500000            0           0           0  
      2.136528  2.136528  7.500000            0           0           0  
      0.000777  2.134684 13.946425            0           0           0  
      2.128721  4.275731 13.944525            0           0           0  
      0.000000  4.273057 11.776952            0           0           0  
      2.136810  2.136817 11.778694            0           0           0  
      4.273057  6.409585  9.636528            0           0           0  
      6.409585  0.000000  9.636528            0           0           0  
      4.273057  0.000000  7.500000            0           0           0  
      6.409585  6.409585  7.500000            0           0           0  
      4.270383  6.417410 13.944471            0           0           0  
      6.411436  8.545337 13.946420            0           0           0  
      4.273057  0.000000 11.776932            0           0           0  
      6.409304  6.409296 11.778694            0           0           0  
      4.273057  2.136528  9.636528            0           0           0  
      6.409585  4.273057  9.636528            0           0           0  
      4.273057  4.273057  7.500000            0           0           0  
      6.409585  2.136528  7.500000            0           0           0  
      4.275731  2.128704 13.944472            0           0           0  
      6.417393  4.270383 13.944525            0           0           0  
      4.273057  4.273057 11.785479            0           0           0  
      6.410375  2.135747 11.777019            0           0           0  

   3 f  =    2.356293 THz    14.805025 2PiTHz   78.597470 cm-1     9.744840 meV
             X         Y         Z           dx          dy          dz
      4.273057  4.273057 16.392299     0.002985    0.003327    0.683698  
      4.273056  4.273056 17.569604     0.001973    0.004950    0.729732  
      0.000000  6.409585  7.500000            0           0           0  
      2.136528  0.000000  7.500000            0           0           0  
      0.000000  0.000000  9.636528            0           0           0  
      2.136528  6.409585  9.636528            0           0           0  
      8.545206  6.409194 11.782197            0           0           0  
      2.136918  0.000907 11.782192            0           0           0  
      0.000000  0.000000 13.905966            0           0           0  
      2.132793  6.413335 13.900426            0           0           0  
      0.000000  2.136528  7.500000            0           0           0  
      2.136528  4.273057  7.500000            0           0           0  
      0.000000  4.273057  9.636528            0           0           0  
      2.136528  2.136528  9.636528            0           0           0  
      0.000907  2.136919 11.782197            0           0           0  
      2.140537  4.273217 11.785662            0           0           0  
      0.000000  4.273057 13.905204            0           0           0  
      2.135382  2.135368 13.906853            0           0           0  
      4.273057  6.409585  7.500000            0           0           0  
      6.409585  0.000000  7.500000            0           0           0  
      4.273057  0.000000  9.636528            0           0           0  
      6.409585  6.409585  9.636528            0           0           0  
      4.272896  6.405581 11.785666            0           0           0  
      6.409195  8.545206 11.782192            0           0           0  
      4.273057  0.000000 13.905183            0           0           0  
      6.410731  6.410746 13.906852            0           0           0  
      4.273057  2.136528  7.500000            0           0           0  
      6.409585  4.273057  7.500000            0           0           0  
      4.273057  4.273057  9.636528            0           0           0  
      6.409585  2.136528  9.636528            0           0           0  
      4.273217  2.140533 11.785665            0           0           0  
      6.405576  4.272896 11.785663            0           0           0  
      4.273057  4.273057 13.951433            0           0           0  
      6.413321  2.132778 13.900426            0           0           0  
      0.000000  6.409585  9.636528            0           0           0  
      2.136528  0.000000  9.636528            0           0           0  
      0.000000  0.000000  7.500000            0           0           0  
      2.136528  6.409585  7.500000            0           0           0  
      8.545337  6.411429 13.946425            0           0           0  
      2.134678  0.000777 13.946420            0           0           0  
      8.546114  8.546114 11.776592            0           0           0  
      2.135739  6.410367 11.777019            0           0           0  
      0.000000  2.136528  9.636528            0           0           0  
      2.136528  4.273057  9.636528            0           0           0  
      0.000000  4.273057  7.500000            0           0           0  
      2.136528  2.136528  7.500000            0           0           0  
      0.000777  2.134684 13.946425            0           0           0  
      2.128721  4.275731 13.944525            0           0           0  
      0.000000  4.273057 11.776952            0           0           0  
      2.136810  2.136817 11.778694            0           0           0  
      4.273057  6.409585  9.636528            0           0           0  
      6.409585  0.000000  9.636528            0           0           0  
      4.273057  0.000000  7.500000            0           0           0  
      6.409585  6.409585  7.500000            0           0           0  
      4.270383  6.417410 13.944471            0           0           0  
      6.411436  8.545337 13.946420            0           0           0  
      4.273057  0.000000 11.776932            0           0           0  
      6.409304  6.409296 11.778694            0           0           0  
      4.273057  2.136528  9.636528            0           0           0  
      6.409585  4.273057  9.636528            0           0           0  
      4.273057  4.273057  7.500000            0           0           0  
      6.409585  2.136528  7.500000            0           0           0  
      4.275731  2.128704 13.944472            0           0           0  
      6.417393  4.270383 13.944525            0           0           0  
      4.273057  4.273057 11.785479            0           0           0  
      6.410375  2.135747 11.777019            0           0           0  

   4 f/i=    0.590257 THz     3.708695 2PiTHz   19.688857 cm-1     2.441106 meV
             X         Y         Z           dx          dy          dz
      4.273057  4.273057 16.392299     0.382476    0.343686   -0.004337  
      4.273056  4.273056 17.569604     0.656997    0.551278   -0.004584  
      0.000000  6.409585  7.500000            0           0           0  
      2.136528  0.000000  7.500000            0           0           0  
      0.000000  0.000000  9.636528            0           0           0  
      2.136528  6.409585  9.636528            0           0           0  
      8.545206  6.409194 11.782197            0           0           0  
      2.136918  0.000907 11.782192            0           0           0  
      0.000000  0.000000 13.905966            0           0           0  
      2.132793  6.413335 13.900426            0           0           0  
      0.000000  2.136528  7.500000            0           0           0  
      2.136528  4.273057  7.500000            0           0           0  
      0.000000  4.273057  9.636528            0           0           0  
      2.136528  2.136528  9.636528            0           0           0  
      0.000907  2.136919 11.782197            0           0           0  
      2.140537  4.273217 11.785662            0           0           0  
      0.000000  4.273057 13.905204            0           0           0  
      2.135382  2.135368 13.906853            0           0           0  
      4.273057  6.409585  7.500000            0           0           0  
      6.409585  0.000000  7.500000            0           0           0  
      4.273057  0.000000  9.636528            0           0           0  
      6.409585  6.409585  9.636528            0           0           0  
      4.272896  6.405581 11.785666            0           0           0  
      6.409195  8.545206 11.782192            0           0           0  
      4.273057  0.000000 13.905183            0           0           0  
      6.410731  6.410746 13.906852            0           0           0  
      4.273057  2.136528  7.500000            0           0           0  
      6.409585  4.273057  7.500000            0           0           0  
      4.273057  4.273057  9.636528            0           0           0  
      6.409585  2.136528  9.636528            0           0           0  
      4.273217  2.140533 11.785665            0           0           0  
      6.405576  4.272896 11.785663            0           0           0  
      4.273057  4.273057 13.951433            0           0           0  
      6.413321  2.132778 13.900426            0           0           0  
      0.000000  6.409585  9.636528            0           0           0  
      2.136528  0.000000  9.636528            0           0           0  
      0.000000  0.000000  7.500000            0           0           0  
      2.136528  6.409585  7.500000            0           0           0  
      8.545337  6.411429 13.946425            0           0           0  
      2.134678  0.000777 13.946420            0           0           0  
      8.546114  8.546114 11.776592            0           0           0  
      2.135739  6.410367 11.777019            0           0           0  
      0.000000  2.136528  9.636528            0           0           0  
      2.136528  4.273057  9.636528            0           0           0  
      0.000000  4.273057  7.500000            0           0           0  
      2.136528  2.136528  7.500000            0           0           0  
      0.000777  2.134684 13.946425            0           0           0  
      2.128721  4.275731 13.944525            0           0           0  
      0.000000  4.273057 11.776952            0           0           0  
      2.136810  2.136817 11.778694            0           0           0  
      4.273057  6.409585  9.636528            0           0           0  
      6.409585  0.000000  9.636528            0           0           0  
      4.273057  0.000000  7.500000            0           0           0  
      6.409585  6.409585  7.500000            0           0           0  
      4.270383  6.417410 13.944471            0           0           0  
      6.411436  8.545337 13.946420            0           0           0  
      4.273057  0.000000 11.776932            0           0           0  
      6.409304  6.409296 11.778694            0           0           0  
      4.273057  2.136528  9.636528            0           0           0  
      6.409585  4.273057  9.636528            0           0           0  
      4.273057  4.273057  7.500000            0           0           0  
      6.409585  2.136528  7.500000            0           0           0  
      4.275731  2.128704 13.944472            0           0           0  
      6.417393  4.270383 13.944525            0           0           0  
      4.273057  4.273057 11.785479            0           0           0  
      6.410375  2.135747 11.777019            0           0           0  

   5 f/i=    1.170189 THz     7.352514 2PiTHz   39.033301 cm-1     4.839510 meV
             X         Y         Z           dx          dy          dz
      4.273057  4.273057 16.392299     0.204085   -0.266835    0.001764  
      4.273056  4.273056 17.569604     0.617545   -0.711182    0.001884  
      0.000000  6.409585  7.500000            0           0           0  
      2.136528  0.000000  7.500000            0           0           0  
      0.000000  0.000000  9.636528            0           0           0  
      2.136528  6.409585  9.636528            0           0           0  
      8.545206  6.409194 11.782197            0           0           0  
      2.136918  0.000907 11.782192            0           0           0  
      0.000000  0.000000 13.905966            0           0           0  
      2.132793  6.413335 13.900426            0           0           0  
      0.000000  2.136528  7.500000            0           0           0  
      2.136528  4.273057  7.500000            0           0           0  
      0.000000  4.273057  9.636528            0           0           0  
      2.136528  2.136528  9.636528            0           0           0  
      0.000907  2.136919 11.782197            0           0           0  
      2.140537  4.273217 11.785662            0           0           0  
      0.000000  4.273057 13.905204            0           0           0  
      2.135382  2.135368 13.906853            0           0           0  
      4.273057  6.409585  7.500000            0           0           0  
      6.409585  0.000000  7.500000            0           0           0  
      4.273057  0.000000  9.636528            0           0           0  
      6.409585  6.409585  9.636528            0           0           0  
      4.272896  6.405581 11.785666            0           0           0  
      6.409195  8.545206 11.782192            0           0           0  
      4.273057  0.000000 13.905183            0           0           0  
      6.410731  6.410746 13.906852            0           0           0  
      4.273057  2.136528  7.500000            0           0           0  
      6.409585  4.273057  7.500000            0           0           0  
      4.273057  4.273057  9.636528            0           0           0  
      6.409585  2.136528  9.636528            0           0           0  
      4.273217  2.140533 11.785665            0           0           0  
      6.405576  4.272896 11.785663            0           0           0  
      4.273057  4.273057 13.951433            0           0           0  
      6.413321  2.132778 13.900426            0           0           0  
      0.000000  6.409585  9.636528            0           0           0  
      2.136528  0.000000  9.636528            0           0           0  
      0.000000  0.000000  7.500000            0           0           0  
      2.136528  6.409585  7.500000            0           0           0  
      8.545337  6.411429 13.946425            0           0           0  
      2.134678  0.000777 13.946420            0           0           0  
      8.546114  8.546114 11.776592            0           0           0  
      2.135739  6.410367 11.777019            0           0           0  
      0.000000  2.136528  9.636528            0           0           0  
      2.136528  4.273057  9.636528            0           0           0  
      0.000000  4.273057  7.500000            0           0           0  
      2.136528  2.136528  7.500000            0           0           0  
      0.000777  2.134684 13.946425            0           0           0  
      2.128721  4.275731 13.944525            0           0           0  
      0.000000  4.273057 11.776952            0           0           0  
      2.136810  2.136817 11.778694            0           0           0  
      4.273057  6.409585  9.636528            0           0           0  
      6.409585  0.000000  9.636528            0           0           0  
      4.273057  0.000000  7.500000            0           0           0  
      6.409585  6.409585  7.500000            0           0           0  
      4.270383  6.417410 13.944471            0           0           0  
      6.411436  8.545337 13.946420            0           0           0  
      4.273057  0.000000 11.776932            0           0           0  
      6.409304  6.409296 11.778694            0           0           0  
      4.273057  2.136528  9.636528            0           0           0  
      6.409585  4.273057  9.636528            0           0           0  
      4.273057  4.273057  7.500000            0           0           0  
      6.409585  2.136528  7.500000            0           0           0  
      4.275731  2.128704 13.944472            0           0           0  
      6.417393  4.270383 13.944525            0           0           0  
      4.273057  4.273057 11.785479            0           0           0  
      6.410375  2.135747 11.777019            0           0           0  

   6 f/i=    3.844690 THz    24.156901 2PiTHz  128.245062 cm-1    15.900354 meV
             X         Y         Z           dx          dy          dz
      4.273057  4.273057 16.392299     0.606469    0.605435   -0.000879  
      4.273056  4.273056 17.569604    -0.361683   -0.367189   -0.000949  
      0.000000  6.409585  7.500000            0           0           0  
      2.136528  0.000000  7.500000            0           0           0  
      0.000000  0.000000  9.636528            0           0           0  
      2.136528  6.409585  9.636528            0           0           0  
      8.545206  6.409194 11.782197            0           0           0  
      2.136918  0.000907 11.782192            0           0           0  
      0.000000  0.000000 13.905966            0           0           0  
      2.132793  6.413335 13.900426            0           0           0  
      0.000000  2.136528  7.500000            0           0           0  
      2.136528  4.273057  7.500000            0           0           0  
      0.000000  4.273057  9.636528            0           0           0  
      2.136528  2.136528  9.636528            0           0           0  
      0.000907  2.136919 11.782197            0           0           0  
      2.140537  4.273217 11.785662            0           0           0  
      0.000000  4.273057 13.905204            0           0           0  
      2.135382  2.135368 13.906853            0           0           0  
      4.273057  6.409585  7.500000            0           0           0  
      6.409585  0.000000  7.500000            0           0           0  
      4.273057  0.000000  9.636528            0           0           0  
      6.409585  6.409585  9.636528            0           0           0  
      4.272896  6.405581 11.785666            0           0           0  
      6.409195  8.545206 11.782192            0           0           0  
      4.273057  0.000000 13.905183            0           0           0  
      6.410731  6.410746 13.906852            0           0           0  
      4.273057  2.136528  7.500000            0           0           0  
      6.409585  4.273057  7.500000            0           0           0  
      4.273057  4.273057  9.636528            0           0           0  
      6.409585  2.136528  9.636528            0           0           0  
      4.273217  2.140533 11.785665            0           0           0  
      6.405576  4.272896 11.785663            0           0           0  
      4.273057  4.273057 13.951433            0           0           0  
      6.413321  2.132778 13.900426            0           0           0  
      0.000000  6.409585  9.636528            0           0           0  
      2.136528  0.000000  9.636528            0           0           0  
      0.000000  0.000000  7.500000            0           0           0  
      2.136528  6.409585  7.500000            0           0           0  
      8.545337  6.411429 13.946425            0           0           0  
      2.134678  0.000777 13.946420            0           0           0  
      8.546114  8.546114 11.776592            0           0           0  
      2.135739  6.410367 11.777019            0           0           0  
      0.000000  2.136528  9.636528            0           0           0  
      2.136528  4.273057  9.636528            0           0           0  
      0.000000  4.273057  7.500000            0           0           0  
      2.136528  2.136528  7.500000            0           0           0  
      0.000777  2.134684 13.946425            0           0           0  
      2.128721  4.275731 13.944525            0           0           0  
      0.000000  4.273057 11.776952            0           0           0  
      2.136810  2.136817 11.778694            0           0           0  
      4.273057  6.409585  9.636528            0           0           0  
      6.409585  0.000000  9.636528            0           0           0  
      4.273057  0.000000  7.500000            0           0           0  
      6.409585  6.409585  7.500000            0           0           0  
      4.270383  6.417410 13.944471            0           0           0  
      6.411436  8.545337 13.946420            0           0           0  
      4.273057  0.000000 11.776932            0           0           0  
      6.409304  6.409296 11.778694            0           0           0  
      4.273057  2.136528  9.636528            0           0           0  
      6.409585  4.273057  9.636528            0           0           0  
      4.273057  4.273057  7.500000            0           0           0  
      6.409585  2.136528  7.500000            0           0           0  
      4.275731  2.128704 13.944472            0           0           0  
      6.417393  4.270383 13.944525            0           0           0  
      4.273057  4.273057 11.785479            0           0           0  
      6.410375  2.135747 11.777019            0           0           0  

 Finite differences POTIM=   1.0000000000000000E-002
     LOOP+:  cpu time    178.7541: real time    178.9282
    4ORBIT:  cpu time      0.0000: real time      0.0000

 total amount of memory used by VASP MPI-rank0    79854. kBytes
=======================================================================

   base      :      30000. kBytes
   nonl-proj :      17930. kBytes
   fftplans  :       4926. kBytes
   grid      :      13952. kBytes
   one-center:        146. kBytes
   wavefun   :      12900. kBytes

  
  
 General timing and accounting informations for this job:
 ========================================================
  
                  Total CPU time used (sec):     4513.535
                            User time (sec):     4504.520
                          System time (sec):        9.015
                         Elapsed time (sec):     4528.502
  
                   Maximum memory used (kb):      296392.
                   Average memory used (kb):          N/A
  
                          Minor page faults:       523965
                          Major page faults:           49
                 Voluntary context switches:        26768
