 vasp.6.3.0 20Jan22 (build Apr  1 2022 16:44:48) gamma-only                      
 executed on        HPECrayEX_GCC date 2023.03.12  01:18:42
 running  768 mpi-ranks, with    1 threads/rank
 distrk:  each k-point on  768 cores,    1 groups
 distr:  one band on NCORE=   8 cores,   96 groups


--------------------------------------------------------------------------------------------------------


 INCAR:
   SYSTEM = MgO-rocksalt
   ISMEAR = 0
   SIGMA = 0.05
   EDIFF = 1E-6
   ALGO = ALL
   ISTART = 0
   IBRION = -1
   NSW = 0
   ISYM = 0
   DIPOL = 0.5 0.5 0.5
   IDIPOL = 3
   LDIPOL = .TRUE.
   LHFCALC = .TRUE.
   GGA = B5
   AEXX = 0.2
   AGGAX = 0.72
   AGGAC = 0.81
   ALDAC = 0.19
   IVDW = 1
   VDW_S6 = 1.05
   VDW_C6 = 1.75 0.70 0.14 0.63 0.70
   VDW_R0 = 1.452 1.342 1.001 1.243 1.342
   ENCUT = 520
   PREC = Accurate
   LASPH = .TRUE.
   LREAL = Auto
   ISPIN = 1
   NELM = 200
   NELMIN = 8
   NCORE = 8
   KPAR = 1
   LWAVE = .FALSE.
   LCHARG = .FALSE.

 POTCAR:    PAW_PBE C 08Apr2002                   
 POTCAR:    PAW_PBE O 08Apr2002                   
 POTCAR:    PAW_PBE H 15Jun2001                   
 POTCAR:    PAW_PBE Mg_pv 13Apr2007               
 POTCAR:    PAW_PBE O 08Apr2002                   
 POTCAR:    PAW_PBE C 08Apr2002                   
   SHA256 =  253f7b50bb8d59471dbedb8285d89021f4a42ed1a2c5d38a03a736e69125dd95 C/POTCAR              
   COPYR  = (c) Copyright 08Apr2002 Georg Kresse                                                    
   COPYR  = This file is part of the software VASP. Any use, copying, and all other rights are regul
   COPYR  = If you do not have a valid VASP license, you may not use, copy or distribute this file. 
   VRHFIN =C: s2p2                                                                                  
   LEXCH  = PE                                                                                      
   EATOM  =   147.1560 eV,   10.8157 Ry                                                             
                                                                                                    
   TITEL  = PAW_PBE C 08Apr2002                                                                     
   LULTRA =        F    use ultrasoft PP ?                                                          
   IUNSCR =        1    unscreen: 0-lin 1-nonlin 2-no                                               
   RPACOR =    1.200    partial core radius                                                         
   POMASS =   12.011; ZVAL   =    4.000    mass and valenz                                          
   RCORE  =    1.500    outmost cutoff radius                                                       
   RWIGS  =    1.630; RWIGS  =    0.863    wigner-seitz radius (au A)                               
   ENMAX  =  400.000; ENMIN  =  300.000 eV                                                          
   ICORE  =        2    local potential                                                             
   LCOR   =        T    correct aug charges                                                         
   LPAW   =        T    paw PP                                                                      
   EAUG   =  644.873                                                                                
   DEXC   =    0.000                                                                                
   RMAX   =    1.529    core radius for proj-oper                                                   
   RAUG   =    1.300    factor for augmentation sphere                                              
   RDEP   =    1.501    radius for radial grids                                                     
   RDEPT  =    1.300    core radius for aug-charge                                                  
                                                                                                    
   Atomic configuration                                                                             
    4 entries                                                                                       
     n  l   j            E        occ.                                                              
     1  0  0.50      -273.3789   2.0000                                                             
     2  0  0.50       -13.7508   2.0000                                                             
     2  1  0.50        -5.2854   2.0000                                                             
     3  2  1.50        -5.4423   0.0000                                                             
   Description                                                                                      
     l       E           TYP  RCUT    TYP  RCUT                                                     
     0    -13.7508458     23  1.200                                                                 
     0     -8.2022199     23  1.200                                                                 
     1     -5.2854383     23  1.500                                                                 
     1     34.0145650     23  1.500                                                                 
     2     -5.4423304      7  1.500                                                                 
  local pseudopotential read in
  partial core-charges read in
  partial kinetic energy density read in
  atomic valenz-charges read in
  non local Contribution for L=           0  read in
    real space projection operators read in
  non local Contribution for L=           0  read in
    real space projection operators read in
  non local Contribution for L=           1  read in
    real space projection operators read in
  non local Contribution for L=           1  read in
    real space projection operators read in
    PAW grid and wavefunctions read in

   number of l-projection  operators is LMAX  =           4
   number of lm-projection operators is LMMAX =           8

 POTCAR:    PAW_PBE O 08Apr2002                   
   SHA256 =  818f92134a0a090dccd8ba1447fa70422a3b330e708bb4f08108d8ae51209ddf O/POTCAR              
   COPYR  = (c) Copyright 08Apr2002 Georg Kresse                                                    
   COPYR  = This file is part of the software VASP. Any use, copying, and all other rights are regul
   COPYR  = If you do not have a valid VASP license, you may not use, copy or distribute this file. 
   VRHFIN =O: s2p4                                                                                  
   LEXCH  = PE                                                                                      
   EATOM  =   432.3788 eV,   31.7789 Ry                                                             
                                                                                                    
   TITEL  = PAW_PBE O 08Apr2002                                                                     
   LULTRA =        F    use ultrasoft PP ?                                                          
   IUNSCR =        1    unscreen: 0-lin 1-nonlin 2-no                                               
   RPACOR =    1.200    partial core radius                                                         
   POMASS =   16.000; ZVAL   =    6.000    mass and valenz                                          
   RCORE  =    1.520    outmost cutoff radius                                                       
   RWIGS  =    1.550; RWIGS  =    0.820    wigner-seitz radius (au A)                               
   ENMAX  =  400.000; ENMIN  =  300.000 eV                                                          
   ICORE  =        2    local potential                                                             
   LCOR   =        T    correct aug charges                                                         
   LPAW   =        T    paw PP                                                                      
   EAUG   =  605.392                                                                                
   DEXC   =    0.000                                                                                
   RMAX   =    1.553    core radius for proj-oper                                                   
   RAUG   =    1.300    factor for augmentation sphere                                              
   RDEP   =    1.550    radius for radial grids                                                     
   RDEPT  =    1.329    core radius for aug-charge                                                  
                                                                                                    
   Atomic configuration                                                                             
    4 entries                                                                                       
     n  l   j            E        occ.                                                              
     1  0  0.50      -514.6923   2.0000                                                             
     2  0  0.50       -23.9615   2.0000                                                             
     2  1  0.50        -9.0305   4.0000                                                             
     3  2  1.50        -9.5241   0.0000                                                             
   Description                                                                                      
     l       E           TYP  RCUT    TYP  RCUT                                                     
     0    -23.9615318     23  1.200                                                                 
     0     -9.5240782     23  1.200                                                                 
     1     -9.0304911     23  1.520                                                                 
     1      8.1634956     23  1.520                                                                 
     2     -9.5240782      7  1.500                                                                 
  local pseudopotential read in
  partial core-charges read in
  partial kinetic energy density read in
  kinetic energy density of atom read in
  atomic valenz-charges read in
  non local Contribution for L=           0  read in
    real space projection operators read in
  non local Contribution for L=           0  read in
    real space projection operators read in
  non local Contribution for L=           1  read in
    real space projection operators read in
  non local Contribution for L=           1  read in
    real space projection operators read in
    PAW grid and wavefunctions read in

   number of l-projection  operators is LMAX  =           4
   number of lm-projection operators is LMMAX =           8

 POTCAR:    PAW_PBE H 15Jun2001                   
   SHA256 =  030f79b5d3ab3cf0e668861823c8fb652ff669f3e15e46930bd03bfd63a607b6 H/POTCAR              
   COPYR  = (c) Copyright 15Jun2001 Georg Kresse                                                    
   COPYR  = This file is part of the software VASP. Any use, copying, and all other rights are regul
   COPYR  = If you do not have a valid VASP license, you may not use, copy or distribute this file. 
   VRHFIN =H: ultrasoft test                                                                        
   LEXCH  = PE                                                                                      
   EATOM  =    12.4884 eV,    0.9179 Ry                                                             
                                                                                                    
   TITEL  = PAW_PBE H 15Jun2001                                                                     
   LULTRA =        F    use ultrasoft PP ?                                                          
   IUNSCR =        0    unscreen: 0-lin 1-nonlin 2-no                                               
   RPACOR =    0.000    partial core radius                                                         
   POMASS =    1.000; ZVAL   =    1.000    mass and valenz                                          
   RCORE  =    1.100    outmost cutoff radius                                                       
   RWIGS  =    0.700; RWIGS  =    0.370    wigner-seitz radius (au A)                               
   ENMAX  =  250.000; ENMIN  =  200.000 eV                                                          
   RCLOC  =    0.701    cutoff for local pot                                                        
   LCOR   =        T    correct aug charges                                                         
   LPAW   =        T    paw PP                                                                      
   EAUG   =  400.000                                                                                
   RMAX   =    1.123    core radius for proj-oper                                                   
   RAUG   =    1.200    factor for augmentation sphere                                              
   RDEP   =    1.112    radius for radial grids                                                     
   RDEPT  =    0.926    core radius for aug-charge                                                  
                                                                                                    
   Atomic configuration                                                                             
    2 entries                                                                                       
     n  l   j            E        occ.                                                              
     1  0  0.50        -6.4927   1.0000                                                             
     2  1  0.50        -3.4015   0.0000                                                             
   Description                                                                                      
     l       E           TYP  RCUT    TYP  RCUT                                                     
     0     -6.4927494     23  1.100                                                                 
     0      6.8029130     23  1.100                                                                 
     1     -4.0817478     23  1.100                                                                 
  local pseudopotential read in
  atomic valenz-charges read in
  non local Contribution for L=           0  read in
    real space projection operators read in
  non local Contribution for L=           0  read in
    real space projection operators read in
  non local Contribution for L=           1  read in
    real space projection operators read in
    PAW grid and wavefunctions read in

   number of l-projection  operators is LMAX  =           3
   number of lm-projection operators is LMMAX =           5

 POTCAR:    PAW_PBE Mg_pv 13Apr2007               
   SHA256 =  f474ac0dd33840b9ae76c01d57fea79fdf77cdfbb07d5ade72c65f83c709b62b Mg_pv/POTCAR          
   COPYR  = (c) Copyright 13Apr2007 Georg Kresse                                                    
   COPYR  = This file is part of the software VASP. Any use, copying, and all other rights are regul
   COPYR  = If you do not have a valid VASP license, you may not use, copy or distribute this file. 
   VRHFIN =Mg: p6s2                                                                                 
   LEXCH  = PE                                                                                      
   EATOM  =  1056.7344 eV,   77.6678 Ry                                                             
                                                                                                    
   TITEL  = PAW_PBE Mg_pv 13Apr2007                                                                 
   LULTRA =        F    use ultrasoft PP ?                                                          
   IUNSCR =        1    unscreen: 0-lin 1-nonlin 2-no                                               
   RPACOR =    1.500    partial core radius                                                         
   POMASS =   24.305; ZVAL   =    8.000    mass and valenz                                          
   RCORE  =    2.000    outmost cutoff radius                                                       
   RWIGS  =    2.000; RWIGS  =    1.058    wigner-seitz radius (au A)                               
   ENMAX  =  403.929; ENMIN  =  302.947 eV                                                          
   RCLOC  =    1.506    cutoff for local pot                                                        
   LCOR   =        T    correct aug charges                                                         
   LPAW   =        T    paw PP                                                                      
   EAUG   =  758.780                                                                                
   DEXC   =    0.000                                                                                
   RMAX   =    2.045    core radius for proj-oper                                                   
   RAUG   =    1.300    factor for augmentation sphere                                              
   RDEP   =    2.025    radius for radial grids                                                     
   RDEPT  =    1.557    core radius for aug-charge                                                  
                                                                                                    
   Atomic configuration                                                                             
    5 entries                                                                                       
     n  l   j            E        occ.                                                              
     1  0  0.50     -1259.6230   2.0000                                                             
     2  0  0.50       -79.8442   2.0000                                                             
     2  1  1.50       -46.6121   6.0000                                                             
     3  0  0.50        -4.7055   2.0000                                                             
     3  2  1.50        -1.3606   0.0000                                                             
   Description                                                                                      
     l       E           TYP  RCUT    TYP  RCUT                                                     
     1    -46.6121073     23  1.600                                                                 
     1      2.7211652     23  1.600                                                                 
     0     -4.7054661     23  2.000                                                                 
     0     61.2262170     23  2.000                                                                 
     2     -1.3605826     23  2.000                                                                 
  local pseudopotential read in
  partial core-charges read in
  partial kinetic energy density read in
  atomic valenz-charges read in
  non local Contribution for L=           1  read in
    real space projection operators read in
  non local Contribution for L=           1  read in
    real space projection operators read in
  non local Contribution for L=           0  read in
    real space projection operators read in
  non local Contribution for L=           0  read in
    real space projection operators read in
  non local Contribution for L=           2  read in
    real space projection operators read in
    PAW grid and wavefunctions read in

   number of l-projection  operators is LMAX  =           5
   number of lm-projection operators is LMMAX =          13

 POTCAR:    PAW_PBE O 08Apr2002                   
   SHA256 =  818f92134a0a090dccd8ba1447fa70422a3b330e708bb4f08108d8ae51209ddf O/POTCAR              
   COPYR  = (c) Copyright 08Apr2002 Georg Kresse                                                    
   COPYR  = This file is part of the software VASP. Any use, copying, and all other rights are regul
   COPYR  = If you do not have a valid VASP license, you may not use, copy or distribute this file. 
   VRHFIN =O: s2p4                                                                                  
   LEXCH  = PE                                                                                      
   EATOM  =   432.3788 eV,   31.7789 Ry                                                             
                                                                                                    
   TITEL  = PAW_PBE O 08Apr2002                                                                     
   LULTRA =        F    use ultrasoft PP ?                                                          
   IUNSCR =        1    unscreen: 0-lin 1-nonlin 2-no                                               
   RPACOR =    1.200    partial core radius                                                         
   POMASS =   16.000; ZVAL   =    6.000    mass and valenz                                          
   RCORE  =    1.520    outmost cutoff radius                                                       
   RWIGS  =    1.550; RWIGS  =    0.820    wigner-seitz radius (au A)                               
   ENMAX  =  400.000; ENMIN  =  300.000 eV                                                          
   ICORE  =        2    local potential                                                             
   LCOR   =        T    correct aug charges                                                         
   LPAW   =        T    paw PP                                                                      
   EAUG   =  605.392                                                                                
   DEXC   =    0.000                                                                                
   RMAX   =    1.553    core radius for proj-oper                                                   
   RAUG   =    1.300    factor for augmentation sphere                                              
   RDEP   =    1.550    radius for radial grids                                                     
   RDEPT  =    1.329    core radius for aug-charge                                                  
                                                                                                    
   Atomic configuration                                                                             
    4 entries                                                                                       
     n  l   j            E        occ.                                                              
     1  0  0.50      -514.6923   2.0000                                                             
     2  0  0.50       -23.9615   2.0000                                                             
     2  1  0.50        -9.0305   4.0000                                                             
     3  2  1.50        -9.5241   0.0000                                                             
   Description                                                                                      
     l       E           TYP  RCUT    TYP  RCUT                                                     
     0    -23.9615318     23  1.200                                                                 
     0     -9.5240782     23  1.200                                                                 
     1     -9.0304911     23  1.520                                                                 
     1      8.1634956     23  1.520                                                                 
     2     -9.5240782      7  1.500                                                                 
  local pseudopotential read in
  partial core-charges read in
  partial kinetic energy density read in
  kinetic energy density of atom read in
  atomic valenz-charges read in
  non local Contribution for L=           0  read in
    real space projection operators read in
  non local Contribution for L=           0  read in
    real space projection operators read in
  non local Contribution for L=           1  read in
    real space projection operators read in
  non local Contribution for L=           1  read in
    real space projection operators read in
    PAW grid and wavefunctions read in

   number of l-projection  operators is LMAX  =           4
   number of lm-projection operators is LMMAX =           8

 Optimization of the real space projectors (new method)

 maximal supplied QI-value         = 25.13
 optimisation between [QCUT,QGAM] = [ 11.56, 23.12] = [ 37.43,149.72] Ry 
 Optimized for a Real-space Cutoff    1.04 Angstroem

   l    n(q)    QCUT    max X(q) W(low)/X(q) W(high)/X(q)  e(spline) 
   0      7    11.561   115.676    0.20E-03    0.60E-03    0.21E-06
   0      7    11.561    87.132    0.20E-03    0.59E-03    0.21E-06
   1      7    11.561     4.429    0.23E-03    0.35E-03    0.15E-06
   1      7    11.561     2.733    0.18E-03    0.25E-03    0.12E-06
 Optimization of the real space projectors (new method)

 maximal supplied QI-value         = 24.76
 optimisation between [QCUT,QGAM] = [ 11.64, 23.27] = [ 37.91,151.63] Ry 
 Optimized for a Real-space Cutoff    1.14 Angstroem

   l    n(q)    QCUT    max X(q) W(low)/X(q) W(high)/X(q)  e(spline) 
   0      8    11.635    20.381    0.10E-03    0.33E-03    0.24E-06
   0      8    11.635    15.268    0.11E-03    0.35E-03    0.26E-06
   1      7    11.635     5.964    0.24E-03    0.31E-03    0.30E-06
   1      7    11.635     5.382    0.22E-03    0.25E-03    0.26E-06
 Optimization of the real space projectors (new method)

 maximal supplied QI-value         = 34.20
 optimisation between [QCUT,QGAM] = [ 11.63, 23.26] = [ 37.87,151.49] Ry 
 Optimized for a Real-space Cutoff    1.21 Angstroem

   l    n(q)    QCUT    max X(q) W(low)/X(q) W(high)/X(q)  e(spline) 
   0      8    11.629    19.460    0.17E-03    0.34E-03    0.21E-06
   0      8    11.629    12.209    0.16E-03    0.33E-03    0.21E-06
   1      8    11.629     4.655    0.18E-03    0.16E-03    0.26E-06
 Optimization of the real space projectors (new method)

 maximal supplied QI-value         = 18.90
 optimisation between [QCUT,QGAM] = [ 11.53, 23.24] = [ 37.21,151.29] Ry 
 Optimized for a Real-space Cutoff    1.28 Angstroem

   l    n(q)    QCUT    max X(q) W(low)/X(q) W(high)/X(q)  e(spline) 
   1      8    11.527     2.974    0.44E-04    0.56E-04    0.12E-06
   1      8    11.527     4.279    0.12E-03    0.12E-03    0.26E-06
   0      9    11.527    16.381    0.46E-04    0.64E-04    0.78E-07
   0      9    11.527     5.611    0.26E-04    0.43E-04    0.55E-07
   2      8    11.527     4.652    0.22E-03    0.72E-04    0.47E-07
 Optimization of the real space projectors (new method)

 maximal supplied QI-value         = 24.76
 optimisation between [QCUT,QGAM] = [ 11.64, 23.27] = [ 37.91,151.63] Ry 
 Optimized for a Real-space Cutoff    1.14 Angstroem

   l    n(q)    QCUT    max X(q) W(low)/X(q) W(high)/X(q)  e(spline) 
   0      8    11.635    20.381    0.10E-03    0.33E-03    0.24E-06
   0      8    11.635    15.268    0.11E-03    0.35E-03    0.26E-06
   1      7    11.635     5.964    0.24E-03    0.31E-03    0.30E-06
   1      7    11.635     5.382    0.22E-03    0.25E-03    0.26E-06
 -----------------------------------------------------------------------------
|                                                                             |
|               ----> ADVICE to this user running VASP <----                  |
|                                                                             |
|     You enforced a specific xc type in the INCAR file but a different       |
|     type was found in the POTCAR file.                                      |
|     I HOPE YOU KNOW WHAT YOU ARE DOING!                                     |
|                                                                             |
 -----------------------------------------------------------------------------

  PAW_PBE C 08Apr2002                   :
 energy of atom  1       EATOM= -147.1560
 kinetic energy error for atom=    0.0071 (will be added to EATOM!!)
  PAW_PBE O 08Apr2002                   :
 energy of atom  2       EATOM= -432.3788
 kinetic energy error for atom=    0.0208 (will be added to EATOM!!)
  PAW_PBE H 15Jun2001                   :
 energy of atom  3       EATOM=  -12.4884
 kinetic energy error for atom=    0.0014 (will be added to EATOM!!)
  PAW_PBE Mg_pv 13Apr2007               :
 energy of atom  4       EATOM=-1056.7344
 kinetic energy error for atom=    0.0340 (will be added to EATOM!!)
  PAW_PBE O 08Apr2002                   :
 energy of atom  5       EATOM= -432.3788
 kinetic energy error for atom=    0.0208 (will be added to EATOM!!)


 POSCAR:  C  O  H Mg  O
  positions in direct lattice
  No initial velocities read in
 exchange correlation table for  LEXCH =       12
   RHO(1)=    0.500       N(1)  =     2000
   RHO(2)=  100.500       N(2)  =     4000



--------------------------------------------------------------------------------------------------------


 ion  position               nearest neighbor table
   1  0.526  0.555  0.795-  12 1.10   9 1.10  11 1.10   5 1.44
   2  0.321  0.400  0.796-  16 1.10  15 1.10  13 1.10   6 1.44
   3  0.474  0.195  0.796-  20 1.10  19 1.10  17 1.10   7 1.44
   4  0.679  0.348  0.795-  24 1.10  23 1.10  21 1.10   8 1.44
   5  0.508  0.488  0.756-  10 1.00   1 1.44 144 2.25
   6  0.388  0.383  0.756-  14 1.00   2 1.44  55 2.25
   7  0.492  0.262  0.756-  18 1.00   3 1.44 120 2.25
   8  0.613  0.367  0.756-  22 1.00   4 1.44 103 2.25
   9  0.519  0.539  0.845-   1 1.10
  10  0.553  0.448  0.759-   5 1.00
  11  0.587  0.575  0.787-   1 1.10
  12  0.485  0.602  0.783-   1 1.10
  13  0.337  0.393  0.845-   2 1.10
  14  0.427  0.427  0.759-   6 1.00
  15  0.300  0.461  0.787-   2 1.10
  16  0.273  0.359  0.783-   2 1.10
  17  0.482  0.211  0.845-   3 1.10
  18  0.448  0.301  0.758-   7 1.00
  19  0.413  0.175  0.787-   3 1.10
  20  0.515  0.147  0.783-   3 1.10
  21  0.664  0.355  0.845-   4 1.10
  22  0.573  0.322  0.758-   8 1.00
  23  0.699  0.286  0.787-   4 1.10
  24  0.728  0.388  0.782-   4 1.10
  25  0.125  0.000  0.352- 153 2.11 155 2.11 156 2.11 172 2.11 195 2.11
  26  0.250  0.125  0.352- 154 2.11 155 2.11 156 2.11 164 2.11 171 2.11
  27  0.125  0.125  0.451- 159 2.11 155 2.11 153 2.11 154 2.11 161 2.11 170 2.11
  28  0.250  0.000  0.451- 160 2.11 156 2.11 153 2.11 154 2.11 169 2.11 194 2.11
  29  0.125  1.000  0.550- 160 2.11 159 2.11 199 2.11 176 2.11 153 2.11 157 2.14
  30  0.250  0.125  0.549- 168 2.11 175 2.11 154 2.11 159 2.11 160 2.11 158 2.14
  31  0.125  0.125  0.648- 159 2.10 158 2.10 174 2.11 165 2.11 157 2.11
  32  0.250  1.000  0.648- 160 2.10 158 2.10 198 2.11 173 2.11 157 2.11
  33  0.125  0.250  0.352- 161 2.11 155 2.11 163 2.11 164 2.11 180 2.11
  34  0.250  0.375  0.352- 162 2.11 163 2.11 164 2.11 179 2.11 188 2.11
  35  0.125  0.375  0.451- 167 2.11 163 2.11 161 2.11 162 2.11 178 2.11 185 2.11
  36  0.250  0.250  0.451- 168 2.11 164 2.11 162 2.11 154 2.11 161 2.11 177 2.11
  37  0.125  0.250  0.550- 168 2.10 184 2.11 167 2.11 161 2.11 159 2.11 165 2.14
  38  0.250  0.375  0.550- 183 2.10 168 2.11 192 2.11 162 2.12 167 2.12 166 2.14
  39  0.125  0.375  0.647- 166 2.09 167 2.09 182 2.11 189 2.11 165 2.12
  40  0.250  0.250  0.647- 168 2.08 181 2.09 165 2.11 158 2.12 166 2.12
  41  0.375  0.000  0.352- 169 2.11 156 2.11 171 2.11 211 2.11 236 2.11
  42  0.000  0.125  0.352- 170 2.11 155 2.11 172 2.11 180 2.11 235 2.11
  43  0.375  0.125  0.451- 175 2.11 171 2.11 154 2.11 169 2.11 177 2.11 234 2.11
  44  0.000  0.000  0.451- 172 2.11 170 2.11 153 2.11 210 2.11 233 2.11 176 2.11
  45  0.375  1.000  0.550- 175 2.10 215 2.11 240 2.11 169 2.11 160 2.11 173 2.14
  46  0.000  0.125  0.550- 159 2.11 239 2.11 176 2.11 184 2.11 170 2.11 174 2.14
  47  0.375  0.125  0.647- 175 2.08 181 2.09 173 2.11 158 2.11 238 2.12
  48  0.000  1.000  0.648- 176 2.10 157 2.11 237 2.11 214 2.11 174 2.11
  49  0.375  0.250  0.352- 177 2.11 171 2.11 164 2.11 179 2.11 244 2.11
  50  0.000  0.375  0.352- 178 2.11 163 2.11 180 2.11 204 2.11 243 2.11
  51  0.375  0.375  0.451- 179 2.11 177 2.11 162 2.11 201 2.11 242 2.11 183 2.12
  52  0.000  0.250  0.451- 180 2.11 170 2.11 178 2.11 161 2.11 241 2.11 184 2.11
  53  0.375  0.251  0.550- 248 2.10 183 2.10 181 2.12 168 2.13 175 2.13 177 2.13
  54  1.000  0.375  0.550- 247 2.11 167 2.11 208 2.11 184 2.11 178 2.11 182 2.14
  55  0.374  0.375  0.651- 246 2.12 166 2.12 181 2.13 205 2.14 183 2.16   6 2.25
  56  0.000  0.250  0.648- 184 2.10 165 2.11 245 2.11 174 2.11 182 2.11
  57  0.125  0.500  0.352- 185 2.11 163 2.11 187 2.11 188 2.11 204 2.11
  58  0.250  0.625  0.352- 186 2.11 187 2.11 188 2.11 196 2.11 203 2.11
  59  0.125  0.625  0.451- 191 2.11 187 2.11 185 2.11 186 2.11 193 2.11 202 2.11
  60  0.250  0.500  0.451- 192 2.11 188 2.11 186 2.11 162 2.11 185 2.11 201 2.11
  61  0.125  0.500  0.550- 192 2.10 208 2.11 167 2.11 191 2.11 185 2.11 189 2.14
  62  0.250  0.625  0.549- 207 2.11 192 2.11 186 2.11 200 2.11 191 2.11 190 2.14
  63  0.125  0.625  0.648- 191 2.10 190 2.10 206 2.11 189 2.11 197 2.11
  64  0.250  0.500  0.647- 192 2.08 205 2.09 189 2.11 190 2.11 166 2.12
  65  0.125  0.750  0.352- 193 2.11 187 2.11 195 2.11 196 2.11 212 2.11
  66  0.250  0.875  0.352- 194 2.11 156 2.11 195 2.11 196 2.11 211 2.11
  67  0.125  0.875  0.451- 199 2.11 195 2.11 194 2.11 153 2.11 193 2.11 210 2.11
  68  0.250  0.750  0.451- 200 2.11 196 2.11 194 2.11 186 2.11 193 2.11 209 2.11
  69  0.125  0.750  0.550- 200 2.11 191 2.11 216 2.11 199 2.11 193 2.11 197 2.14
  70  0.250  0.875  0.550- 200 2.11 160 2.11 215 2.11 199 2.11 194 2.11 198 2.14
  71  0.125  0.875  0.648- 199 2.10 197 2.11 157 2.11 214 2.11 198 2.11
  72  0.250  0.750  0.648- 200 2.10 190 2.10 198 2.11 213 2.11 197 2.11
  73  0.375  0.500  0.352- 201 2.11 188 2.11 179 2.11 203 2.11 268 2.11
  74  0.000  0.625  0.352- 202 2.11 187 2.11 204 2.11 212 2.11 267 2.11
  75  0.375  0.625  0.451- 207 2.11 203 2.11 186 2.11 201 2.11 209 2.11 266 2.11
  76  0.000  0.500  0.451- 204 2.11 185 2.11 202 2.11 178 2.11 265 2.11 208 2.11
  77  0.376  0.500  0.550- 272 2.10 183 2.10 205 2.12 207 2.13 192 2.13 201 2.13
  78  1.000  0.625  0.550- 271 2.11 191 2.11 208 2.11 216 2.11 202 2.11 206 2.14
  79  0.375  0.625  0.647- 207 2.09 205 2.09 213 2.11 190 2.12 270 2.12
  80  1.000  0.500  0.648- 208 2.09 269 2.11 189 2.11 206 2.11 182 2.11
  81  0.375  0.750  0.352- 209 2.11 203 2.11 196 2.11 211 2.11 276 2.11
  82  0.000  0.875  0.352- 210 2.11 195 2.11 172 2.11 212 2.11 275 2.11
  83  0.375  0.875  0.451- 211 2.11 194 2.11 209 2.11 169 2.11 274 2.11 215 2.11
  84  0.000  0.750  0.451- 216 2.11 212 2.11 210 2.11 193 2.11 202 2.11 273 2.11
  85  0.375  0.750  0.550- 207 2.10 215 2.11 280 2.11 209 2.11 200 2.11 213 2.14
  86  1.000  0.875  0.550- 199 2.11 279 2.11 176 2.11 216 2.11 210 2.11 214 2.14
  87  0.375  0.875  0.648- 215 2.10 213 2.11 173 2.11 198 2.11 278 2.11
  88  1.000  0.750  0.648- 216 2.10 197 2.11 277 2.11 214 2.11 206 2.11
  89  0.625  0.000  0.352- 217 2.11 219 2.11 220 2.11 236 2.11 259 2.11
  90  0.750  0.125  0.352- 218 2.11 219 2.11 220 2.11 228 2.11 235 2.11
  91  0.625  0.125  0.451- 223 2.11 219 2.11 217 2.11 218 2.11 225 2.11 234 2.11
  92  0.750  0.000  0.451- 224 2.11 220 2.11 217 2.11 218 2.11 233 2.11 258 2.11
  93  0.625  1.000  0.550- 223 2.10 263 2.11 240 2.11 217 2.11 224 2.11 221 2.14
  94  0.750  0.125  0.549- 223 2.11 232 2.11 218 2.11 224 2.11 239 2.11 222 2.14
  95  0.625  0.125  0.647- 229 2.08 223 2.09 221 2.11 222 2.12 238 2.12
  96  0.750  1.000  0.648- 224 2.10 222 2.10 262 2.11 221 2.11 237 2.11
  97  0.625  0.250  0.352- 225 2.11 219 2.11 227 2.11 228 2.11 244 2.11
  98  0.750  0.375  0.352- 226 2.11 227 2.11 228 2.11 243 2.11 252 2.11
  99  0.625  0.375  0.451- 227 2.11 226 2.11 225 2.11 242 2.11 249 2.11 231 2.12
 100  0.750  0.250  0.451- 232 2.11 228 2.11 226 2.11 218 2.11 225 2.11 241 2.11
 101  0.624  0.250  0.550- 231 2.10 248 2.10 229 2.12 223 2.13 232 2.13 225 2.13
 102  0.750  0.375  0.550- 231 2.10 256 2.11 232 2.11 226 2.12 247 2.12 230 2.14
 103  0.626  0.375  0.651- 246 2.12 230 2.12 253 2.13 229 2.14 231 2.16   8 2.25
 104  0.750  0.250  0.647- 232 2.08 229 2.09 245 2.11 222 2.11 230 2.12
 105  0.875  0.000  0.352- 233 2.11 220 2.11 172 2.11 235 2.11 275 2.11
 106  0.500  0.125  0.352- 234 2.11 219 2.11 171 2.11 236 2.11 244 2.11
 107  0.875  0.125  0.451- 239 2.11 235 2.11 233 2.11 170 2.11 218 2.11 241 2.11
 108  0.500  0.000  0.451- 240 2.11 236 2.11 234 2.11 169 2.11 217 2.11 274 2.11
 109  0.875  1.000  0.550- 239 2.11 224 2.11 279 2.11 176 2.11 233 2.11 237 2.14
 110  0.500  0.125  0.550- 248 2.10 223 2.11 175 2.11 234 2.12 240 2.12 238 2.14
 111  0.875  0.125  0.648- 239 2.10 222 2.10 174 2.11 245 2.11 237 2.11
 112  0.500  1.000  0.647- 238 2.09 240 2.09 278 2.11 173 2.11 221 2.12
 113  0.875  0.250  0.352- 241 2.11 228 2.11 235 2.11 180 2.11 243 2.11
 114  0.500  0.375  0.352- 242 2.11 227 2.11 179 2.11 244 2.11 268 2.11
 115  0.875  0.375  0.451- 247 2.11 243 2.11 241 2.11 178 2.11 226 2.11 265 2.11
 116  0.500  0.250  0.451- 244 2.11 225 2.11 234 2.11 242 2.11 177 2.11 248 2.12
 117  0.875  0.250  0.550- 232 2.10 184 2.11 247 2.11 241 2.11 239 2.11 245 2.14
 118  0.500  0.375  0.551- 246 2.09 272 2.12 231 2.12 183 2.12 248 2.12 242 2.15
 119  0.875  0.375  0.647- 230 2.09 247 2.09 182 2.11 245 2.11 269 2.12
 120  0.500  0.249  0.651- 246 2.12 238 2.12 229 2.13 181 2.14 248 2.16   7 2.25
 121  0.625  0.500  0.352- 249 2.11 227 2.11 251 2.11 252 2.11 268 2.11
 122  0.750  0.625  0.352- 250 2.11 251 2.11 252 2.11 260 2.11 267 2.11
 123  0.625  0.625  0.451- 255 2.11 251 2.11 249 2.11 250 2.11 257 2.11 266 2.11
 124  0.750  0.500  0.451- 256 2.11 252 2.11 250 2.11 226 2.11 249 2.11 265 2.11
 125  0.625  0.499  0.550- 272 2.10 231 2.10 253 2.12 256 2.13 255 2.13 249 2.13
 126  0.750  0.625  0.549- 256 2.11 255 2.11 250 2.11 271 2.11 264 2.11 254 2.14
 127  0.625  0.625  0.647- 255 2.08 253 2.09 261 2.11 254 2.11 270 2.12
 128  0.750  0.500  0.647- 253 2.09 256 2.09 269 2.11 254 2.12 230 2.12
 129  0.625  0.750  0.352- 257 2.11 251 2.11 259 2.11 260 2.11 276 2.11
 130  0.750  0.875  0.352- 258 2.11 220 2.11 259 2.11 260 2.11 275 2.11
 131  0.625  0.875  0.451- 263 2.11 259 2.11 258 2.11 217 2.11 257 2.11 274 2.11
 132  0.750  0.750  0.451- 264 2.11 260 2.11 258 2.11 250 2.11 257 2.11 273 2.11
 133  0.625  0.750  0.550- 255 2.10 263 2.11 280 2.11 257 2.11 264 2.11 261 2.14
 134  0.750  0.875  0.550- 224 2.11 264 2.11 263 2.11 279 2.11 258 2.11 262 2.14
 135  0.625  0.875  0.648- 263 2.10 221 2.11 261 2.11 262 2.11 278 2.11
 136  0.750  0.750  0.648- 264 2.10 254 2.10 262 2.11 261 2.11 277 2.11
 137  0.875  0.500  0.352- 265 2.11 243 2.11 252 2.11 204 2.11 267 2.11
 138  0.500  0.625  0.352- 266 2.11 251 2.11 203 2.11 268 2.11 276 2.11
 139  0.875  0.625  0.451- 271 2.11 267 2.11 265 2.11 202 2.11 250 2.11 273 2.11
 140  0.500  0.500  0.451- 268 2.11 242 2.11 249 2.11 266 2.11 201 2.11 272 2.12
 141  0.875  0.500  0.550- 256 2.10 208 2.11 247 2.11 265 2.11 271 2.11 269 2.14
 142  0.500  0.625  0.550- 272 2.10 207 2.11 255 2.11 266 2.12 280 2.12 270 2.14
 143  0.875  0.625  0.648- 271 2.10 254 2.10 206 2.11 269 2.11 277 2.11
 144  0.500  0.501  0.651- 246 2.12 270 2.12 205 2.13 253 2.14 272 2.16   5 2.25
 145  0.875  0.750  0.352- 273 2.11 260 2.11 267 2.11 212 2.11 275 2.11
 146  0.500  0.875  0.352- 274 2.11 236 2.11 259 2.11 211 2.11 276 2.11
 147  0.875  0.875  0.451- 279 2.11 275 2.11 258 2.11 273 2.11 210 2.11 233 2.11
 148  0.500  0.750  0.451- 280 2.11 276 2.11 266 2.11 274 2.11 209 2.11 257 2.11
 149  0.875  0.750  0.550- 264 2.11 271 2.11 216 2.11 279 2.11 273 2.11 277 2.14
 150  0.500  0.875  0.550- 240 2.11 280 2.11 263 2.11 215 2.11 274 2.11 278 2.14
 151  0.875  0.875  0.648- 279 2.10 277 2.11 237 2.11 214 2.11 262 2.11
 152  0.500  0.750  0.647- 270 2.09 280 2.09 278 2.11 261 2.11 213 2.12
 153  0.125  0.000  0.451-  25 2.11  27 2.11  28 2.11  44 2.11  67 2.11  29 2.11
 154  0.250  0.125  0.451-  26 2.11  27 2.11  28 2.11  36 2.11  43 2.11  30 2.11
 155  0.125  0.125  0.352-  27 2.11  26 2.11  25 2.11  33 2.11  42 2.11
 156  0.250  0.000  0.352-  28 2.11  26 2.11  25 2.11  41 2.11  66 2.11
 157  0.125  1.000  0.650-  71 2.11  48 2.11  32 2.11  31 2.11  29 2.14
 158  0.249  0.124  0.650-  32 2.10  31 2.10  47 2.11  40 2.12  30 2.14
 159  0.125  0.125  0.549-  31 2.10  46 2.11  29 2.11  27 2.11  30 2.11  37 2.11
 160  0.250  1.000  0.549-  32 2.10  70 2.11  29 2.11  28 2.11  45 2.11  30 2.11
 161  0.125  0.250  0.451-  33 2.11  27 2.11  35 2.11  36 2.11  52 2.11  37 2.11
 162  0.250  0.375  0.451-  34 2.11  35 2.11  36 2.11  51 2.11  60 2.11  38 2.12
 163  0.125  0.375  0.352-  35 2.11  34 2.11  33 2.11  50 2.11  57 2.11
 164  0.250  0.250  0.352-  36 2.11  33 2.11  34 2.11  26 2.11  49 2.11
 165  0.125  0.250  0.650-  56 2.11  31 2.11  40 2.11  39 2.12  37 2.14
 166  0.249  0.375  0.650-  39 2.09  64 2.12  40 2.12  55 2.12  38 2.14
 167  0.125  0.375  0.549-  39 2.09  54 2.11  35 2.11  61 2.11  37 2.11  38 2.12
 168  0.250  0.250  0.549-  40 2.08  37 2.10  36 2.11  30 2.11  38 2.11  53 2.13
 169  0.375  0.000  0.451-  41 2.11  28 2.11  43 2.11  83 2.11 108 2.11  45 2.11
 170  0.000  0.125  0.451-  42 2.11  27 2.11  44 2.11  52 2.11 107 2.11  46 2.11
 171  0.375  0.125  0.352-  43 2.11  41 2.11  26 2.11  49 2.11 106 2.11
 172  0.000  0.000  0.352-  44 2.11  42 2.11  25 2.11  82 2.11 105 2.11
 173  0.375  1.000  0.650-  87 2.11  32 2.11  47 2.11 112 2.11  45 2.14
 174  0.000  0.125  0.650-  31 2.11 111 2.11  48 2.11  56 2.11  46 2.14
 175  0.375  0.125  0.549-  47 2.08  45 2.10  43 2.11  30 2.11 110 2.11  53 2.13
 176  0.000  1.000  0.549-  48 2.10  86 2.11 109 2.11  29 2.11  46 2.11  44 2.11
 177  0.375  0.250  0.451-  49 2.11  43 2.11  36 2.11  51 2.11 116 2.11  53 2.13
 178  0.000  0.375  0.451-  50 2.11  35 2.11  52 2.11  76 2.11 115 2.11  54 2.11
 179  0.375  0.375  0.352-  51 2.11  49 2.11  34 2.11  73 2.11 114 2.11
 180  0.000  0.250  0.352-  52 2.11  42 2.11  50 2.11  33 2.11 113 2.11
 181  0.373  0.249  0.650-  40 2.09  47 2.09  53 2.12  55 2.13 120 2.14
 182  0.000  0.375  0.650- 119 2.11  39 2.11  56 2.11  80 2.11  54 2.14
 183  0.375  0.375  0.550-  38 2.10  77 2.10  53 2.10 118 2.12  51 2.12  55 2.16
 184  0.000  0.250  0.549-  56 2.10  37 2.11 117 2.11  52 2.11  46 2.11  54 2.11
 185  0.125  0.500  0.451-  57 2.11  35 2.11  59 2.11  60 2.11  76 2.11  61 2.11
 186  0.250  0.625  0.451-  58 2.11  59 2.11  60 2.11  68 2.11  75 2.11  62 2.11
 187  0.125  0.625  0.352-  59 2.11  58 2.11  57 2.11  65 2.11  74 2.11
 188  0.250  0.500  0.352-  60 2.11  57 2.11  58 2.11  34 2.11  73 2.11
 189  0.125  0.500  0.650-  80 2.11  63 2.11  64 2.11  39 2.11  61 2.14
 190  0.249  0.626  0.650-  63 2.10  72 2.10  64 2.11  79 2.12  62 2.14
 191  0.125  0.625  0.549-  63 2.10  78 2.11  59 2.11  69 2.11  61 2.11  62 2.11
 192  0.250  0.500  0.549-  64 2.08  61 2.10  60 2.11  62 2.11  38 2.11  77 2.13
 193  0.125  0.750  0.451-  65 2.11  59 2.11  67 2.11  68 2.11  84 2.11  69 2.11
 194  0.250  0.875  0.451-  66 2.11  28 2.11  67 2.11  68 2.11  83 2.11  70 2.11
 195  0.125  0.875  0.352-  67 2.11  65 2.11  66 2.11  25 2.11  82 2.11
 196  0.250  0.750  0.352-  68 2.11  65 2.11  66 2.11  58 2.11  81 2.11
 197  0.125  0.750  0.650-  71 2.11  88 2.11  63 2.11  72 2.11  69 2.14
 198  0.250  0.875  0.650-  32 2.11  72 2.11  71 2.11  87 2.11  70 2.14
 199  0.125  0.875  0.549-  71 2.10  86 2.11  29 2.11  69 2.11  67 2.11  70 2.11
 200  0.250  0.750  0.549-  72 2.10  70 2.11  69 2.11  68 2.11  62 2.11  85 2.11
 201  0.375  0.500  0.451-  73 2.11  60 2.11  51 2.11  75 2.11 140 2.11  77 2.13
 202  0.000  0.625  0.451-  74 2.11  59 2.11  76 2.11  84 2.11 139 2.11  78 2.11
 203  0.375  0.625  0.352-  75 2.11  73 2.11  58 2.11  81 2.11 138 2.11
 204  0.000  0.500  0.352-  76 2.11  57 2.11  74 2.11  50 2.11 137 2.11
 205  0.374  0.502  0.650-  79 2.09  64 2.09  77 2.12 144 2.13  55 2.14
 206  1.000  0.625  0.650-  63 2.11 143 2.11  88 2.11  80 2.11  78 2.14
 207  0.375  0.625  0.549-  79 2.09  85 2.10  75 2.11  62 2.11 142 2.11  77 2.13
 208  1.000  0.500  0.550-  80 2.09  61 2.11 141 2.11  78 2.11  54 2.11  76 2.11
 209  0.375  0.750  0.451-  81 2.11  75 2.11  68 2.11  83 2.11 148 2.11  85 2.11
 210  0.000  0.875  0.451-  82 2.11  67 2.11  44 2.11  84 2.11 147 2.11  86 2.11
 211  0.375  0.875  0.352-  83 2.11  66 2.11  81 2.11  41 2.11 146 2.11
 212  0.000  0.750  0.352-  84 2.11  74 2.11  82 2.11  65 2.11 145 2.11
 213  0.375  0.750  0.650-  87 2.11  72 2.11  79 2.11 152 2.12  85 2.14
 214  1.000  0.875  0.650-  88 2.11 151 2.11  71 2.11  48 2.11  86 2.14
 215  0.375  0.875  0.549-  87 2.10  45 2.11  85 2.11  70 2.11  83 2.11 150 2.11
 216  0.000  0.750  0.549-  88 2.10  86 2.11 149 2.11  69 2.11  84 2.11  78 2.11
 217  0.625  0.000  0.451-  89 2.11  91 2.11  92 2.11 108 2.11 131 2.11  93 2.11
 218  0.750  0.125  0.451-  90 2.11  91 2.11  92 2.11 100 2.11 107 2.11  94 2.11
 219  0.625  0.125  0.352-  91 2.11  90 2.11  89 2.11  97 2.11 106 2.11
 220  0.750  0.000  0.352-  92 2.11  90 2.11  89 2.11 105 2.11 130 2.11
 221  0.625  1.000  0.650- 135 2.11  96 2.11  95 2.11 112 2.12  93 2.14
 222  0.751  0.124  0.650- 111 2.10  96 2.10 104 2.11  95 2.12  94 2.14
 223  0.625  0.125  0.549-  95 2.09  93 2.10  91 2.11  94 2.11 110 2.11 101 2.13
 224  0.750  1.000  0.549-  96 2.10 134 2.11 109 2.11  92 2.11  94 2.11  93 2.11
 225  0.625  0.250  0.451-  97 2.11  91 2.11  99 2.11 100 2.11 116 2.11 101 2.13
 226  0.750  0.375  0.451-  98 2.11  99 2.11 100 2.11 115 2.11 124 2.11 102 2.12
 227  0.625  0.375  0.352-  99 2.11  98 2.11  97 2.11 114 2.11 121 2.11
 228  0.750  0.250  0.352- 100 2.11  97 2.11  98 2.11  90 2.11 113 2.11
 229  0.626  0.248  0.650-  95 2.08 104 2.09 101 2.12 120 2.13 103 2.14
 230  0.751  0.375  0.650- 119 2.09 128 2.12 104 2.12 103 2.12 102 2.14
 231  0.625  0.375  0.550- 102 2.10 125 2.10 101 2.10 118 2.12  99 2.12 103 2.16
 232  0.750  0.250  0.549- 104 2.08 117 2.10 100 2.11  94 2.11 102 2.11 101 2.13
 233  0.875  0.000  0.451- 105 2.11  92 2.11  44 2.11 107 2.11 147 2.11 109 2.11
 234  0.500  0.125  0.451- 106 2.11  91 2.11  43 2.11 108 2.11 116 2.11 110 2.12
 235  0.875  0.125  0.352- 107 2.11  90 2.11 105 2.11  42 2.11 113 2.11
 236  0.500  0.000  0.352- 108 2.11  89 2.11 106 2.11  41 2.11 146 2.11
 237  0.875  1.000  0.650- 151 2.11  48 2.11  96 2.11 111 2.11 109 2.14
 238  0.500  0.124  0.650- 112 2.09  95 2.12  47 2.12 120 2.12 110 2.14
 239  0.875  0.125  0.549- 111 2.10  46 2.11 107 2.11 109 2.11 117 2.11  94 2.11
 240  0.500  1.000  0.549- 112 2.09 150 2.11 108 2.11  45 2.11  93 2.11 110 2.12
 241  0.875  0.250  0.451- 113 2.11 100 2.11 107 2.11  52 2.11 115 2.11 117 2.11
 242  0.500  0.375  0.451- 114 2.11  99 2.11  51 2.11 116 2.11 140 2.11 118 2.15
 243  0.875  0.375  0.352- 115 2.11  98 2.11 113 2.11  50 2.11 137 2.11
 244  0.500  0.250  0.352- 116 2.11  97 2.11 106 2.11 114 2.11  49 2.11
 245  0.875  0.250  0.650-  56 2.11 111 2.11 104 2.11 119 2.11 117 2.14
 246  0.500  0.375  0.649- 118 2.09  55 2.12 103 2.12 120 2.12 144 2.12
 247  0.875  0.375  0.549- 119 2.09  54 2.11 115 2.11 117 2.11 141 2.11 102 2.12
 248  0.500  0.250  0.550- 110 2.10  53 2.10 101 2.10 118 2.12 116 2.12 120 2.16
 249  0.625  0.500  0.451- 121 2.11  99 2.11 123 2.11 124 2.11 140 2.11 125 2.13
 250  0.750  0.625  0.451- 122 2.11 123 2.11 124 2.11 132 2.11 139 2.11 126 2.11
 251  0.625  0.625  0.352- 123 2.11 122 2.11 121 2.11 129 2.11 138 2.11
 252  0.750  0.500  0.352- 124 2.11 121 2.11 122 2.11  98 2.11 137 2.11
 253  0.627  0.501  0.650- 128 2.09 127 2.09 125 2.12 103 2.13 144 2.14
 254  0.751  0.626  0.650- 136 2.10 143 2.10 127 2.11 128 2.12 126 2.14
 255  0.625  0.625  0.549- 127 2.08 133 2.10 123 2.11 126 2.11 142 2.11 125 2.13
 256  0.750  0.500  0.549- 128 2.09 141 2.10 124 2.11 126 2.11 102 2.11 125 2.13
 257  0.625  0.750  0.451- 129 2.11 123 2.11 131 2.11 132 2.11 148 2.11 133 2.11
 258  0.750  0.875  0.451- 130 2.11  92 2.11 131 2.11 132 2.11 147 2.11 134 2.11
 259  0.625  0.875  0.352- 131 2.11 129 2.11 130 2.11  89 2.11 146 2.11
 260  0.750  0.750  0.352- 132 2.11 129 2.11 130 2.11 122 2.11 145 2.11
 261  0.625  0.750  0.650- 135 2.11 136 2.11 127 2.11 152 2.11 133 2.14
 262  0.750  0.875  0.650-  96 2.11 136 2.11 151 2.11 135 2.11 134 2.14
 263  0.625  0.875  0.549- 135 2.10  93 2.11 133 2.11 131 2.11 134 2.11 150 2.11
 264  0.750  0.750  0.549- 136 2.10 134 2.11 149 2.11 132 2.11 133 2.11 126 2.11
 265  0.875  0.500  0.451- 137 2.11 115 2.11 124 2.11  76 2.11 139 2.11 141 2.11
 266  0.500  0.625  0.451- 138 2.11 123 2.11  75 2.11 140 2.11 148 2.11 142 2.12
 267  0.875  0.625  0.352- 139 2.11 122 2.11 137 2.11  74 2.11 145 2.11
 268  0.500  0.500  0.352- 140 2.11 114 2.11 121 2.11 138 2.11  73 2.11
 269  0.875  0.500  0.650-  80 2.11 143 2.11 128 2.11 119 2.12 141 2.14
 270  0.500  0.626  0.650- 152 2.09  79 2.12 127 2.12 144 2.12 142 2.14
 271  0.875  0.625  0.549- 143 2.10  78 2.11 149 2.11 139 2.11 126 2.11 141 2.11
 272  0.500  0.500  0.550- 142 2.10 125 2.10  77 2.10 118 2.12 140 2.12 144 2.16
 273  0.875  0.750  0.451- 145 2.11 132 2.11 139 2.11  84 2.11 147 2.11 149 2.11
 274  0.500  0.875  0.451- 146 2.11 108 2.11 131 2.11  83 2.11 148 2.11 150 2.11
 275  0.875  0.875  0.352- 147 2.11 105 2.11 130 2.11 145 2.11  82 2.11
 276  0.500  0.750  0.352- 148 2.11 129 2.11 138 2.11 146 2.11  81 2.11
 277  0.875  0.750  0.650-  88 2.11 151 2.11 143 2.11 136 2.11 149 2.14
 278  0.500  0.875  0.650- 152 2.11 112 2.11  87 2.11 135 2.11 150 2.14
 279  0.875  0.875  0.549- 151 2.10  86 2.11 109 2.11 149 2.11 147 2.11 134 2.11
 280  0.500  0.750  0.549- 152 2.09 150 2.11 148 2.11 133 2.11  85 2.11 142 2.12


IMPORTANT INFORMATION: All symmetrisations will be switched off!
NOSYMM: (Re-)initialisation of all symmetry stuff for point group C_1.


----------------------------------------------------------------------------------------

                                     Primitive cell                                     

  volume of cell :    6078.6138

  direct lattice vectors                    reciprocal lattice vectors
    16.881164524  0.000000000  0.000000000     0.059237619  0.000000000  0.000000000
     0.000000000 16.881164524  0.000000000     0.000000000  0.059237619  0.000000000
     0.000000000  0.000000000 21.330436697     0.000000000  0.000000000  0.046881366

  length of vectors
    16.881164524 16.881164524 21.330436697     0.059237619  0.059237619  0.046881366

  position of ions in fractional coordinates (direct lattice)
     0.526251138  0.554619132  0.795476403
     0.320791485  0.400044856  0.795632972
     0.474379516  0.195306248  0.795513868
     0.679489584  0.347747743  0.795205347
     0.508115329  0.487561152  0.756178187
     0.387574255  0.382588434  0.755873838
     0.492144125  0.262082545  0.755834157
     0.612646061  0.366701967  0.755919315
     0.519185076  0.539265451  0.845381925
     0.552524269  0.448128242  0.758678933
     0.587399819  0.574710773  0.786830118
     0.485413431  0.602478876  0.782641696
     0.336756975  0.392856759  0.845423445
     0.426939889  0.427040256  0.758554543
     0.300162361  0.461091651  0.787328629
     0.273102312  0.358905802  0.783029892
     0.481645595  0.211153193  0.845303395
     0.447693318  0.301496628  0.758296378
     0.413238551  0.174989365  0.787182694
     0.515306168  0.147439184  0.782845590
     0.664159631  0.354873597  0.845116281
     0.572943036  0.322484934  0.758249543
     0.698836889  0.286366208  0.786508830
     0.727838024  0.388034317  0.782450633
     0.125000000  0.000000000  0.351610242
     0.250000000  0.125000000  0.351610242
     0.125000000  0.125000000  0.450536747
     0.250000000  0.000000000  0.450536747
     0.124954114  0.999961650  0.549628944
     0.249964636  0.124995033  0.549476373
     0.124888681  0.124817387  0.647664354
     0.249801619  0.999873187  0.647643646
     0.125000000  0.250000000  0.351610242
     0.250000000  0.375000000  0.351610242
     0.125000000  0.375000000  0.450536747
     0.250000000  0.250000000  0.450536747
     0.124967646  0.250025796  0.549554666
     0.250422572  0.374999272  0.549908455
     0.124881650  0.375038822  0.647482090
     0.249779941  0.249700610  0.646998511
     0.375000000  0.000000000  0.351610242
     0.000000000  0.125000000  0.351610242
     0.375000000  0.125000000  0.450536747
     0.000000000  0.000000000  0.450536747
     0.375007962  0.999943521  0.549549712
     0.000006756  0.124945643  0.549628123
     0.374657861  0.124756128  0.646889352
     0.000006010  0.999893578  0.647765300
     0.375000000  0.250000000  0.351610242
     0.000000000  0.375000000  0.351610242
     0.375000000  0.375000000  0.450536747
     0.000000000  0.250000000  0.450536747
     0.375463739  0.250537102  0.550324055
     0.999998349  0.375017225  0.549620281
     0.374460025  0.374997158  0.651229499
     0.000006825  0.249873186  0.647702184
     0.125000000  0.500000000  0.351610242
     0.250000000  0.625000000  0.351610242
     0.125000000  0.625000000  0.450536747
     0.250000000  0.500000000  0.450536747
     0.124950874  0.500000193  0.549551718
     0.249996862  0.625042476  0.549489986
     0.124875565  0.625207948  0.647662781
     0.249802034  0.500358631  0.646912125
     0.125000000  0.750000000  0.351610242
     0.250000000  0.875000000  0.351610242
     0.125000000  0.875000000  0.450536747
     0.250000000  0.750000000  0.450536747
     0.124956187  0.750050176  0.549636126
     0.249944749  0.875000871  0.549628822
     0.124885899  0.875000465  0.647758183
     0.249811906  0.750131872  0.647660692
     0.375000000  0.500000000  0.351610242
     0.000000000  0.625000000  0.351610242
     0.375000000  0.625000000  0.450536747
     0.000000000  0.500000000  0.450536747
     0.375563449  0.499534615  0.550350730
     0.999997031  0.625043944  0.549631840
     0.374724071  0.625241520  0.647028207
     0.999995720  0.500145342  0.647730888
     0.375000000  0.750000000  0.351610242
     0.000000000  0.875000000  0.351610242
     0.375000000  0.875000000  0.450536747
     0.000000000  0.750000000  0.450536747
     0.375020096  0.750035647  0.549558720
     0.999999332  0.875009063  0.549663849
     0.374863873  0.874994604  0.647719065
     0.999997575  0.750113933  0.647746098
     0.625000000  0.000000000  0.351610242
     0.750000000  0.125000000  0.351610242
     0.625000000  0.125000000  0.450536747
     0.750000000  0.000000000  0.450536747
     0.624972420  0.999955140  0.549549379
     0.750007744  0.124957444  0.549472226
     0.625294363  0.124729719  0.646990531
     0.750191411  0.999875918  0.647653173
     0.625000000  0.250000000  0.351610242
     0.750000000  0.375000000  0.351610242
     0.625000000  0.375000000  0.450536747
     0.750000000  0.250000000  0.450536747
     0.624457511  0.250450978  0.550318330
     0.749578567  0.375008910  0.549911479
     0.625562059  0.374939258  0.651251731
     0.750221290  0.249638807  0.646873573
     0.875000000  0.000000000  0.351610242
     0.500000000  0.125000000  0.351610242
     0.875000000  0.125000000  0.450536747
     0.500000000  0.000000000  0.450536747
     0.875048732  0.999961495  0.549630819
     0.500006404  0.125403385  0.549896924
     0.875121140  0.124801652  0.647655474
     0.499968103  0.999846835  0.647479948
     0.875000000  0.250000000  0.351610242
     0.500000000  0.375000000  0.351610242
     0.875000000  0.375000000  0.450536747
     0.500000000  0.250000000  0.450536747
     0.875050610  0.250011431  0.549546306
     0.500007184  0.374989321  0.551379229
     0.875131669  0.374978834  0.647470238
     0.500001304  0.249357987  0.651180904
     0.625000000  0.500000000  0.351610242
     0.750000000  0.625000000  0.351610242
     0.625000000  0.625000000  0.450536747
     0.750000000  0.500000000  0.450536747
     0.624526847  0.499428743  0.550352542
     0.750029855  0.625007349  0.549489522
     0.625336490  0.625226173  0.646904846
     0.750220867  0.500288990  0.647027353
     0.625000000  0.750000000  0.351610242
     0.750000000  0.875000000  0.351610242
     0.625000000  0.875000000  0.450536747
     0.750000000  0.750000000  0.450536747
     0.624998197  0.750048358  0.549550636
     0.750054037  0.875009282  0.549625516
     0.625132183  0.875007048  0.647712576
     0.750192252  0.750143501  0.647643843
     0.875000000  0.500000000  0.351610242
     0.500000000  0.625000000  0.351610242
     0.875000000  0.625000000  0.450536747
     0.500000000  0.500000000  0.450536747
     0.875039705  0.499986097  0.549560350
     0.499990659  0.624558058  0.549920795
     0.875116654  0.625207574  0.647676339
     0.500041125  0.500531156  0.651310780
     0.875000000  0.750000000  0.351610242
     0.500000000  0.875000000  0.351610242
     0.875000000  0.875000000  0.450536747
     0.500000000  0.750000000  0.450536747
     0.875044976  0.750053096  0.549636117
     0.499997771  0.875008774  0.549614782
     0.875115262  0.875006126  0.647760078
     0.500029515  0.750148967  0.647455104
     0.125000000  0.000000000  0.450536747
     0.250000000  0.125000000  0.450536747
     0.125000000  0.125000000  0.351610242
     0.250000000  0.000000000  0.351610242
     0.124836655  0.999819824  0.649839912
     0.249466466  0.124434780  0.649822444
     0.124860051  0.124893290  0.549409850
     0.249880130  0.999865306  0.549409215
     0.125000000  0.250000000  0.450536747
     0.250000000  0.375000000  0.450536747
     0.125000000  0.375000000  0.351610242
     0.250000000  0.250000000  0.351610242
     0.124778096  0.249775580  0.649951534
     0.248713095  0.375037089  0.650054862
     0.124768219  0.375021328  0.549381331
     0.249581756  0.249836867  0.549254153
     0.375000000  0.000000000  0.450536747
     0.000000000  0.125000000  0.450536747
     0.375000000  0.125000000  0.351610242
     0.000000000  0.000000000  0.351610242
     0.374734214  0.999763832  0.649944708
     0.000008414  0.124857488  0.649877921
     0.374824230  0.124595161  0.549264934
     0.000000600  0.999935268  0.549496697
     0.375000000  0.250000000  0.450536747
     0.000000000  0.375000000  0.450536747
     0.375000000  0.375000000  0.351610242
     0.000000000  0.250000000  0.351610242
     0.373260141  0.248566253  0.649556295
     0.000001078  0.374989356  0.649984723
     0.374579039  0.375043955  0.550072987
     0.000012209  0.249956873  0.549466090
     0.125000000  0.500000000  0.450536747
     0.250000000  0.625000000  0.450536747
     0.125000000  0.625000000  0.351610242
     0.250000000  0.500000000  0.351610242
     0.124794916  0.500263130  0.649941108
     0.249461422  0.625535801  0.649830124
     0.124859174  0.625111308  0.549410185
     0.249638921  0.500188354  0.549279849
     0.125000000  0.750000000  0.450536747
     0.250000000  0.875000000  0.450536747
     0.125000000  0.875000000  0.351610242
     0.250000000  0.750000000  0.351610242
     0.124810860  0.750188045  0.649827807
     0.249826183  0.875004537  0.649868915
     0.124918818  0.875013556  0.549440659
     0.249884821  0.750146395  0.549419400
     0.375000000  0.500000000  0.450536747
     0.000000000  0.625000000  0.450536747
     0.375000000  0.625000000  0.351610242
     0.000000000  0.500000000  0.351610242
     0.373650255  0.501755848  0.649615059
     0.999996324  0.625186048  0.649877611
     0.374835046  0.625425072  0.549267126
     0.999997885  0.500057219  0.549519032
     0.375000000  0.750000000  0.450536747
     0.000000000  0.875000000  0.450536747
     0.375000000  0.875000000  0.351610242
     0.000000000  0.750000000  0.351610242
     0.374775971  0.750234370  0.649960972
     0.999999311  0.874980309  0.649876308
     0.374938469  0.875004465  0.549463617
     0.000000536  0.750074363  0.549461077
     0.625000000  0.000000000  0.450536747
     0.750000000  0.125000000  0.450536747
     0.625000000  0.125000000  0.351610242
     0.750000000  0.000000000  0.351610242
     0.625238460  0.999751670  0.649966361
     0.750555222  0.124449757  0.649823203
     0.625161297  0.124537554  0.549236704
     0.750115036  0.999856026  0.549417840
     0.625000000  0.250000000  0.450536747
     0.750000000  0.375000000  0.450536747
     0.625000000  0.375000000  0.351610242
     0.750000000  0.250000000  0.351610242
     0.626398689  0.248179194  0.649529827
     0.751308062  0.374965374  0.650047061
     0.625431748  0.374940833  0.550066271
     0.750374445  0.249824265  0.549266112
     0.875000000  0.000000000  0.450536747
     0.500000000  0.125000000  0.450536747
     0.875000000  0.125000000  0.351610242
     0.500000000  0.000000000  0.351610242
     0.875169227  0.999822221  0.649844073
     0.499974691  0.123635191  0.650029546
     0.875138540  0.124882842  0.549400202
     0.499983937  0.999779115  0.549433731
     0.875000000  0.250000000  0.450536747
     0.500000000  0.375000000  0.450536747
     0.875000000  0.375000000  0.351610242
     0.500000000  0.250000000  0.351610242
     0.875229899  0.249743442  0.649915791
     0.500009353  0.374939203  0.649398462
     0.875238624  0.374997424  0.549387568
     0.499956573  0.249557596  0.550045315
     0.625000000  0.500000000  0.450536747
     0.750000000  0.625000000  0.450536747
     0.625000000  0.625000000  0.351610242
     0.750000000  0.500000000  0.351610242
     0.626743206  0.501342478  0.649613798
     0.750508855  0.625565034  0.649835693
     0.625168599  0.625366160  0.549281892
     0.750418368  0.500174878  0.549260409
     0.625000000  0.750000000  0.450536747
     0.750000000  0.875000000  0.450536747
     0.625000000  0.875000000  0.351610242
     0.750000000  0.750000000  0.351610242
     0.625250151  0.750229860  0.649912206
     0.750171017  0.875014957  0.649866478
     0.625054905  0.875011509  0.549458510
     0.750115952  0.750144144  0.549410657
     0.875000000  0.500000000  0.450536747
     0.500000000  0.625000000  0.450536747
     0.875000000  0.625000000  0.351610242
     0.500000000  0.500000000  0.351610242
     0.875207737  0.500235249  0.649964626
     0.500031235  0.626369020  0.650077285
     0.875142944  0.625112441  0.549419288
     0.500050586  0.500396133  0.550077088
     0.875000000  0.750000000  0.450536747
     0.500000000  0.875000000  0.450536747
     0.875000000  0.875000000  0.351610242
     0.500000000  0.750000000  0.351610242
     0.875183350  0.750190511  0.649829412
     0.499997552  0.874980815  0.649960139
     0.875077986  0.875016772  0.549439447
     0.500009942  0.750222585  0.549382746

  ion indices of the primitive-cell ions
   primitive index   ion index
                 1           1
                 2           2
                 3           3
                 4           4
                 5           5
                 6           6
                 7           7
                 8           8
                 9           9
                10          10
                11          11
                12          12
                13          13
                14          14
                15          15
                16          16
                17          17
                18          18
                19          19
                20          20
                21          21
                22          22
                23          23
                24          24
                25          25
                26          26
                27          27
                28          28
                29          29
                30          30
                31          31
                32          32
                33          33
                34          34
                35          35
                36          36
                37          37
                38          38
                39          39
                40          40
                41          41
                42          42
                43          43
                44          44
                45          45
                46          46
                47          47
                48          48
                49          49
                50          50
                51          51
                52          52
                53          53
                54          54
                55          55
                56          56
                57          57
                58          58
                59          59
                60          60
                61          61
                62          62
                63          63
                64          64
                65          65
                66          66
                67          67
                68          68
                69          69
                70          70
                71          71
                72          72
                73          73
                74          74
                75          75
                76          76
                77          77
                78          78
                79          79
                80          80
                81          81
                82          82
                83          83
                84          84
                85          85
                86          86
                87          87
                88          88
                89          89
                90          90
                91          91
                92          92
                93          93
                94          94
                95          95
                96          96
                97          97
                98          98
                99          99
               100         100
               101         101
               102         102
               103         103
               104         104
               105         105
               106         106
               107         107
               108         108
               109         109
               110         110
               111         111
               112         112
               113         113
               114         114
               115         115
               116         116
               117         117
               118         118
               119         119
               120         120
               121         121
               122         122
               123         123
               124         124
               125         125
               126         126
               127         127
               128         128
               129         129
               130         130
               131         131
               132         132
               133         133
               134         134
               135         135
               136         136
               137         137
               138         138
               139         139
               140         140
               141         141
               142         142
               143         143
               144         144
               145         145
               146         146
               147         147
               148         148
               149         149
               150         150
               151         151
               152         152
               153         153
               154         154
               155         155
               156         156
               157         157
               158         158
               159         159
               160         160
               161         161
               162         162
               163         163
               164         164
               165         165
               166         166
               167         167
               168         168
               169         169
               170         170
               171         171
               172         172
               173         173
               174         174
               175         175
               176         176
               177         177
               178         178
               179         179
               180         180
               181         181
               182         182
               183         183
               184         184
               185         185
               186         186
               187         187
               188         188
               189         189
               190         190
               191         191
               192         192
               193         193
               194         194
               195         195
               196         196
               197         197
               198         198
               199         199
               200         200
               201         201
               202         202
               203         203
               204         204
               205         205
               206         206
               207         207
               208         208
               209         209
               210         210
               211         211
               212         212
               213         213
               214         214
               215         215
               216         216
               217         217
               218         218
               219         219
               220         220
               221         221
               222         222
               223         223
               224         224
               225         225
               226         226
               227         227
               228         228
               229         229
               230         230
               231         231
               232         232
               233         233
               234         234
               235         235
               236         236
               237         237
               238         238
               239         239
               240         240
               241         241
               242         242
               243         243
               244         244
               245         245
               246         246
               247         247
               248         248
               249         249
               250         250
               251         251
               252         252
               253         253
               254         254
               255         255
               256         256
               257         257
               258         258
               259         259
               260         260
               261         261
               262         262
               263         263
               264         264
               265         265
               266         266
               267         267
               268         268
               269         269
               270         270
               271         271
               272         272
               273         273
               274         274
               275         275
               276         276
               277         277
               278         278
               279         279
               280         280

----------------------------------------------------------------------------------------



 KPOINTS: pymatgen v2020.8.13 with grid density = 

Automatic generation of k-mesh.
 Grid dimensions read from file:
 generate k-points for:    1    1    1

 Generating k-lattice:

  Cartesian coordinates                     Fractional coordinates (reciprocal lattice)
     0.059237619  0.000000000  0.000000000     1.000000000  0.000000000  0.000000000
     0.000000000  0.059237619  0.000000000     0.000000000  1.000000000  0.000000000
     0.000000000  0.000000000  0.046881366     0.000000000  0.000000000  1.000000000

  Length of vectors
     0.059237619  0.059237619  0.046881366

  Shift w.r.t. Gamma in fractional coordinates (k-lattice)
     0.000000000  0.000000000  0.000000000

 
 Subroutine IBZKPT returns following result:
 ===========================================
 
 Found      1 irreducible k-points:
 
 Following reciprocal coordinates:
            Coordinates               Weight
  0.000000  0.000000  0.000000      1.000000
 
 Following cartesian coordinates:
            Coordinates               Weight
  0.000000  0.000000  0.000000      1.000000
 
 
 Subroutine IBZKPT_HF returns following result:
 ==============================================
 
 Found      1 k-points in 1st BZ
 the following      1 k-points will be used (e.g. in the exchange kernel)
 Following reciprocal coordinates:   # in IRBZ
  0.000000  0.000000  0.000000    1.00000000   1 t-inv F


--------------------------------------------------------------------------------------------------------




 Dimension of arrays:
   k-points           NKPTS =      1   k-points in BZ     NKDIM =      1   number of bands    NBANDS=   1152
   number of dos      NEDOS =    301   number of ions     NIONS =    280
   non local maximal  LDIM  =      5   non local SUM 2l+1 LMDIM =     13
   total plane-waves  NPLWV = ******
   max r-space proj   IRMAX =   3760   max aug-charges    IRDMAX=   8434
   dimension x,y,z NGX =   126 NGY =  126 NGZ =  160
   dimension x,y,z NGXF=   252 NGYF=  252 NGZF=  320
   support grid    NGXF=   252 NGYF=  252 NGZF=  320
   ions per type =               4   4  16 128 128
   NGX,Y,Z   is equivalent  to a cutoff of  12.41, 12.41, 12.47 a.u.
   NGXF,Y,Z  is equivalent  to a cutoff of  24.82, 24.82, 24.94 a.u.

 SYSTEM =  MgO-rocksalt                            
 POSCAR =   C  O  H Mg  O                          

--------------------------------------------------------------------------------------------------------


  energy-cutoff  :      520.00
  volume of cell :     6078.61
      direct lattice vectors                 reciprocal lattice vectors
    16.881164524  0.000000000  0.000000000     0.059237619  0.000000000  0.000000000
     0.000000000 16.881164524  0.000000000     0.000000000  0.059237619  0.000000000
     0.000000000  0.000000000 21.330436697     0.000000000  0.000000000  0.046881366

  length of vectors
    16.881164524 16.881164524 21.330436697     0.059237619  0.059237619  0.046881366



 k-points in units of 2pi/SCALE and weight: pymatgen v2020.8.13 with grid density = 
   0.00000000  0.00000000  0.00000000       1.000

 k-points in reciprocal lattice and weights: pymatgen v2020.8.13 with grid density = 
   0.00000000  0.00000000  0.00000000       1.000

 position of ions in fractional coordinates (direct lattice) 
   0.52625114  0.55461913  0.79547640
   0.32079148  0.40004486  0.79563297
   0.47437952  0.19530625  0.79551387
   0.67948958  0.34774774  0.79520535
   0.50811533  0.48756115  0.75617819
   0.38757425  0.38258843  0.75587384
   0.49214412  0.26208255  0.75583416
   0.61264606  0.36670197  0.75591931
   0.51918508  0.53926545  0.84538193
   0.55252427  0.44812824  0.75867893
   0.58739982  0.57471077  0.78683012
   0.48541343  0.60247888  0.78264170
   0.33675698  0.39285676  0.84542345
   0.42693989  0.42704026  0.75855454
   0.30016236  0.46109165  0.78732863
   0.27310231  0.35890580  0.78302989
   0.48164560  0.21115319  0.84530339
   0.44769332  0.30149663  0.75829638
   0.41323855  0.17498936  0.78718269
   0.51530617  0.14743918  0.78284559
   0.66415963  0.35487360  0.84511628
   0.57294304  0.32248493  0.75824954
   0.69883689  0.28636621  0.78650883
   0.72783802  0.38803432  0.78245063
   0.12500000  0.00000000  0.35161024
   0.25000000  0.12500000  0.35161024
   0.12500000  0.12500000  0.45053675
   0.25000000  0.00000000  0.45053675
   0.12495411  0.99996165  0.54962894
   0.24996464  0.12499503  0.54947637
   0.12488868  0.12481739  0.64766435
   0.24980162  0.99987319  0.64764365
   0.12500000  0.25000000  0.35161024
   0.25000000  0.37500000  0.35161024
   0.12500000  0.37500000  0.45053675
   0.25000000  0.25000000  0.45053675
   0.12496765  0.25002580  0.54955467
   0.25042257  0.37499927  0.54990846
   0.12488165  0.37503882  0.64748209
   0.24977994  0.24970061  0.64699851
   0.37500000  0.00000000  0.35161024
   0.00000000  0.12500000  0.35161024
   0.37500000  0.12500000  0.45053675
   0.00000000  0.00000000  0.45053675
   0.37500796  0.99994352  0.54954971
   0.00000676  0.12494564  0.54962812
   0.37465786  0.12475613  0.64688935
   0.00000601  0.99989358  0.64776530
   0.37500000  0.25000000  0.35161024
   0.00000000  0.37500000  0.35161024
   0.37500000  0.37500000  0.45053675
   0.00000000  0.25000000  0.45053675
   0.37546374  0.25053710  0.55032406
   0.99999835  0.37501722  0.54962028
   0.37446003  0.37499716  0.65122950
   0.00000683  0.24987319  0.64770218
   0.12500000  0.50000000  0.35161024
   0.25000000  0.62500000  0.35161024
   0.12500000  0.62500000  0.45053675
   0.25000000  0.50000000  0.45053675
   0.12495087  0.50000019  0.54955172
   0.24999686  0.62504248  0.54948999
   0.12487557  0.62520795  0.64766278
   0.24980203  0.50035863  0.64691213
   0.12500000  0.75000000  0.35161024
   0.25000000  0.87500000  0.35161024
   0.12500000  0.87500000  0.45053675
   0.25000000  0.75000000  0.45053675
   0.12495619  0.75005018  0.54963613
   0.24994475  0.87500087  0.54962882
   0.12488590  0.87500046  0.64775818
   0.24981191  0.75013187  0.64766069
   0.37500000  0.50000000  0.35161024
   0.00000000  0.62500000  0.35161024
   0.37500000  0.62500000  0.45053675
   0.00000000  0.50000000  0.45053675
   0.37556345  0.49953461  0.55035073
   0.99999703  0.62504394  0.54963184
   0.37472407  0.62524152  0.64702821
   0.99999572  0.50014534  0.64773089
   0.37500000  0.75000000  0.35161024
   0.00000000  0.87500000  0.35161024
   0.37500000  0.87500000  0.45053675
   0.00000000  0.75000000  0.45053675
   0.37502010  0.75003565  0.54955872
   0.99999933  0.87500906  0.54966385
   0.37486387  0.87499460  0.64771907
   0.99999758  0.75011393  0.64774610
   0.62500000  0.00000000  0.35161024
   0.75000000  0.12500000  0.35161024
   0.62500000  0.12500000  0.45053675
   0.75000000  0.00000000  0.45053675
   0.62497242  0.99995514  0.54954938
   0.75000774  0.12495744  0.54947223
   0.62529436  0.12472972  0.64699053
   0.75019141  0.99987592  0.64765317
   0.62500000  0.25000000  0.35161024
   0.75000000  0.37500000  0.35161024
   0.62500000  0.37500000  0.45053675
   0.75000000  0.25000000  0.45053675
   0.62445751  0.25045098  0.55031833
   0.74957857  0.37500891  0.54991148
   0.62556206  0.37493926  0.65125173
   0.75022129  0.24963881  0.64687357
   0.87500000  0.00000000  0.35161024
   0.50000000  0.12500000  0.35161024
   0.87500000  0.12500000  0.45053675
   0.50000000  0.00000000  0.45053675
   0.87504873  0.99996149  0.54963082
   0.50000640  0.12540338  0.54989692
   0.87512114  0.12480165  0.64765547
   0.49996810  0.99984684  0.64747995
   0.87500000  0.25000000  0.35161024
   0.50000000  0.37500000  0.35161024
   0.87500000  0.37500000  0.45053675
   0.50000000  0.25000000  0.45053675
   0.87505061  0.25001143  0.54954631
   0.50000718  0.37498932  0.55137923
   0.87513167  0.37497883  0.64747024
   0.50000130  0.24935799  0.65118090
   0.62500000  0.50000000  0.35161024
   0.75000000  0.62500000  0.35161024
   0.62500000  0.62500000  0.45053675
   0.75000000  0.50000000  0.45053675
   0.62452685  0.49942874  0.55035254
   0.75002986  0.62500735  0.54948952
   0.62533649  0.62522617  0.64690485
   0.75022087  0.50028899  0.64702735
[...]
      2.10941     12.66172     11.72398        -0.000645     -0.001311     -0.000402
      4.21936     14.77103     11.72382        -0.000130      0.000592      0.000420
      2.10822     14.77103     13.81696         0.001506      0.000416     -0.081682
      4.21712     12.66310     13.81489         0.001484     -0.003823     -0.079566
      6.33044      8.44058      7.50000         0.009847     -0.009332      0.484139
      0.00000     10.55073      7.50000        -0.000108     -0.002660      0.456101
      6.33044     10.55073      9.61015         0.019420     -0.038483      0.022104
      0.00000      8.44058      9.61015        -0.000811     -0.002628     -0.011581
      6.33995      8.43273     11.73922         0.012451     -0.009283      0.009499
     16.88111     10.55147     11.72389        -0.000200      0.002673      0.001855
      6.32578     10.55480     13.80139        -0.000633     -0.009974     -0.089431
     16.88109      8.44304     13.81638         0.000190     -0.001973     -0.079410
      6.33044     12.66087      7.50000         0.003336     -0.006928      0.461788
      0.00000     14.77102      7.50000        -0.000048     -0.000011      0.454329
      6.33044     14.77102      9.61015         0.002039     -0.001009     -0.011773
      0.00000     12.66087      9.61015        -0.000008     -0.000642     -0.008975
      6.33078     12.66148     11.72233         0.000881     -0.002405     -0.001958
     16.88115     14.77117     11.72457         0.000131     -0.001029     -0.001609
      6.32814     14.77093     13.81613        -0.000913      0.000240     -0.080678
     16.88112     12.66280     13.81671         0.000059     -0.001582     -0.079629
     10.55073      0.00000      7.50000        -0.003427      0.006894      0.461489
     12.66087      2.11015      7.50000        -0.007637      0.007705      0.462733
     10.55073      2.11015      9.61015        -0.019190      0.037666      0.020559
     12.66087      0.00000      9.61015        -0.005115      0.003547     -0.010339
     10.55026     16.88041     11.72213         0.001117      0.002731     -0.000569
     12.66100      2.10943     11.72048        -0.002511      0.001478      0.001294
     10.55570      2.10558     13.80059         0.000027      0.011096     -0.089121
     12.66410     16.87907     13.81473        -0.000838      0.002815     -0.077996
     10.55073      4.22029      7.50000        -0.009577      0.009790      0.484127
     12.66087      6.33044      7.50000        -0.013602      0.000149      0.475555
     10.55073      6.33044      9.61015        -0.049363     -0.001079      0.092775
     12.66087      4.22029      9.61015        -0.040249      0.019784      0.021766
     10.54157      4.22790     11.73853        -0.011791      0.009036      0.011132
     12.65376      6.33059     11.72985        -0.012789      0.001128     -0.001156
     10.56022      6.32941     13.89148        -0.013570     -0.001113     -0.029111
     12.66461      4.21419     13.79810        -0.012300      0.003945     -0.083369
     14.77102      0.00000      7.50000        -0.002554      0.002427      0.455587
      8.44058      2.11015      7.50000         0.000101      0.013590      0.475235
     14.77102      2.11015      9.61015        -0.004059      0.004639     -0.010198
      8.44058      0.00000      9.61015         0.000154      0.026697      0.004392
     14.77184     16.88051     11.72387        -0.001445      0.000466      0.001619
      8.44069      2.11696     11.72954         0.000114      0.013238      0.000310
     14.77306      2.10680     13.81477        -0.000446      0.000865     -0.081811
      8.44004     16.87858     13.81103         0.000388      0.008063     -0.084380
     14.77102      4.22029      7.50000        -0.007092      0.003630      0.461283
      8.44058      6.33044      7.50000         0.000128      0.000250      0.500208
     14.77102      6.33044      9.61015        -0.026842      0.000448      0.004493
      8.44058      4.22029      9.61015        -0.001520      0.049630      0.091167
     14.77187      4.22048     11.72206        -0.001053     -0.000589     -0.001291
      8.44070      6.33026     11.76116        -0.000114      0.000508      0.026956
     14.77324      6.33008     13.81082        -0.005153     -0.000801     -0.085063
      8.44060      4.20945     13.88997        -0.001707      0.017435     -0.028109
     10.55073      8.44058      7.50000        -0.009651     -0.009575      0.484318
     12.66087     10.55073      7.50000        -0.007660     -0.007385      0.462884
     10.55073     10.55073      9.61015        -0.019681     -0.041320      0.022740
     12.66087      8.44058      9.61015        -0.039377     -0.018860      0.021820
     10.54274      8.43094     11.73926        -0.011145     -0.007971      0.008801
     12.66138     10.55085     11.72085        -0.002241     -0.003108      0.000025
     10.55641     10.55455     13.79876        -0.000071     -0.010220     -0.084488
     12.66460      8.44546     13.80138        -0.013480     -0.003008     -0.089477
     10.55073     12.66087      7.50000        -0.003373     -0.006924      0.461364
     12.66087     14.77102      7.50000        -0.002908     -0.000123      0.456648
     10.55073     14.77102      9.61015        -0.002264      0.000328     -0.011944
     12.66087     12.66087      9.61015        -0.004194     -0.003942     -0.009258
     10.55070     12.66169     11.72216        -0.001876     -0.002587     -0.002118
     12.66179     14.77118     11.72375         0.000007      0.000515      0.000803
     10.55296     14.77114     13.81599         0.001020     -0.000634     -0.080895
     12.66412     12.66330     13.81453        -0.001899     -0.003504     -0.079558
     14.77102      8.44058      7.50000        -0.007156     -0.003375      0.461302
      8.44058     10.55073      7.50000        -0.000072     -0.013462      0.475447
     14.77102     10.55073      9.61015        -0.004504     -0.004384     -0.009326
      8.44058      8.44058      9.61015         0.001995     -0.049851      0.092421
     14.77169      8.44035     11.72236        -0.004525      0.000504     -0.000390
      8.44042     10.54327     11.73005         0.000514     -0.012280     -0.001708
     14.77299     10.55423     13.81522        -0.002982     -0.001331     -0.081777
      8.44128      8.44955     13.89274         0.000991     -0.017007     -0.031793
     14.77102     12.66087      7.50000        -0.002689     -0.002340      0.455910
      8.44058     14.77102      7.50000        -0.000012     -0.000082      0.459040
     14.77102     14.77102      9.61015        -0.001081      0.000013     -0.009681
      8.44058     12.66087      9.61015        -0.000373     -0.027397      0.004907
     14.77178     12.66177     11.72398         0.000170     -0.001824     -0.000499
      8.44054     14.77117     11.72352         0.000057     -0.001787     -0.003431
     14.77296     14.77112     13.81701        -0.001812      0.000468     -0.081878
      8.44108     12.66339     13.81050         0.000025     -0.006723     -0.081352
      2.11015      0.00000      9.61015        -0.006174     -0.005606      0.032729
      4.22029      2.11015      9.61015        -0.023741     -0.025953      0.017502
      2.11015      2.11015      7.50000        -0.008400     -0.008373     -0.427511
      4.22029      0.00000      7.50000        -0.005125     -0.004917     -0.428131
      2.10739     16.87812     13.86137        -0.002509     -0.002894     -0.004772
      4.21128      2.10060     13.86100        -0.002301     -0.002438     -0.009005
      2.10778      2.10834     11.71915        -0.002406     -0.001686      0.016135
      4.21827     16.87889     11.71914        -0.001196     -0.001703      0.015419
      2.11015      4.22029      9.61015        -0.027936     -0.009479      0.019816
      4.22029      6.33044      9.61015        -0.025538      0.003099      0.023055
      2.11015      6.33044      7.50000        -0.012942      0.003557     -0.433083
      4.22029      4.22029      7.50000        -0.014243     -0.008281     -0.442094
      2.10640      4.21650     13.86375        -0.002157     -0.000574     -0.012750
      4.19857      6.33106     13.86595        -0.010925      0.000120      0.000605
      2.10623      6.33080     11.71854        -0.003855      0.000156      0.023041
      4.21323      4.21754     11.71583        -0.009218     -0.002975      0.023610
      6.33044      0.00000      9.61015        -0.010679     -0.025198      0.021571
      0.00000      2.11015      9.61015         0.000151     -0.005184      0.032782
      6.33044      2.11015      7.50000        -0.005137     -0.017452     -0.439772
      0.00000      0.00000      7.50000         0.000013     -0.001984     -0.427958
      6.32595     16.87718     13.86360        -0.001771     -0.003428     -0.012389
      0.00014      2.10774     13.86218        -0.000407     -0.002608     -0.007904
      6.32747      2.10331     11.71606        -0.002167     -0.008795      0.023451
      0.00001     16.88007     11.72100         0.000214      0.001758      0.013675
      6.33044      4.22029      9.61015        -0.011655     -0.010868      0.036139
      0.00000      6.33044      9.61015        -0.000106      0.000333      0.028219
      6.33044      6.33044      7.50000        -0.011438      0.003169     -0.457487
      0.00000      4.22029      7.50000        -0.000185     -0.002979     -0.429105
      6.30107      4.19609     13.85532        -0.013397     -0.015284     -0.019719
      0.00002      6.33026     13.86446         0.000383      0.000056     -0.014268
      6.32333      6.33118     11.73330        -0.011841     -0.000569     -0.002182
      0.00021      4.21956     11.72035        -0.000565     -0.001751      0.019858
      2.11015      8.44058      9.61015        -0.024210      0.010443      0.022755
      4.22029     10.55073      9.61015        -0.024257      0.022071      0.018433
      2.11015     10.55073      7.50000        -0.008540      0.001740     -0.427405
      4.22029      8.44058      7.50000        -0.014611      0.008336     -0.440522
      2.10668      8.44502     13.86353        -0.002556      0.001715     -0.011965
      4.21120     10.55977     13.86116        -0.002776      0.002776     -0.008525
      2.10777     10.55261     11.71916        -0.000801      0.001785      0.016392
      4.21420      8.44376     11.71638        -0.010110      0.002920      0.022642
      2.11015     12.66087      9.61015        -0.008516      0.006493      0.032614
      4.22029     14.77102      9.61015        -0.005997      0.002210      0.031804
      2.11015     14.77102      7.50000        -0.005486      0.003470     -0.424239
      4.22029     12.66087      7.50000        -0.005322      0.005221     -0.429639
      2.10695     12.66405     13.86111        -0.001291      0.000500     -0.005496
      4.21736     14.77110     13.86199        -0.002288     -0.000002     -0.008836
      2.10878     14.77125     11.71981         0.001940     -0.001044      0.014290
      4.21835     12.66334     11.71936        -0.001774      0.000790      0.015956
      6.33044      8.44058      9.61015        -0.011934      0.013322      0.037076
      0.00000     10.55073      9.61015        -0.000061      0.006189      0.033353
      6.33044     10.55073      7.50000        -0.005262      0.011128     -0.440140
      0.00000      8.44058      7.50000         0.000247      0.003165     -0.432114
      6.30765      8.47022     13.85657        -0.016351      0.012363     -0.018944
     16.88110     10.55387     13.86217        -0.000070      0.002033     -0.005973
      6.32765     10.55790     11.71611        -0.001806      0.008136      0.025176
     16.88113      8.44155     11.72148        -0.000505      0.000708      0.017193
      6.33044     12.66087      9.61015        -0.008203      0.026298      0.020446
      0.00000     14.77102      9.61015        -0.000030     -0.000287      0.034802
      6.33044     14.77102      7.50000         0.000231      0.003632     -0.428402
      0.00000     12.66087      7.50000         0.000041      0.002156     -0.424830
      6.32665     12.66483     13.86395        -0.002213      0.002032     -0.012296
     16.88115     14.77069     13.86215         0.000083      0.000520     -0.007189
      6.32940     14.77109     11.72030        -0.000396     -0.000714      0.017525
      0.00001     12.66213     11.72024         0.000173     -0.002205      0.013493
     10.55073      0.00000      9.61015         0.010137     -0.026979      0.019770
     12.66087      2.11015      9.61015         0.024418     -0.025801      0.017236
     10.55073      2.11015      7.50000         0.005061     -0.017453     -0.440062
     12.66087      0.00000      7.50000         0.005152     -0.004923     -0.428184
     10.55475     16.87697     13.86407         0.001521     -0.001919     -0.011782
     12.67025      2.10086     13.86101         0.003066     -0.002581     -0.009593
     10.55345      2.10234     11.71546         0.002220     -0.008260      0.023978
     12.66282     16.87873     11.71932         0.001369     -0.000688      0.015179
     10.55073      4.22029      9.61015         0.008919     -0.013893      0.035469
     12.66087      6.33044      9.61015         0.026209      0.001516      0.022827
     10.55073      6.33044      7.50000         0.011294      0.002978     -0.457367
     12.66087      4.22029      7.50000         0.014368     -0.008388     -0.441855
     10.57434      4.18955     13.85475         0.015936     -0.011380     -0.018411
     12.68296      6.32985     13.86579         0.010837     -0.000462      0.000485
     10.55802      6.32944     11.73315         0.011091     -0.000280     -0.001874
     12.66719      4.21732     11.71609         0.009804     -0.003882      0.024980
     14.77102      0.00000      9.61015         0.005853     -0.005984      0.032604
      8.44058      2.11015      9.61015        -0.001097     -0.025562      0.022060
     14.77102      2.11015      7.50000         0.008405     -0.008176     -0.427408
      8.44058      0.00000      7.50000        -0.000173     -0.009505     -0.436956
     14.77388     16.87816     13.86146         0.002280     -0.003171     -0.005267
      8.44016      2.08711     13.86541         0.000008     -0.011168     -0.000118
     14.77336      2.10817     11.71895         0.001973     -0.001057      0.016636
      8.44031     16.87744     11.71966         0.000701     -0.004114      0.021119
     14.77102      4.22029      9.61015         0.027053     -0.009748      0.021361
      8.44058      6.33044      9.61015        -0.000115     -0.002170      0.062862
     14.77102      6.33044      7.50000         0.013020      0.003173     -0.433058
      8.44058      4.22029      7.50000        -0.000172     -0.014628     -0.458022
     14.77490      4.21596     13.86299         0.002309     -0.001031     -0.013312
      8.44074      6.32941     13.85195         0.000530      0.000752     -0.040462
     14.77505      6.33039     11.71868         0.004625      0.000485      0.020938
      8.43985      4.21282     11.73271        -0.000355     -0.011341     -0.001590
     10.55073      8.44058      9.61015         0.014689      0.010251      0.036773
     12.66087     10.55073      9.61015         0.023630      0.022682      0.018435
     10.55073     10.55073      7.50000         0.005146      0.011283     -0.439926
     12.66087      8.44058      7.50000         0.014532      0.008412     -0.440843
     10.58016      8.46324     13.85655         0.012927      0.017034     -0.020341
     12.66946     10.56027     13.86128         0.002774      0.002100     -0.008858
     10.55357     10.55691     11.71642         0.003979      0.009090      0.026635
     12.66794      8.44353     11.71596         0.008470      0.002579      0.022579
     10.55073     12.66087      9.61015         0.008432      0.024619      0.021688
     12.66087     14.77102      9.61015         0.005870      0.002312      0.031564
     10.55073     14.77102      7.50000        -0.000298      0.003271     -0.428415
     12.66087     12.66087      7.50000         0.005104      0.005271     -0.429556
     10.55495     12.66475     13.86291         0.002431      0.002936     -0.011582
     12.66376     14.77127     13.86194         0.002596     -0.000692     -0.008694
     10.55165     14.77121     11.72019         0.001062      0.000269      0.017921
     12.66283     12.66331     11.71917         0.002118      0.000667      0.015554
     14.77102      8.44058      9.61015         0.026074      0.010066      0.021551
      8.44058     10.55073      9.61015         0.000393      0.026423      0.023649
     14.77102     10.55073      7.50000         0.008545      0.001933     -0.427435
      8.44058      8.44058      7.50000        -0.000068      0.014472     -0.461499
     14.77453      8.44455     13.86403         0.002803      0.002388     -0.010682
      8.44111     10.57384     13.86643         0.000723      0.009769     -0.001747
     14.77343     10.55263     11.71935         0.000859      0.001396      0.016361
      8.44144      8.44727     11.73338        -0.000787      0.010866     -0.001052
     14.77102     12.66087      9.61015         0.008833      0.006376      0.032613
      8.44058     14.77102      9.61015        -0.000257     -0.000026      0.028403
     14.77102     14.77102      7.50000         0.005456      0.003415     -0.424236
      8.44058     12.66087      7.50000         0.000117      0.009938     -0.433808
     14.77411     12.66409     13.86115         0.001973      0.000895     -0.005845
      8.44054     14.77070     13.86393         0.000214     -0.000309     -0.012302
     14.77234     14.77130     11.71978        -0.001176     -0.001545      0.014781
      8.44075     12.66463     11.71857        -0.000578      0.005060      0.021397
 -----------------------------------------------------------------------------------
    total drift:                                0.006133     -0.023361     -0.085247


--------------------------------------------------------------------------------------------------------



  FREE ENERGIE OF THE ION-ELECTRON SYSTEM (eV)
  ---------------------------------------------------
  free  energy   TOTEN  =     -1899.10407587 eV

  energy  without entropy=    -1899.10407587  energy(sigma->0) =    -1899.10407587



--------------------------------------------------------------------------------------------------------


    POTLOK:  cpu time      1.0370: real time      1.0371


--------------------------------------------------------------------------------------------------------


     LOOP+:  cpu time  20754.0037: real time  20759.1938
    4ORBIT:  cpu time      0.0000: real time      0.0000

 total amount of memory used by VASP MPI-rank0   389267. kBytes
=======================================================================

   base      :      30000. kBytes
   nonlr-proj:      15029. kBytes
   fftplans  :      13972. kBytes
   grid      :      19418. kBytes
   one-center:        141. kBytes
   HF        :        135. kBytes
   wavefun   :       6027. kBytes
   fock_wrk  :     304545. kBytes

  
  
 General timing and accounting informations for this job:
 ========================================================
  
                  Total CPU time used (sec):    20813.354
                            User time (sec):    20755.863
                          System time (sec):       57.490
                         Elapsed time (sec):    20839.255
  
                   Maximum memory used (kb):      902404.
                   Average memory used (kb):          N/A
  
                          Minor page faults:      3692905
                          Major page faults:           47
                 Voluntary context switches:        74383
