 vasp.6.3.0 20Jan22 (build Mar 11 2022 13:48:16) complex                        
  
 executed on             LinuxIFC date 2024.01.23  07:42:22
 running on  304 total cores
 distrk:  each k-point on  304 cores,    1 groups
 distr:  one band on NCORE=   2 cores,  152 groups


--------------------------------------------------------------------------------------------------------


 INCAR:
   SYSTEM = TiO2
   ISMEAR = 0
   SIGMA = 0.05
   EDIFF = 1E-5
   ALGO = ALL
   ISTART = 0
   IBRION = -1
   NSW = 0
   ISYM = 0
   ISIF = 2
   EDIFFG = -0.01
   DIPOL = 0.5 0.5 0.5
   IDIPOL = 3
   LDIPOL = .TRUE.
   GGA = PE
   IVDW = 21
   LDAU = .TRUE.
   LDAUTYPE = 2
   LDAUL = 2 -1
   LDAUU = 4.2 0.0
   LDAUPRINT = 1
   LMAXMIX = 4
   ENCUT = 600
   PREC = Accurate
   LASPH = .TRUE.
   LREAL = .FALSE.
   ISPIN = 1
   NELM = 200
   NELMIN = 8
   NCORE = 2
   KPAR = 1
   LWAVE = .FALSE.
   LCHARG = .FALSE.

 POTCAR:    PAW_PBE Ti_pv 07Sep2000               
 POTCAR:    PAW_PBE O 08Apr2002                   
 -----------------------------------------------------------------------------
|                                                                             |
|           W    W    AA    RRRRR   N    N  II  N    N   GGGG   !!!           |
|           W    W   A  A   R    R  NN   N  II  NN   N  G    G  !!!           |
|           W    W  A    A  R    R  N N  N  II  N N  N  G       !!!           |
|           W WW W  AAAAAA  RRRRR   N  N N  II  N  N N  G  GGG   !            |
|           WW  WW  A    A  R   R   N   NN  II  N   NN  G    G                |
|           W    W  A    A  R    R  N    N  II  N    N   GGGG   !!!           |
|                                                                             |
|     For optimal performance we recommend to set                             |
|       NCORE = 2 up to number-of-cores-per-socket                            |
|     NCORE specifies how many cores store one orbital (NPAR=cpu/NCORE).      |
|     This setting can greatly improve the performance of VASP for DFT.       |
|     The default, NCORE=1 might be grossly inefficient on modern             |
|     multi-core architectures or massively parallel machines. Do your        |
|     own testing! More info at https://www.vasp.at/wiki/index.php/NCORE      |
|     Unfortunately you need to use the default for GW and RPA                |
|     calculations (for HF NCORE is supported but not extensively tested      |
|     yet).                                                                   |
|                                                                             |
 -----------------------------------------------------------------------------

 POTCAR:    PAW_PBE Ti_pv 07Sep2000               
   SHA256 =  f757a1b2c6d082f4c628fa3d987464a8763bf92e53844ac0500b0e2ddc9ce5c0 Ti_pv/POTCAR          
   COPYR  = (c) Copyright 07Sep2000 Georg Kresse                                                    
   COPYR  = This file is part of the software VASP. Any use, copying, and all other rights are regul
   COPYR  = If you do not have a valid VASP license, you may not use, copy or distribute this file. 
   VRHFIN =Ti: d3 s1                                                                                
   LEXCH  = PE                                                                                      
   EATOM  =  1042.5995 eV,   76.6289 Ry                                                             
                                                                                                    
   TITEL  = PAW_PBE Ti_pv 07Sep2000                                                                 
   LULTRA =        F    use ultrasoft PP ?                                                          
   IUNSCR =        1    unscreen: 0-lin 1-nonlin 2-no                                               
   RPACOR =    2.200    partial core radius                                                         
   POMASS =   47.880; ZVAL   =   10.000    mass and valenz                                          
   RCORE  =    2.500    outmost cutoff radius                                                       
   RWIGS  =    2.500; RWIGS  =    1.323    wigner-seitz radius (au A)                               
   ENMAX  =  222.335; ENMIN  =  166.751 eV                                                          
   RCLOC  =    1.701    cutoff for local pot                                                        
   LCOR   =        T    correct aug charges                                                         
   LPAW   =        T    paw PP                                                                      
   EAUG   =  482.848                                                                                
   DEXC   =    0.000                                                                                
   RMAX   =    2.564    core radius for proj-oper                                                   
   RAUG   =    1.300    factor for augmentation sphere                                              
   RDEP   =    2.538    radius for radial grids                                                     
   RDEPT  =    1.952    core radius for aug-charge                                                  
                                                                                                    
   Atomic configuration                                                                             
    8 entries                                                                                       
     n  l   j            E        occ.                                                              
     1  0  0.50     -4865.3608   2.0000                                                             
     2  0  0.50      -533.1368   2.0000                                                             
     2  1  1.50      -440.5031   6.0000                                                             
     3  0  0.50       -59.3186   2.0000                                                             
     3  1  1.50       -35.7012   6.0000                                                             
     3  2  2.50        -1.9157   3.0000                                                             
     4  0  0.50        -3.7291   1.0000                                                             
     4  3  2.50        -1.3606   0.0000                                                             
   Description                                                                                      
     l       E           TYP  RCUT    TYP  RCUT                                                     
     1    -35.7012140     23  2.300                                                                 
     1     -1.3605826     23  2.300                                                                 
     2     -1.9156996     23  2.500                                                                 
     2     -0.4063033     23  2.500                                                                 
     0     -3.7290856     23  2.500                                                                 
     0     20.4087390     23  2.500                                                                 
  local pseudopotential read in
  partial core-charges read in
  partial kinetic energy density read in
  atomic valenz-charges read in
  non local Contribution for L=           1  read in
    real space projection operators read in
  non local Contribution for L=           1  read in
    real space projection operators read in
  non local Contribution for L=           2  read in
    real space projection operators read in
  non local Contribution for L=           2  read in
    real space projection operators read in
  non local Contribution for L=           0  read in
    real space projection operators read in
  non local Contribution for L=           0  read in
    real space projection operators read in
    PAW grid and wavefunctions read in
 
   number of l-projection  operators is LMAX  =           6
   number of lm-projection operators is LMMAX =          18
 
 POTCAR:    PAW_PBE O 08Apr2002                   
   SHA256 =  818f92134a0a090dccd8ba1447fa70422a3b330e708bb4f08108d8ae51209ddf O/POTCAR              
   COPYR  = (c) Copyright 08Apr2002 Georg Kresse                                                    
   COPYR  = This file is part of the software VASP. Any use, copying, and all other rights are regul
   COPYR  = If you do not have a valid VASP license, you may not use, copy or distribute this file. 
   VRHFIN =O: s2p4                                                                                  
   LEXCH  = PE                                                                                      
   EATOM  =   432.3788 eV,   31.7789 Ry                                                             
                                                                                                    
   TITEL  = PAW_PBE O 08Apr2002                                                                     
   LULTRA =        F    use ultrasoft PP ?                                                          
   IUNSCR =        1    unscreen: 0-lin 1-nonlin 2-no                                               
   RPACOR =    1.200    partial core radius                                                         
   POMASS =   16.000; ZVAL   =    6.000    mass and valenz                                          
   RCORE  =    1.520    outmost cutoff radius                                                       
   RWIGS  =    1.550; RWIGS  =    0.820    wigner-seitz radius (au A)                               
   ENMAX  =  400.000; ENMIN  =  300.000 eV                                                          
   ICORE  =        2    local potential                                                             
   LCOR   =        T    correct aug charges                                                         
   LPAW   =        T    paw PP                                                                      
   EAUG   =  605.392                                                                                
   DEXC   =    0.000                                                                                
   RMAX   =    1.553    core radius for proj-oper                                                   
   RAUG   =    1.300    factor for augmentation sphere                                              
   RDEP   =    1.550    radius for radial grids                                                     
   RDEPT  =    1.329    core radius for aug-charge                                                  
                                                                                                    
   Atomic configuration                                                                             
    4 entries                                                                                       
     n  l   j            E        occ.                                                              
     1  0  0.50      -514.6923   2.0000                                                             
     2  0  0.50       -23.9615   2.0000                                                             
     2  1  0.50        -9.0305   4.0000                                                             
     3  2  1.50        -9.5241   0.0000                                                             
   Description                                                                                      
     l       E           TYP  RCUT    TYP  RCUT                                                     
     0    -23.9615318     23  1.200                                                                 
     0     -9.5240782     23  1.200                                                                 
     1     -9.0304911     23  1.520                                                                 
     1      8.1634956     23  1.520                                                                 
     2     -9.5240782      7  1.500                                                                 
  local pseudopotential read in
  partial core-charges read in
  partial kinetic energy density read in
  kinetic energy density of atom read in
  atomic valenz-charges read in
  non local Contribution for L=           0  read in
    real space projection operators read in
  non local Contribution for L=           0  read in
    real space projection operators read in
  non local Contribution for L=           1  read in
    real space projection operators read in
  non local Contribution for L=           1  read in
    real space projection operators read in
    PAW grid and wavefunctions read in
 
   number of l-projection  operators is LMAX  =           4
   number of lm-projection operators is LMMAX =           8
 
 -----------------------------------------------------------------------------
|                                                                             |
|               ----> ADVICE to this user running VASP <----                  |
|                                                                             |
|     You have a (more or less) 'large supercell' and for larger cells it     |
|     might be more efficient to use real-space projection operators.         |
|     Therefore, try LREAL= Auto in the INCAR file.                           |
|     Mind: For very accurate calculation, you might also keep the            |
|     reciprocal projection scheme (i.e. LREAL=.FALSE.).                      |
|                                                                             |
 -----------------------------------------------------------------------------

  PAW_PBE Ti_pv 07Sep2000               :
 energy of atom  1       EATOM=-1042.5995
 kinetic energy error for atom=    0.0007 (will be added to EATOM!!)
  PAW_PBE O 08Apr2002                   :
 energy of atom  2       EATOM= -432.3788
 kinetic energy error for atom=    0.0168 (will be added to EATOM!!)
 
 
 POSCAR: Ti  O
  positions in direct lattice
  No initial velocities read in
 exchange correlation table for  LEXCH =        8
   RHO(1)=    0.500       N(1)  =     2000
   RHO(2)=  100.500       N(2)  =     4000
 


--------------------------------------------------------------------------------------------------------


 ion  position               nearest neighbor table
   1  0.750  0.625  0.286-  81 1.98  82 1.98 141 1.98 142 1.98 163 2.00  84 2.00  11 3.03  31 3.03

   2  0.000  0.750  0.286-  83 1.98  84 1.98 103 1.98 104 1.98  85 2.00  32 3.03  12 3.03
   3  0.000  0.625  0.393-  86 1.98 146 1.98 145 1.98  85 1.98  87 2.00  88 2.00  13 3.03  33 3.03

   4  0.750  0.750  0.393-  87 1.98 107 1.98 168 1.98 188 1.98  89 2.00  82 2.00  14 3.03  34 3.03

   5  0.750  0.625  0.500-  89 1.98  90 1.98 149 1.98 150 1.98  92 2.00 171 2.00  15 3.03  35 3.03

   6  0.000  0.750  0.500-  91 1.98 111 1.98  92 1.98 112 1.98  86 2.00  93 2.01  16 3.03  36 3.03

   7  1.000  0.625  0.605- 153 1.94  93 1.94  96 1.97  95 1.98  94 2.03 154 2.03  17 3.03  37 3.03

   8  0.750  0.750  0.609-  97 1.93 176 2.00 196 2.00  95 2.00 115 2.00  90 2.08  18 3.03  38 3.03

   9  0.750  0.626  0.719-  98 1.87 158 1.92 179 2.03 100 2.05  97 2.08 157 2.09  19 3.01  39 3.06

  10  1.000  0.750  0.710-  94 1.86 119 1.97  99 1.97 120 1.97 100 1.98  40 3.03  20 3.03
  11  0.750  0.875  0.286-  81 1.98  82 1.98 101 1.98 102 1.98 183 2.00 104 2.00   1 3.03  21 3.03

  12  0.000  0.000  0.286- 103 1.98 104 1.98 123 1.98 124 1.98 105 2.00  22 3.03   2 3.03
  13  0.000  0.875  0.393-  86 1.98 106 1.98 105 1.98  85 1.98 107 2.00 108 2.00   3 3.03  23 3.03

  14  0.750  0.000  0.393- 107 1.98 127 1.98 188 1.98 208 1.98 109 2.00 102 2.00   4 3.03  24 3.03

  15  0.750  0.875  0.500-  89 1.98  90 1.98 109 1.98 110 1.98 112 2.00 191 2.00   5 3.03  25 3.03

  16  0.000  0.000  0.500- 111 1.98 131 1.98 112 1.98 132 1.98 106 2.00 113 2.01   6 3.03  26 3.03

  17  1.000  0.875  0.605-  93 1.94 113 1.94 116 1.98 115 1.98 114 2.03  94 2.03   7 3.03  27 3.03

  18  0.750  0.000  0.610- 117 1.93 216 2.00 196 2.00 135 2.00 115 2.00 110 2.09   8 3.03  28 3.03

  19  0.750  0.875  0.720- 118 1.87  98 1.89 199 2.05 120 2.06 117 2.10  97 2.11   9 3.01  29 3.02

  20  1.000  0.000  0.710- 114 1.86 139 1.97 119 1.97 140 1.97 120 1.97  30 3.03  10 3.03
  21  0.750  0.125  0.286- 101 1.98 102 1.98 121 1.98 122 1.98 203 2.00 124 2.00  11 3.03  31 3.03

  22  0.000  0.250  0.286- 123 1.98 124 1.98 143 1.98 144 1.98 125 2.00  32 3.03  12 3.03
  23  0.000  0.125  0.393- 106 1.98 126 1.98 125 1.98 105 1.98 127 2.00 128 2.00  13 3.03  33 3.03

  24  0.750  0.250  0.393- 127 1.98 147 1.98 208 1.98 228 1.98 129 2.00 122 2.00  14 3.03  34 3.03

  25  0.750  0.125  0.500- 109 1.98 110 1.98 129 1.98 130 1.98 132 2.00 211 2.00  15 3.03  35 3.03

  26  0.000  0.250  0.500- 131 1.98 151 1.98 132 1.98 152 1.98 126 2.00 133 2.01  16 3.03  36 3.03

  27  1.000  0.125  0.605- 133 1.94 113 1.94 136 1.97 135 1.98 114 2.03 134 2.03  17 3.03  37 3.03

  28  0.750  0.250  0.609- 137 1.93 236 2.00 216 2.00 155 2.00 135 2.00 130 2.08  18 3.03  38 3.03

  29  0.750  0.125  0.720- 118 1.87 138 1.88 219 2.05 140 2.06 117 2.10 137 2.11  39 3.01  19 3.02

  30  1.000  0.250  0.710- 134 1.86 139 1.97 159 1.97 140 1.97 160 1.98  40 3.03  20 3.03
  31  0.750  0.375  0.286- 121 1.98 122 1.98 141 1.98 142 1.98 223 2.00 144 2.00   1 3.03  21 3.03

  32  0.000  0.500  0.286-  83 1.98  84 1.98 143 1.98 144 1.98 145 2.00  22 3.03   2 3.03
  33  0.000  0.375  0.393- 126 1.98 146 1.98 145 1.98 125 1.98 147 2.00 148 2.00   3 3.03  23 3.03

  34  0.750  0.500  0.393-  87 1.98 147 1.98 168 1.98 228 1.98 149 2.00 142 2.00   4 3.03  24 3.03

  35  0.750  0.375  0.500- 129 1.98 130 1.98 149 1.98 150 1.98 152 2.00 231 2.00   5 3.03  25 3.03

  36  0.000  0.500  0.500-  91 1.98 151 1.98  92 1.98 152 1.98 146 2.00 153 2.01   6 3.03  26 3.03

  37  1.000  0.375  0.605- 153 1.94 133 1.94 156 1.97 155 1.98 134 2.03 154 2.03  27 3.03   7 3.03

  38  0.750  0.500  0.610- 157 1.92 236 2.00 176 2.00  95 2.00 155 2.00 150 2.08   8 3.03  28 3.03

  39  0.751  0.373  0.719- 138 1.87 158 1.92 239 2.04 160 2.05 137 2.08 157 2.10  29 3.01   9 3.06

  40  0.001  0.500  0.710- 154 1.86 159 1.97  99 1.97 100 1.97 160 1.97  10 3.03  30 3.03
  41  0.250  0.625  0.286- 161 1.98 162 1.98 221 1.98 222 1.98 164 2.00  83 2.00  51 3.03  71 3.03

  42  0.500  0.750  0.286- 163 1.98 164 1.98 183 1.98 184 1.98 165 2.00  72 3.03  52 3.03
  43  0.500  0.625  0.393- 166 1.98 226 1.98 225 1.98 165 1.98 168 2.00 167 2.00  53 3.03  73 3.03

  44  0.250  0.750  0.393-  88 1.98 108 1.98 167 1.98 187 1.98 169 2.00 162 2.00  54 3.03  74 3.03

  45  0.250  0.625  0.500- 169 1.98 170 1.98 229 1.98 230 1.98 172 2.00  91 2.00  55 3.03  75 3.03

  46  0.500  0.750  0.500- 171 1.98 191 1.98 172 1.98 192 1.98 166 2.00 173 2.00  56 3.03  76 3.03

  47  0.500  0.623  0.606- 233 1.94 173 1.97 175 1.98 176 1.99 234 2.00 174 2.02  77 2.98  57 3.04

  48  0.250  0.750  0.610- 177 1.92 175 2.00 195 2.00  96 2.00 116 2.00 170 2.09  78 3.02  58 3.03

  49  0.251  0.625  0.720- 178 1.87 238 1.88  99 2.07 180 2.07 237 2.10 177 2.10  59 3.03  79 3.03

  50  0.500  0.751  0.709- 174 1.86 179 1.94 180 1.97 199 1.97 200 1.98  60 3.02  80 3.04
  51  0.250  0.875  0.286- 161 1.98 162 1.98 181 1.98 182 1.98 184 2.00 103 2.00  41 3.03  61 3.03

  52  0.500  0.000  0.286- 183 1.98 184 1.98 203 1.98 204 1.98 185 2.00  62 3.03  42 3.03
  53  0.500  0.875  0.393- 166 1.98 186 1.98 185 1.98 165 1.98 188 2.00 187 2.00  43 3.03  63 3.03

  54  0.250  0.000  0.393- 108 1.98 128 1.98 187 1.98 207 1.98 189 2.00 182 2.00  44 3.03  64 3.03

  55  0.250  0.875  0.500- 169 1.98 170 1.98 189 1.98 190 1.98 192 2.00 111 2.00  45 3.03  65 3.03

  56  0.500  0.000  0.500- 191 1.98 211 1.98 192 1.98 212 1.98 193 1.99 186 2.00  46 3.03  66 3.03

  57  0.499  0.874  0.604- 173 1.94 193 1.94 195 1.98 196 1.99 174 2.01 194 2.03  67 3.04  47 3.04

  58  0.250  0.000  0.610- 197 1.92 195 2.00 215 2.00 136 2.00 116 2.00 190 2.09  68 3.03  48 3.03

  59  0.250  0.875  0.720- 198 1.87 178 1.88 200 2.05 119 2.07 197 2.11 177 2.11  69 3.02  49 3.03

  60  0.500  0.000  0.709- 194 1.86 220 1.96 200 1.97 219 1.97 199 1.98  50 3.02  70 3.02
  61  0.250  0.125  0.286- 181 1.98 182 1.98 201 1.98 202 1.98 204 2.00 123 2.00  51 3.03  71 3.03

  62  0.500  0.250  0.286- 203 1.98 204 1.98 223 1.98 224 1.98 205 2.00  72 3.03  52 3.03
  63  0.500  0.125  0.393- 186 1.98 206 1.98 205 1.98 185 1.98 208 2.00 207 2.00  53 3.03  73 3.03

  64  0.250  0.250  0.393- 128 1.98 148 1.98 207 1.98 227 1.98 209 2.00 202 2.00  54 3.03  74 3.03

  65  0.250  0.125  0.500- 189 1.98 190 1.98 209 1.98 210 1.98 212 2.00 131 2.00  55 3.03  75 3.03

  66  0.500  0.250  0.500- 211 1.98 231 1.98 212 1.98 232 1.98 206 2.00 213 2.01  56 3.03  76 3.03

  67  0.499  0.126  0.604- 213 1.94 193 1.94 215 1.98 216 1.99 214 2.01 194 2.04  77 3.04  57 3.04

  68  0.250  0.250  0.610- 217 1.92 235 2.00 215 2.00 156 2.00 136 2.00 210 2.09  78 3.03  58 3.03

  69  0.250  0.125  0.720- 198 1.88 218 1.88 220 2.05 139 2.07 217 2.11 197 2.11  59 3.02  79 3.03

  70  0.500  0.250  0.709- 214 1.86 239 1.95 240 1.96 219 1.97 220 1.98  60 3.02  80 3.03
  71  0.250  0.375  0.286- 201 1.98 202 1.98 221 1.98 222 1.98 224 2.00 143 2.00  41 3.03  61 3.03

  72  0.500  0.500  0.286- 163 1.98 164 1.98 223 1.98 224 1.98 225 2.00  62 3.03  42 3.03
  73  0.500  0.375  0.393- 206 1.98 226 1.98 225 1.98 205 1.98 228 2.00 227 2.00  43 3.03  63 3.03

  74  0.250  0.500  0.393-  88 1.98 148 1.98 167 1.98 227 1.98 229 2.00 222 2.00  44 3.03  64 3.03

  75  0.250  0.375  0.500- 209 1.98 210 1.98 229 1.98 230 1.98 232 2.00 151 2.00  45 3.03  65 3.03

  76  0.500  0.500  0.500- 171 1.98 231 1.98 172 1.98 232 1.98 226 2.00 233 2.02  46 3.03  66 3.03

  77  0.500  0.377  0.606- 233 1.95 213 1.97 235 1.98 236 1.99 234 2.01 214 2.02  47 2.98  67 3.04

  78  0.250  0.500  0.610- 237 1.92 175 2.00 235 2.00 156 2.00  96 2.01 230 2.09  48 3.02  68 3.03

  79  0.251  0.375  0.720- 218 1.87 238 1.88 240 2.06 159 2.07 217 2.11 237 2.11  69 3.03  49 3.03

  80  0.502  0.500  0.714- 234 1.96 240 1.97 180 1.98 239 1.99 179 2.00  70 3.03  50 3.04
  81  0.750  0.750  0.244-   1 1.98  11 1.98
  82  0.750  0.750  0.328-   1 1.98  11 1.98   4 2.00
  83  0.098  0.625  0.286-   2 1.98  32 1.98  41 2.00
  84  0.902  0.625  0.286-   2 1.98  32 1.98   1 2.00
  85  0.000  0.750  0.351-   3 1.98  13 1.98   2 2.00
  86  0.000  0.750  0.435-   3 1.98  13 1.98   6 2.00
  87  0.848  0.625  0.393-   4 1.98  34 1.98   3 2.00
  88  0.152  0.625  0.393-  44 1.98  74 1.98   3 2.00
  89  0.750  0.750  0.458-   5 1.98  15 1.98   4 2.00
  90  0.750  0.750  0.542-   5 1.98  15 1.98   8 2.08
  91  0.098  0.625  0.500-   6 1.98  36 1.98  45 2.00
  92  0.902  0.625  0.500-   6 1.98  36 1.98   5 2.00
  93  0.000  0.750  0.565-  17 1.94   7 1.94   6 2.01
  94  0.999  0.750  0.649-  10 1.86   7 2.03  17 2.03
  95  0.850  0.625  0.607-   7 1.98   8 2.00  38 2.00
  96  0.150  0.625  0.607-   7 1.97  48 2.00  78 2.01
  97  0.754  0.751  0.672-   8 1.93   9 2.08  19 2.11
  98  0.748  0.749  0.756-   9 1.87  19 1.89
  99  0.094  0.625  0.719-  40 1.97  10 1.97  49 2.07
 100  0.906  0.624  0.721-  40 1.97  10 1.98   9 2.05
 101  0.750  0.000  0.244-  11 1.98  21 1.98
 102  0.750  0.000  0.328-  11 1.98  21 1.98  14 2.00
 103  0.098  0.875  0.286-   2 1.98  12 1.98  51 2.00
 104  0.902  0.875  0.286-   2 1.98  12 1.98  11 2.00
 105  0.000  0.000  0.351-  13 1.98  23 1.98  12 2.00
 106  0.000  0.000  0.435-  13 1.98  23 1.98  16 2.00
 107  0.848  0.875  0.393-   4 1.98  14 1.98  13 2.00
 108  0.152  0.875  0.393-  44 1.98  54 1.98  13 2.00
 109  0.750  0.000  0.458-  15 1.98  25 1.98  14 2.00
 110  0.750  0.000  0.542-  15 1.98  25 1.98  18 2.09
 111  0.098  0.875  0.500-   6 1.98  16 1.98  55 2.00
 112  0.902  0.875  0.500-   6 1.98  16 1.98  15 2.00
 113  0.000  1.000  0.565-  17 1.94  27 1.94  16 2.01
 114  0.999  0.000  0.649-  20 1.86  17 2.03  27 2.03
 115  0.849  0.875  0.607-  17 1.98  18 2.00   8 2.00
 116  0.150  0.875  0.607-  17 1.98  48 2.00  58 2.00
 117  0.750  1.000  0.672-  18 1.93  29 2.10  19 2.10
 118  0.750  1.000  0.756-  19 1.87  29 1.87
 119  0.093  0.875  0.719-  10 1.97  20 1.97  59 2.07
 120  0.907  0.875  0.720-  10 1.97  20 1.97  19 2.06
 121  0.750  0.250  0.244-  21 1.98  31 1.98
 122  0.750  0.250  0.328-  21 1.98  31 1.98  24 2.00
 123  0.098  0.125  0.286-  12 1.98  22 1.98  61 2.00
 124  0.902  0.125  0.286-  12 1.98  22 1.98  21 2.00
 125  0.000  0.250  0.351-  23 1.98  33 1.98  22 2.00
 126  0.000  0.250  0.435-  23 1.98  33 1.98  26 2.00
 127  0.848  0.125  0.393-  14 1.98  24 1.98  23 2.00
 128  0.152  0.125  0.393-  54 1.98  64 1.98  23 2.00
 129  0.750  0.250  0.458-  25 1.98  35 1.98  24 2.00
 130  0.750  0.250  0.542-  25 1.98  35 1.98  28 2.08
 131  0.098  0.125  0.500-  16 1.98  26 1.98  65 2.00
 132  0.902  0.125  0.500-  16 1.98  26 1.98  25 2.00
 133  0.000  0.250  0.565-  27 1.94  37 1.94  26 2.01
 134  0.999  0.250  0.649-  30 1.86  37 2.03  27 2.03
 135  0.849  0.125  0.607-  27 1.98  18 2.00  28 2.00
 136  0.150  0.125  0.607-  27 1.97  58 2.00  68 2.00
 137  0.753  0.249  0.672-  28 1.93  39 2.08  29 2.11
 138  0.749  0.251  0.756-  39 1.87  29 1.88
 139  0.093  0.125  0.719-  30 1.97  20 1.97  69 2.07
 140  0.907  0.125  0.720-  30 1.97  20 1.97  29 2.06
 141  0.750  0.500  0.244-   1 1.98  31 1.98
 142  0.750  0.500  0.328-   1 1.98  31 1.98  34 2.00
 143  0.098  0.375  0.286-  22 1.98  32 1.98  71 2.00
 144  0.902  0.375  0.286-  22 1.98  32 1.98  31 2.00
 145  0.000  0.500  0.351-   3 1.98  33 1.98  32 2.00
 146  0.000  0.500  0.435-   3 1.98  33 1.98  36 2.00
 147  0.848  0.375  0.393-  24 1.98  34 1.98  33 2.00
 148  0.152  0.375  0.393-  64 1.98  74 1.98  33 2.00
 149  0.750  0.500  0.458-   5 1.98  35 1.98  34 2.00
 150  0.750  0.500  0.542-   5 1.98  35 1.98  38 2.08
 151  0.098  0.375  0.500-  26 1.98  36 1.98  75 2.00
 152  0.902  0.375  0.500-  26 1.98  36 1.98  35 2.00
 153  0.000  0.500  0.565-  37 1.94   7 1.94  36 2.01
 154  0.999  0.500  0.649-  40 1.86   7 2.03  37 2.03
 155  0.850  0.375  0.607-  37 1.98  28 2.00  38 2.00
 156  0.150  0.375  0.607-  37 1.97  68 2.00  78 2.00
 157  0.756  0.500  0.672-  38 1.92   9 2.09  39 2.10
 158  0.737  0.500  0.756-   9 1.92  39 1.92
 159  0.093  0.375  0.719-  40 1.97  30 1.97  79 2.07
 160  0.907  0.376  0.721-  40 1.97  30 1.98  39 2.05
 161  0.250  0.750  0.244-  41 1.98  51 1.98
 162  0.250  0.750  0.328-  41 1.98  51 1.98  44 2.00
 163  0.598  0.625  0.286-  42 1.98  72 1.98   1 2.00
 164  0.402  0.625  0.286-  42 1.98  72 1.98  41 2.00
 165  0.500  0.750  0.351-  43 1.98  53 1.98  42 2.00
 166  0.500  0.750  0.435-  43 1.98  53 1.98  46 2.00
 167  0.348  0.625  0.393-  44 1.98  74 1.98  43 2.00
 168  0.652  0.625  0.393-   4 1.98  34 1.98  43 2.00
 169  0.250  0.750  0.458-  45 1.98  55 1.98  44 2.00
 170  0.250  0.750  0.542-  45 1.98  55 1.98  48 2.09
 171  0.598  0.625  0.500-  46 1.98  76 1.98   5 2.00
 172  0.402  0.625  0.500-  46 1.98  76 1.98  45 2.00
 173  0.500  0.749  0.565-  57 1.94  47 1.97  46 2.00
 174  0.497  0.751  0.648-  50 1.86  57 2.01  47 2.02
 175  0.349  0.625  0.607-  47 1.98  78 2.00  48 2.00
 176  0.651  0.625  0.608-  47 1.99   8 2.00  38 2.00
 177  0.251  0.750  0.672-  48 1.92  49 2.10  59 2.11
 178  0.250  0.750  0.756-  49 1.87  59 1.88
 179  0.596  0.630  0.714-  50 1.94  80 2.00   9 2.03
 180  0.408  0.626  0.721-  50 1.97  80 1.98  49 2.07
 181  0.250  0.000  0.244-  51 1.98  61 1.98
 182  0.250  0.000  0.328-  51 1.98  61 1.98  54 2.00
 183  0.598  0.875  0.286-  42 1.98  52 1.98  11 2.00
 184  0.402  0.875  0.286-  42 1.98  52 1.98  51 2.00
 185  0.500  0.000  0.351-  53 1.98  63 1.98  52 2.00
 186  0.500  0.000  0.435-  53 1.98  63 1.98  56 2.00
 187  0.348  0.875  0.393-  44 1.98  54 1.98  53 2.00
 188  0.652  0.875  0.393-   4 1.98  14 1.98  53 2.00
 189  0.250  0.000  0.458-  55 1.98  65 1.98  54 2.00
 190  0.250  0.000  0.542-  55 1.98  65 1.98  58 2.09
 191  0.598  0.875  0.500-  46 1.98  56 1.98  15 2.00
 192  0.402  0.875  0.500-  46 1.98  56 1.98  55 2.00
 193  0.500  0.000  0.565-  57 1.94  67 1.94  56 1.99
 194  0.500  1.000  0.648-  60 1.86  57 2.03  67 2.04
 195  0.349  0.875  0.607-  57 1.98  58 2.00  48 2.00
 196  0.650  0.875  0.607-  57 1.99   8 2.00  18 2.00
 197  0.249  1.000  0.672-  58 1.92  59 2.11  69 2.11
 198  0.249  0.000  0.756-  59 1.87  69 1.88
 199  0.594  0.875  0.719-  50 1.97  60 1.98  19 2.05
 200  0.406  0.876  0.719-  60 1.97  50 1.98  59 2.05
 201  0.250  0.250  0.244-  61 1.98  71 1.98
 202  0.250  0.250  0.328-  61 1.98  71 1.98  64 2.00
 203  0.598  0.125  0.286-  52 1.98  62 1.98  21 2.00
 204  0.402  0.125  0.286-  52 1.98  62 1.98  61 2.00
 205  0.500  0.250  0.351-  63 1.98  73 1.98  62 2.00
 206  0.500  0.250  0.435-  63 1.98  73 1.98  66 2.00
 207  0.348  0.125  0.393-  54 1.98  64 1.98  63 2.00
 208  0.652  0.125  0.393-  14 1.98  24 1.98  63 2.00
 209  0.250  0.250  0.458-  65 1.98  75 1.98  64 2.00
 210  0.250  0.250  0.542-  65 1.98  75 1.98  68 2.09
 211  0.598  0.125  0.500-  56 1.98  66 1.98  25 2.00
 212  0.402  0.125  0.500-  56 1.98  66 1.98  65 2.00
 213  0.500  0.251  0.565-  67 1.94  77 1.97  66 2.01
 214  0.498  0.248  0.648-  70 1.86  67 2.01  77 2.02
 215  0.349  0.125  0.607-  67 1.98  58 2.00  68 2.00
 216  0.650  0.125  0.607-  67 1.99  28 2.00  18 2.00
 217  0.250  0.250  0.672-  68 1.92  69 2.11  79 2.11
 218  0.250  0.250  0.756-  79 1.87  69 1.88
 219  0.594  0.125  0.719-  60 1.97  70 1.97  29 2.05
 220  0.406  0.124  0.719-  60 1.96  70 1.98  69 2.05
 221  0.250  0.500  0.244-  41 1.98  71 1.98
 222  0.250  0.500  0.328-  41 1.98  71 1.98  74 2.00
 223  0.598  0.375  0.286-  62 1.98  72 1.98  31 2.00
 224  0.402  0.375  0.286-  62 1.98  72 1.98  71 2.00
 225  0.500  0.500  0.351-  43 1.98  73 1.98  72 2.00
 226  0.500  0.500  0.435-  43 1.98  73 1.98  76 2.00
 227  0.348  0.375  0.393-  64 1.98  74 1.98  73 2.00
 228  0.652  0.375  0.393-  24 1.98  34 1.98  73 2.00
 229  0.250  0.500  0.458-  45 1.98  75 1.98  74 2.00
 230  0.250  0.500  0.542-  45 1.98  75 1.98  78 2.09
 231  0.598  0.375  0.500-  66 1.98  76 1.98  35 2.00
 232  0.402  0.375  0.500-  66 1.98  76 1.98  75 2.00
 233  0.500  0.500  0.566-  47 1.94  77 1.95  76 2.02
 234  0.498  0.500  0.650-  80 1.96  47 2.00  77 2.01
 235  0.349  0.375  0.607-  77 1.98  78 2.00  68 2.00
 236  0.651  0.375  0.608-  77 1.99  28 2.00  38 2.00
 237  0.250  0.500  0.672-  78 1.92  49 2.10  79 2.11
 238  0.251  0.500  0.756-  49 1.88  79 1.88
 239  0.596  0.371  0.714-  70 1.95  80 1.99  39 2.04
 240  0.407  0.374  0.719-  70 1.96  80 1.97  79 2.06
 

IMPORTANT INFORMATION: All symmetrisations will be switched off!
NOSYMM: (Re-)initialisation of all symmetry stuff for point group C_1.


----------------------------------------------------------------------------------------

                                     Primitive cell                                     

  volume of cell :    4886.2662

  direct lattice vectors                    reciprocal lattice vectors
    13.143747607  0.000000000  0.000000000     0.076081802  0.000000000  0.000000000
     0.000000000 12.104894358  0.000000000     0.000000000  0.082611212  0.000000000
     0.000000000  0.000000000 30.711208800     0.000000000  0.000000000  0.032561401

  length of vectors
    13.143747607 12.104894358 30.711208800     0.076081802  0.082611212  0.032561401

  position of ions in fractional coordinates (direct lattice)
     0.750000000  0.625000000  0.286010579
     0.000000000  0.750000000  0.286010579
     0.000000000  0.625000000  0.393005289
     0.750000000  0.750000000  0.393005289
     0.750000000  0.625000000  0.500000000
     0.000000000  0.750000000  0.500000000
     0.999945745  0.625041927  0.605118707
     0.750074996  0.750084069  0.609430702
     0.750276032  0.626431096  0.718728932
     0.999655801  0.749975851  0.709925787
     0.750000000  0.875000000  0.286010579
     0.000000000  0.000000000  0.286010579
     0.000000000  0.875000000  0.393005289
     0.750000000  0.000000000  0.393005289
     0.750000000  0.875000000  0.500000000
     0.000000000  0.000000000  0.500000000
     0.999781052  0.875022523  0.605194784
     0.749559362  0.000019231  0.609745203
     0.749779647  0.875346292  0.720004365
     0.999922868  0.000011941  0.709866274
     0.750000000  0.125000000  0.286010579
     0.000000000  0.250000000  0.286010579
     0.000000000  0.125000000  0.393005289
     0.750000000  0.250000000  0.393005289
     0.750000000  0.125000000  0.500000000
     0.000000000  0.250000000  0.500000000
     0.999776506  0.125005035  0.605179858
     0.750036161  0.249961080  0.609407189
     0.749727382  0.124536969  0.719987910
     0.999703669  0.250040866  0.709913436
     0.750000000  0.375000000  0.286010579
     0.000000000  0.500000000  0.286010579
     0.000000000  0.375000000  0.393005289
     0.750000000  0.500000000  0.393005289
     0.750000000  0.375000000  0.500000000
     0.000000000  0.500000000  0.500000000
     0.999938142  0.375018125  0.605122162
     0.750366203  0.500037334  0.609651467
     0.750536168  0.373378327  0.718723720
     0.000747012  0.500061093  0.709837374
     0.250000000  0.625000000  0.286010579
     0.500000000  0.750000000  0.286010579
     0.500000000  0.625000000  0.393005289
     0.250000000  0.750000000  0.393005289
     0.250000000  0.625000000  0.500000000
     0.500000000  0.750000000  0.500000000
     0.499718577  0.623125773  0.606155274
     0.250013493  0.749934616  0.609792094
     0.250876107  0.625118178  0.720144479
     0.499668055  0.750689342  0.708602357
     0.250000000  0.875000000  0.286010579
     0.500000000  0.000000000  0.286010579
     0.500000000  0.875000000  0.393005289
     0.250000000  0.000000000  0.393005289
     0.250000000  0.875000000  0.500000000
     0.500000000  0.000000000  0.500000000
     0.499409837  0.874456101  0.604298336
     0.249605773  0.000016493  0.609789379
     0.250237665  0.875136591  0.720012680
     0.499809432  0.000163168  0.708953743
     0.250000000  0.125000000  0.286010579
     0.500000000  0.250000000  0.286010579
     0.500000000  0.125000000  0.393005289
     0.250000000  0.250000000  0.393005289
     0.250000000  0.125000000  0.500000000
     0.500000000  0.250000000  0.500000000
     0.499415896  0.125744656  0.604393438
     0.249895729  0.250078502  0.609794974
     0.250175472  0.124964983  0.719983759
     0.499642403  0.249661202  0.708911950
     0.250000000  0.375000000  0.286010579
     0.500000000  0.500000000  0.286010579
     0.500000000  0.375000000  0.393005289
     0.250000000  0.500000000  0.393005289
     0.250000000  0.375000000  0.500000000
     0.500000000  0.500000000  0.500000000
     0.499677019  0.376811233  0.606364643
     0.249940222  0.500046026  0.609924593
     0.250817760  0.374949668  0.720025121
     0.502339483  0.499704117  0.713758471
     0.750000000  0.750000000  0.244210511
     0.750000000  0.750000000  0.327810646
     0.097668537  0.625000000  0.286010579
     0.902331463  0.625000000  0.286010579
     0.000000000  0.750000000  0.351205222
     0.000000000  0.750000000  0.434805357
     0.847668537  0.625000000  0.393005289
     0.152331463  0.625000000  0.393005289
     0.750000000  0.750000000  0.458199933
     0.750000000  0.750000000  0.541800067
     0.097668537  0.625000000  0.500000000
     0.902331463  0.625000000  0.500000000
     0.000064858  0.750141889  0.565422294
     0.998942392  0.749803404  0.649241238
     0.849688330  0.625238313  0.606736082
     0.150074925  0.625141386  0.607465681
     0.753512190  0.750823595  0.672154246
     0.748207005  0.748896808  0.755834404
     0.093536775  0.625264296  0.719343758
     0.906489845  0.624070726  0.720711243
     0.750000000  0.000000000  0.244210511
     0.750000000  0.000000000  0.327810646
     0.097668537  0.875000000  0.286010579
     0.902331463  0.875000000  0.286010579
     0.000000000  0.000000000  0.351205222
     0.000000000  0.000000000  0.434805357
     0.847668537  0.875000000  0.393005289
     0.152331463  0.875000000  0.393005289
     0.750000000  0.000000000  0.458199933
     0.750000000  0.000000000  0.541800067
     0.097668537  0.875000000  0.500000000
     0.902331463  0.875000000  0.500000000
     0.000125189  0.999988796  0.565438219
     0.999286694  0.000024420  0.649188413
     0.849427173  0.875397112  0.607036240
     0.149983728  0.874750441  0.607492355
     0.750419973  0.999941717  0.672456444
     0.749536960  0.999924001  0.756221185
     0.093134943  0.874589652  0.719213959
     0.906583109  0.875068514  0.720082352
     0.750000000  0.250000000  0.244210511
     0.750000000  0.250000000  0.327810646
     0.097668537  0.125000000  0.286010579
     0.902331463  0.125000000  0.286010579
     0.000000000  0.250000000  0.351205222
     0.000000000  0.250000000  0.434805357
     0.847668537  0.125000000  0.393005289
     0.152331463  0.125000000  0.393005289
     0.750000000  0.250000000  0.458199933
     0.750000000  0.250000000  0.541800067
     0.097668537  0.125000000  0.500000000
     0.902331463  0.125000000  0.500000000
     0.000047215  0.249921339  0.565422017
     0.998992397  0.250215588  0.649231803
     0.849416406  0.124648936  0.607044929
     0.149932645  0.125151948  0.607404455
     0.753378825  0.249222720  0.672131037
     0.748597342  0.250999708  0.755728631
     0.093070866  0.125383408  0.719296641
     0.906569323  0.124919449  0.719999850
     0.750000000  0.500000000  0.244210511
     0.750000000  0.500000000  0.327810646
     0.097668537  0.375000000  0.286010579
     0.902331463  0.375000000  0.286010579
     0.000000000  0.500000000  0.351205222
     0.000000000  0.500000000  0.434805357
     0.847668537  0.375000000  0.393005289
     0.152331463  0.375000000  0.393005289
     0.750000000  0.500000000  0.458199933
     0.750000000  0.500000000  0.541800067
     0.097668537  0.375000000  0.500000000
     0.902331463  0.375000000  0.500000000
     0.000187831  0.500023314  0.565393415
     0.999250126  0.500047684  0.649156287
     0.849673191  0.374818590  0.606749096
     0.150060230  0.375025575  0.607446928
     0.755550674  0.500101748  0.672184628
     0.737016033  0.499934110  0.756219511
     0.093472400  0.374861249  0.719299141
     0.906518368  0.375992320  0.720669997
     0.250000000  0.750000000  0.244210511
     0.250000000  0.750000000  0.327810646
     0.597668537  0.625000000  0.286010579
     0.402331463  0.625000000  0.286010579
     0.500000000  0.750000000  0.351205222
     0.500000000  0.750000000  0.434805357
     0.347668537  0.625000000  0.393005289
     0.652331463  0.625000000  0.393005289
     0.250000000  0.750000000  0.458199933
     0.250000000  0.750000000  0.541800067
     0.597668537  0.625000000  0.500000000
     0.402331463  0.625000000  0.500000000
     0.500265108  0.748894964  0.565266762
     0.497173144  0.751359835  0.648209787
     0.348871830  0.624936772  0.607102699
     0.650866932  0.625077517  0.607929058
     0.251015578  0.749755539  0.672358484
     0.249980068  0.750139942  0.756166727
     0.595999229  0.629785748  0.713874426
     0.408305281  0.625797918  0.720883531
     0.250000000  0.000000000  0.244210511
     0.250000000  0.000000000  0.327810646
     0.597668537  0.875000000  0.286010579
     0.402331463  0.875000000  0.286010579
     0.500000000  0.000000000  0.351205222
     0.500000000  0.000000000  0.434805357
     0.347668537  0.875000000  0.393005289
     0.652331463  0.875000000  0.393005289
     0.250000000  0.000000000  0.458199933
     0.250000000  0.000000000  0.541800067
     0.597668537  0.875000000  0.500000000
     0.402331463  0.875000000  0.500000000
     0.500037597  0.000085617  0.564955753
     0.499647152  0.999982634  0.648370779
     0.348931267  0.875318141  0.606874155
     0.650418406  0.874762327  0.607367059
     0.249491348  0.999973710  0.672251747
     0.249081901  0.000020866  0.756073236
     0.593505888  0.875036065  0.718757534
     0.406417907  0.876048045  0.719163516
     0.250000000  0.250000000  0.244210511
     0.250000000  0.250000000  0.327810646
     0.597668537  0.125000000  0.286010579
     0.402331463  0.125000000  0.286010579
     0.500000000  0.250000000  0.351205222
     0.500000000  0.250000000  0.434805357
     0.347668537  0.125000000  0.393005289
     0.652331463  0.125000000  0.393005289
     0.250000000  0.250000000  0.458199933
     0.250000000  0.250000000  0.541800067
     0.597668537  0.125000000  0.500000000
     0.402331463  0.125000000  0.500000000
     0.500200105  0.251276624  0.565343955
     0.497720991  0.248465156  0.648370950
     0.348925575  0.124761667  0.606937223
     0.650468206  0.125223258  0.607340203
     0.250090446  0.249972571  0.672272912
     0.250117729  0.250024313  0.756032758
     0.593559777  0.124872410  0.718768237
     0.406370691  0.124145347  0.719077457
     0.250000000  0.500000000  0.244210511
     0.250000000  0.500000000  0.327810646
     0.597668537  0.375000000  0.286010579
     0.402331463  0.375000000  0.286010579
     0.500000000  0.500000000  0.351205222
     0.500000000  0.500000000  0.434805357
     0.347668537  0.375000000  0.393005289
     0.652331463  0.375000000  0.393005289
     0.250000000  0.500000000  0.458199933
     0.250000000  0.500000000  0.541800067
     0.597668537  0.375000000  0.500000000
     0.402331463  0.375000000  0.500000000
     0.500326220  0.499854426  0.565617891
     0.498345562  0.500401799  0.649900702
     0.348879159  0.375067205  0.607270082
     0.650846232  0.375049777  0.607984090
     0.250228490  0.500357978  0.672435622
     0.250680425  0.499974609  0.756154968
     0.596050209  0.370936448  0.713775631
     0.407445503  0.374120707  0.719228387

  ion indices of the primitive-cell ions
   primitive index   ion index
                 1           1
                 2           2
                 3           3
                 4           4
                 5           5
                 6           6
                 7           7
                 8           8
                 9           9
                10          10
                11          11
                12          12
                13          13
                14          14
                15          15
                16          16
                17          17
                18          18
                19          19
                20          20
                21          21
                22          22
                23          23
                24          24
                25          25
                26          26
                27          27
                28          28
                29          29
                30          30
                31          31
                32          32
                33          33
                34          34
                35          35
                36          36
                37          37
                38          38
                39          39
                40          40
                41          41
                42          42
                43          43
                44          44
                45          45
                46          46
                47          47
                48          48
                49          49
                50          50
                51          51
                52          52
                53          53
                54          54
                55          55
                56          56
                57          57
                58          58
                59          59
                60          60
                61          61
                62          62
                63          63
                64          64
                65          65
                66          66
                67          67
                68          68
                69          69
                70          70
                71          71
                72          72
                73          73
                74          74
                75          75
                76          76
                77          77
                78          78
                79          79
                80          80
                81          81
                82          82
                83          83
                84          84
                85          85
                86          86
                87          87
                88          88
                89          89
                90          90
                91          91
                92          92
                93          93
                94          94
                95          95
                96          96
                97          97
                98          98
                99          99
               100         100
               101         101
               102         102
               103         103
               104         104
               105         105
               106         106
               107         107
               108         108
               109         109
               110         110
               111         111
               112         112
               113         113
               114         114
               115         115
               116         116
               117         117
               118         118
               119         119
               120         120
               121         121
               122         122
               123         123
               124         124
               125         125
               126         126
               127         127
               128         128
               129         129
               130         130
               131         131
               132         132
               133         133
               134         134
               135         135
               136         136
               137         137
               138         138
               139         139
               140         140
               141         141
               142         142
               143         143
               144         144
               145         145
               146         146
               147         147
               148         148
               149         149
               150         150
               151         151
               152         152
               153         153
               154         154
               155         155
               156         156
               157         157
               158         158
               159         159
               160         160
               161         161
               162         162
               163         163
               164         164
               165         165
               166         166
               167         167
               168         168
               169         169
               170         170
               171         171
               172         172
               173         173
               174         174
               175         175
               176         176
               177         177
               178         178
               179         179
               180         180
               181         181
               182         182
               183         183
               184         184
               185         185
               186         186
               187         187
               188         188
               189         189
               190         190
               191         191
               192         192
               193         193
               194         194
               195         195
               196         196
               197         197
               198         198
               199         199
               200         200
               201         201
               202         202
               203         203
               204         204
               205         205
               206         206
               207         207
               208         208
               209         209
               210         210
               211         211
               212         212
               213         213
               214         214
               215         215
               216         216
               217         217
               218         218
               219         219
               220         220
               221         221
               222         222
               223         223
               224         224
               225         225
               226         226
               227         227
               228         228
               229         229
               230         230
               231         231
               232         232
               233         233
               234         234
               235         235
               236         236
               237         237
               238         238
               239         239
               240         240

----------------------------------------------------------------------------------------

 
 
 KPOINTS: pymatgen v2020.8.13 with grid density = 

Automatic generation of k-mesh.
 Grid dimensions read from file:
 generate k-points for:    2    2    1

 Generating k-lattice:

  Cartesian coordinates                     Fractional coordinates (reciprocal lattice)
     0.038040901  0.000000000  0.000000000     0.500000000  0.000000000  0.000000000
     0.000000000  0.041305606  0.000000000     0.000000000  0.500000000  0.000000000
     0.000000000  0.000000000  0.032561401     0.000000000  0.000000000  1.000000000

  Length of vectors
     0.038040901  0.041305606  0.032561401

  Shift w.r.t. Gamma in fractional coordinates (k-lattice)
     0.000000000  0.000000000  0.000000000

 
 Subroutine IBZKPT returns following result:
 ===========================================
 
 Found      4 irreducible k-points:
 
 Following reciprocal coordinates:
            Coordinates               Weight
  0.000000  0.000000  0.000000      1.000000
  0.500000  0.000000  0.000000      1.000000
  0.000000  0.500000  0.000000      1.000000
  0.500000  0.500000  0.000000      1.000000
 
 Following cartesian coordinates:
            Coordinates               Weight
  0.000000  0.000000  0.000000      1.000000
  0.038041  0.000000  0.000000      1.000000
  0.000000  0.041306  0.000000      1.000000
  0.038041  0.041306  0.000000      1.000000
 


--------------------------------------------------------------------------------------------------------




 Dimension of arrays:
   k-points           NKPTS =      4   k-points in BZ     NKDIM =      4   number of bands    NBANDS=   1064
   number of dos      NEDOS =    301   number of ions     NIONS =    240
   non local maximal  LDIM  =      6   non local SUM 2l+1 LMDIM =     18
   total plane-waves  NPLWV = ******
   max r-space proj   IRMAX =      1   max aug-charges    IRDMAX=  21221
   dimension x,y,z NGX =   108 NGY =   98 NGZ =  250
   dimension x,y,z NGXF=   216 NGYF=  196 NGZF=  500
   support grid    NGXF=   216 NGYF=  196 NGZF=  500
   ions per type =              80 160
   NGX,Y,Z   is equivalent  to a cutoff of  13.66, 13.46, 13.53 a.u.
   NGXF,Y,Z  is equivalent  to a cutoff of  27.32, 26.92, 27.07 a.u.

 SYSTEM =  TiO2                                    
 POSCAR =  Ti  O                                   

--------------------------------------------------------------------------------------------------------


  energy-cutoff  :      600.00
  volume of cell :     4886.27
      direct lattice vectors                 reciprocal lattice vectors
    13.143747607  0.000000000  0.000000000     0.076081802  0.000000000  0.000000000
     0.000000000 12.104894358  0.000000000     0.000000000  0.082611212  0.000000000
     0.000000000  0.000000000 30.711208800     0.000000000  0.000000000  0.032561401

  length of vectors
    13.143747607 12.104894358 30.711208800     0.076081802  0.082611212  0.032561401


 
 k-points in units of 2pi/SCALE and weight: pymatgen v2020.8.13 with grid density = 
   0.00000000  0.00000000  0.00000000       0.250
   0.03804090  0.00000000  0.00000000       0.250
   0.00000000  0.04130561  0.00000000       0.250
   0.03804090  0.04130561  0.00000000       0.250
 
 k-points in reciprocal lattice and weights: pymatgen v2020.8.13 with grid density = 
   0.00000000  0.00000000  0.00000000       0.250
   0.50000000  0.00000000  0.00000000       0.250
   0.00000000  0.50000000  0.00000000       0.250
   0.50000000  0.50000000  0.00000000       0.250
 
 position of ions in fractional coordinates (direct lattice) 
   0.75000000  0.62500000  0.28601058
   0.00000000  0.75000000  0.28601058
   0.00000000  0.62500000  0.39300529
   0.75000000  0.75000000  0.39300529
   0.75000000  0.62500000  0.50000000
   0.00000000  0.75000000  0.50000000
   0.99994574  0.62504193  0.60511871
   0.75007500  0.75008407  0.60943070
   0.75027603  0.62643110  0.71872893
   0.99965580  0.74997585  0.70992579
   0.75000000  0.87500000  0.28601058
   0.00000000  0.00000000  0.28601058
   0.00000000  0.87500000  0.39300529
   0.75000000  0.00000000  0.39300529
   0.75000000  0.87500000  0.50000000
   0.00000000  0.00000000  0.50000000
   0.99978105  0.87502252  0.60519478
   0.74955936  0.00001923  0.60974520
   0.74977965  0.87534629  0.72000436
   0.99992287  0.00001194  0.70986627
   0.75000000  0.12500000  0.28601058
   0.00000000  0.25000000  0.28601058
   0.00000000  0.12500000  0.39300529
   0.75000000  0.25000000  0.39300529
   0.75000000  0.12500000  0.50000000
   0.00000000  0.25000000  0.50000000
   0.99977651  0.12500503  0.60517986
   0.75003616  0.24996108  0.60940719
   0.74972738  0.12453697  0.71998791
   0.99970367  0.25004087  0.70991344
   0.75000000  0.37500000  0.28601058
   0.00000000  0.50000000  0.28601058
   0.00000000  0.37500000  0.39300529
   0.75000000  0.50000000  0.39300529
   0.75000000  0.37500000  0.50000000
   0.00000000  0.50000000  0.50000000
   0.99993814  0.37501812  0.60512216
   0.75036620  0.50003733  0.60965147
   0.75053617  0.37337833  0.71872372
   0.00074701  0.50006109  0.70983737
   0.25000000  0.62500000  0.28601058
   0.50000000  0.75000000  0.28601058
   0.50000000  0.62500000  0.39300529
   0.25000000  0.75000000  0.39300529
   0.25000000  0.62500000  0.50000000
   0.50000000  0.75000000  0.50000000
   0.49971858  0.62312577  0.60615527
   0.25001349  0.74993462  0.60979209
   0.25087611  0.62511818  0.72014448
   0.49966805  0.75068934  0.70860236
   0.25000000  0.87500000  0.28601058
   0.50000000  0.00000000  0.28601058
   0.50000000  0.87500000  0.39300529
   0.25000000  0.00000000  0.39300529
   0.25000000  0.87500000  0.50000000
   0.50000000  0.00000000  0.50000000
   0.49940984  0.87445610  0.60429834
   0.24960577  0.00001649  0.60978938
   0.25023766  0.87513659  0.72001268
   0.49980943  0.00016317  0.70895374
   0.25000000  0.12500000  0.28601058
   0.50000000  0.25000000  0.28601058
   0.50000000  0.12500000  0.39300529
   0.25000000  0.25000000  0.39300529
   0.25000000  0.12500000  0.50000000
   0.50000000  0.25000000  0.50000000
   0.49941590  0.12574466  0.60439344
   0.24989573  0.25007850  0.60979497
   0.25017547  0.12496498  0.71998376
   0.49964240  0.24966120  0.70891195
   0.25000000  0.37500000  0.28601058
   0.50000000  0.50000000  0.28601058
   0.50000000  0.37500000  0.39300529
   0.25000000  0.50000000  0.39300529
   0.25000000  0.37500000  0.50000000
   0.50000000  0.50000000  0.50000000
   0.49967702  0.37681123  0.60636464
   0.24994022  0.50004603  0.60992459
   0.25081776  0.37494967  0.72002512
   0.50233948  0.49970412  0.71375847
   0.75000000  0.75000000  0.24421051
   0.75000000  0.75000000  0.32781065
   0.09766854  0.62500000  0.28601058
   0.90233146  0.62500000  0.28601058
   0.00000000  0.75000000  0.35120522
   0.00000000  0.75000000  0.43480536
   0.84766854  0.62500000  0.39300529
   0.15233146  0.62500000  0.39300529
   0.75000000  0.75000000  0.45819993
   0.75000000  0.75000000  0.54180007
   0.09766854  0.62500000  0.50000000
   0.90233146  0.62500000  0.50000000
   0.00006486  0.75014189  0.56542229
   0.99894239  0.74980340  0.64924124
   0.84968833  0.62523831  0.60673608
   0.15007493  0.62514139  0.60746568
   0.75351219  0.75082359  0.67215425
   0.74820701  0.74889681  0.75583440
   0.09353677  0.62526430  0.71934376
   0.90648985  0.62407073  0.72071124
   0.75000000  0.00000000  0.24421051
   0.75000000  0.00000000  0.32781065
   0.09766854  0.87500000  0.28601058
   0.90233146  0.87500000  0.28601058
   0.00000000  0.00000000  0.35120522
   0.00000000  0.00000000  0.43480536
   0.84766854  0.87500000  0.39300529
   0.15233146  0.87500000  0.39300529
   0.75000000  0.00000000  0.45819993
   0.75000000  0.00000000  0.54180007
   0.09766854  0.87500000  0.50000000
   0.90233146  0.87500000  0.50000000
   0.00012519  0.99998880  0.56543822
   0.99928669  0.00002442  0.64918841
   0.84942717  0.87539711  0.60703624
   0.14998373  0.87475044  0.60749235
   0.75041997  0.99994172  0.67245644
   0.74953696  0.99992400  0.75622118
   0.09313494  0.87458965  0.71921396
   0.90658311  0.87506851  0.72008235
   0.75000000  0.25000000  0.24421051
   0.75000000  0.25000000  0.32781065
   0.09766854  0.12500000  0.28601058
   0.90233146  0.12500000  0.28601058
   0.00000000  0.25000000  0.35120522
   0.00000000  0.25000000  0.43480536
   0.84766854  0.12500000  0.39300529
   0.15233146  0.12500000  0.39300529
   0.75000000  0.25000000  0.45819993
   0.75000000  0.25000000  0.54180007
   0.09766854  0.12500000  0.50000000
   0.90233146  0.12500000  0.50000000
   0.00004721  0.24992134  0.56542202
   0.99899240  0.25021559  0.64923180
   0.84941641  0.12464894  0.60704493
   0.14993265  0.12515195  0.60740446
   0.75337882  0.24922272  0.67213104
   0.74859734  0.25099971  0.75572863
   0.09307087  0.12538341  0.71929664
   0.90656932  0.12491945  0.71999985
   0.75000000  0.50000000  0.24421051
   0.75000000  0.50000000  0.32781065
   0.09766854  0.37500000  0.28601058
   0.90233146  0.37500000  0.28601058
   0.00000000  0.50000000  0.35120522
   0.00000000  0.50000000  0.43480536
   0.84766854  0.37500000  0.39300529
   0.15233146  0.37500000  0.39300529
   0.75000000  0.50000000  0.45819993
   0.75000000  0.50000000  0.54180007
   0.09766854  0.37500000  0.50000000
   0.90233146  0.37500000  0.50000000
   0.00018783  0.50002331  0.56539342
   0.99925013  0.50004768  0.64915629
   0.84967319  0.37481859  0.60674910
   0.15006023  0.37502558  0.60744693
   0.75555067  0.50010175  0.67218463
   0.73701603  0.49993411  0.75621951
   0.09347240  0.37486125  0.71929914
   0.90651837  0.37599232  0.72067000
   0.25000000  0.75000000  0.24421051
   0.25000000  0.75000000  0.32781065
   0.59766854  0.62500000  0.28601058
   0.40233146  0.62500000  0.28601058
   0.50000000  0.75000000  0.35120522
   0.50000000  0.75000000  0.43480536
   0.34766854  0.62500000  0.39300529
   0.65233146  0.62500000  0.39300529
   0.25000000  0.75000000  0.45819993
   0.25000000  0.75000000  0.54180007
   0.59766854  0.62500000  0.50000000
   0.40233146  0.62500000  0.50000000
   0.50026511  0.74889496  0.56526676
   0.49717314  0.75135984  0.64820979
   0.34887183  0.62493677  0.60710270
   0.65086693  0.62507752  0.60792906
   0.25101558  0.74975554  0.67235848
   0.24998007  0.75013994  0.75616673
   0.59599923  0.62978575  0.71387443
   0.40830528  0.62579792  0.72088353
   0.25000000  0.00000000  0.24421051
   0.25000000  0.00000000  0.32781065
   0.59766854  0.87500000  0.28601058
   0.40233146  0.87500000  0.28601058
   0.50000000  0.00000000  0.35120522
   0.50000000  0.00000000  0.43480536
   0.34766854  0.87500000  0.39300529
   0.65233146  0.87500000  0.39300529
   0.25000000  0.00000000  0.45819993
   0.25000000  0.00000000  0.54180007
   0.59766854  0.87500000  0.50000000
   0.40233146  0.87500000  0.50000000
   0.50003760  0.00008562  0.56495575
   0.49964715  0.99998263  0.64837078
   0.34893127  0.87531814  0.60687416
   0.65041841  0.87476233  0.60736706
   0.24949135  0.99997371  0.67225175
   0.24908190  0.00002087  0.75607324
   0.59350589  0.87503607  0.71875753
   0.40641791  0.87604805  0.71916352
   0.25000000  0.25000000  0.24421051
   0.25000000  0.25000000  0.32781065
   0.59766854  0.12500000  0.28601058
   0.40233146  0.12500000  0.28601058
   0.50000000  0.25000000  0.35120522
   0.50000000  0.25000000  0.43480536
   0.34766854  0.12500000  0.39300529
   0.65233146  0.12500000  0.39300529
   0.25000000  0.25000000  0.45819993
   0.25000000  0.25000000  0.54180007
   0.59766854  0.12500000  0.50000000
   0.40233146  0.12500000  0.50000000
   0.50020011  0.25127662  0.56534395
   0.49772099  0.24846516  0.64837095
   0.34892557  0.12476167  0.60693722
   0.65046821  0.12522326  0.60734020
   0.25009045  0.24997257  0.67227291
   0.25011773  0.25002431  0.75603276
   0.59355978  0.12487241  0.71876824
   0.40637069  0.12414535  0.71907746
   0.25000000  0.50000000  0.24421051
   0.25000000  0.50000000  0.32781065
   0.59766854  0.37500000  0.28601058
   0.40233146  0.37500000  0.28601058
   0.50000000  0.50000000  0.35120522
   0.50000000  0.50000000  0.43480536
   0.34766854  0.37500000  0.39300529
   0.65233146  0.37500000  0.39300529
   0.25000000  0.50000000  0.45819993
   0.25000000  0.50000000  0.54180007
   0.59766854  0.37500000  0.50000000
   0.40233146  0.37500000  0.50000000
   0.50032622  0.49985443  0.56561789
   0.49834556  0.50040180  0.64990070
   0.34887916  0.37506721  0.60727008
   0.65084623  0.37504978  0.60798409
   0.25022849  0.50035798  0.67243562
   0.25068042  0.49997461  0.75615497
   0.59605021  0.37093645  0.71377563
   0.40744550  0.37412071  0.71922839
 
 position of ions in cartesian coordinates  (Angst):
   9.85781071  7.56555897  8.78373060
   0.00000000  9.07867077  8.78373060
   0.00000000  7.56555897 12.06966750
   9.85781071  9.07867077 12.06966750
   9.85781071  7.56555897 15.35560440
   0.00000000  9.07867077 15.35560440
  13.14303449  7.56606650 18.58392696
   9.85879643  9.07968842 18.71635354
   9.86143880  7.58288224 22.07303431
  13.13922355  9.07837845 21.80267908
   9.85781071 10.59178256  8.78373060
   0.00000000  0.00000000  8.78373060
   0.00000000 10.59178256 12.06966750
   9.85781071  0.00000000 12.06966750
   9.85781071 10.59178256 15.35560440
   0.00000000  0.00000000 15.35560440
  13.14086980 10.59205520 18.58626339
   9.85201907  0.00023280 18.72601224
   9.85491444 10.59597439 22.11220438
  13.14273380  0.00014454 21.80085137
   9.85781071  1.51311179  8.78373060
   0.00000000  3.02622359  8.78373060
   0.00000000  1.51311179 12.06966750
   9.85781071  3.02622359 12.06966750
   9.85781071  1.51311179 15.35560440
   0.00000000  3.02622359 15.35560440
  13.14081005  1.51317274 18.58580498
   9.85828600  3.02575247 18.71563143
   9.85422748  1.50750685 22.11169904
  13.13985270  3.02671826 21.80229977
   9.85781071  4.53933538  8.78373060
   0.00000000  6.05244718  8.78373060
   0.00000000  4.53933538 12.06966750
   9.85781071  6.05244718 12.06966750
   9.85781071  4.53933538 15.35560440
   0.00000000  6.05244718 15.35560440
  13.14293456  4.53955478 18.58403308
   9.86262398  6.05289911 18.72313350
   9.86485796  4.51970521 22.07287425
   0.00981854  6.05318670 21.79996380
   3.28593690  7.56555897  8.78373060
   6.57187380  9.07867077  8.78373060
   6.57187380  7.56555897 12.06966750
   3.28593690  9.07867077 12.06966750
   3.28593690  7.56555897 15.35560440
   6.57187380  9.07867077 15.35560440
   6.56817485  7.54287165 18.61576120
   3.28611426  9.07787930 18.72745234
   3.29745224  7.56698951 22.11650746
   6.56751080  9.08701518 21.76203493
   3.28593690 10.59178256  8.78373060
   6.57187380  0.00000000  8.78373060
   6.57187380 10.59178256 12.06966750
   3.28593690  0.00000000 12.06966750
   3.28593690 10.59178256 15.35560440
   6.57187380  0.00000000 15.35560440
   6.56411685 10.58519872 18.55873237
   3.28075529  0.00019965 18.72736895
   3.28906071 10.59343598 22.11245976
   6.56936902  0.00197513 21.77282644
   3.28593690  1.51311179  8.78373060
   6.57187380  3.02622359  8.78373060
   6.57187380  1.51311179 12.06966750
   3.28593690  3.02622359 12.06966750
   3.28593690  1.51311179 15.35560440
   6.57187380  3.02622359 15.35560440
   6.56419649  1.52212578 18.56165308
   3.28456639  3.02717385 18.72754078
   3.28824326  1.51268791 22.11157157
   6.56717363  3.02212248 21.77154291
   3.28593690  4.53933538  8.78373060
   6.57187380  6.05244718  8.78373060
   6.57187380  4.53933538 12.06966750
   3.28593690  6.05244718 12.06966750
   3.28593690  4.53933538 15.35560440
   6.57187380  6.05244718 15.35560440
   6.56762862  4.56126016 18.62219117
   3.28515120  6.05300432 18.73152153
   3.29668533  4.53872613 22.11284185
   6.60262338  6.04886555 21.92038543
   9.85781071  9.07867077  7.50000000
   9.85781071  9.07867077 10.06746119
   1.28373060  7.56555897  8.78373060
  11.86001701  7.56555897  8.78373060
   0.00000000  9.07867077 10.78593690
   0.00000000  9.07867077 13.35339810
  11.14154130  7.56555897 12.06966750
   2.00220631  7.56555897 12.06966750
   9.85781071  9.07867077 14.07187380
   9.85781071  9.07867077 16.63933500
   1.28373060  7.56555897 15.35560440
  11.86001701  7.56555897 15.35560440
   0.00085247  9.08038832 17.36480215
  13.12984668  9.07629100 19.93898322
  11.16808896  7.56844373 18.63359850
   1.97254694  7.56727043 18.65600536
   9.90397404  9.08864029 20.64266939
   9.83424404  9.06531675 23.21258819
   1.22942376  7.56875825 22.09191635
  11.91467373  7.55431021 22.13391347
   9.85781071  0.00000000  7.50000000
   9.85781071  0.00000000 10.06746119
   1.28373060 10.59178256  8.78373060
  11.86001701 10.59178256  8.78373060
   0.00000000  0.00000000 10.78593690
   0.00000000  0.00000000 13.35339810
  11.14154130 10.59178256 12.06966750
   2.00220631 10.59178256 12.06966750
   9.85781071  0.00000000 14.07187380
   9.85781071  0.00000000 16.63933500
   1.28373060 10.59178256 15.35560440
  11.86001701 10.59178256 15.35560440
   0.00164545 12.10475874 17.36529119
  13.13437209  0.00029561 19.93736090
  11.16465637 10.59658957 18.64281673
   1.97134827 10.58876167 18.65682455
   9.86333072 12.10418885 20.65195026
   9.85172462 12.10397440 23.22446670
   1.22414218 10.58681535 22.08793007
  11.91589957 10.59261192 22.11459946
   9.85781071  3.02622359  7.50000000
   9.85781071  3.02622359 10.06746119
   1.28373060  1.51311179  8.78373060
  11.86001701  1.51311179  8.78373060
   0.00000000  3.02622359 10.78593690
   0.00000000  3.02622359 13.35339810
  11.14154130  1.51311179 12.06966750
   2.00220631  1.51311179 12.06966750
   9.85781071  3.02622359 14.07187380
   9.85781071  3.02622359 16.63933500
   1.28373060  1.51311179 15.35560440
  11.86001701  1.51311179 15.35560440
   0.00062058  3.02527141 17.36479362
  13.13050392  3.02883326 19.93869346
  11.16451485  1.50886221 18.64308357
   1.97067684  1.51495111 18.65412505
   9.90222112  3.01681469 20.64195663
   9.83937452  3.03832495 23.20933977
   1.22329997  1.51775290 22.09046934
  11.91571837  1.51213673 22.11206572
   9.85781071  6.05244718  7.50000000
   9.85781071  6.05244718 10.06746119
   1.28373060  4.53933538  8.78373060
  11.86001701  4.53933538  8.78373060
   0.00000000  6.05244718 10.78593690
   0.00000000  6.05244718 13.35339810
  11.14154130  4.53933538 12.06966750
   2.00220631  4.53933538 12.06966750
   9.85781071  6.05244718 14.07187380
   9.85781071  6.05244718 16.63933500
   1.28373060  4.53933538 15.35560440
  11.86001701  4.53933538 15.35560440
   0.00246880  6.05272940 17.36391523
  13.13389146  6.05302439 19.93637428
  11.16788997  4.53713943 18.63399817
   1.97235379  4.53964497 18.65542943
   9.93076736  6.05367882 20.64360247
   9.68715272  6.05164958 23.22441531
   1.22857764  4.53765581 22.09054610
  11.91504863  4.55134731 22.13264677
   3.28593690  9.07867077  7.50000000
   3.28593690  9.07867077 10.06746119
   7.85560440  7.56555897  8.78373060
   5.28814321  7.56555897  8.78373060
   6.57187380  9.07867077 10.78593690
   6.57187380  9.07867077 13.35339810
   4.56966750  7.56555897 12.06966750
   8.57408011  7.56555897 12.06966750
   3.28593690  9.07867077 14.07187380
   3.28593690  9.07867077 16.63933500
   7.85560440  7.56555897 15.35560440
   5.28814321  7.56555897 15.35560440
   6.57535832  9.06529442 17.36002556
   6.53471832  9.09513143 19.90730611
   4.58548328  7.56479361 18.64485775
   8.55483068  7.56649731 18.67023623
   3.29928540  9.07571160 20.64894179
   3.28567492  9.08036476 23.22279425
   7.83366344  7.62348994 21.92394655
   5.36666156  7.57521769 22.13920463
   3.28593690  0.00000000  7.50000000
   3.28593690  0.00000000 10.06746119
   7.85560440 10.59178256  8.78373060
   5.28814321 10.59178256  8.78373060
   6.57187380  0.00000000 10.78593690
   6.57187380  0.00000000 13.35339810
   4.56966750 10.59178256 12.06966750
   8.57408011 10.59178256 12.06966750
   3.28593690  0.00000000 14.07187380
   3.28593690  0.00000000 16.63933500
   7.85560440 10.59178256 15.35560440
   5.28814321 10.59178256 15.35560440
   6.57236797  0.00103639 17.35047408
   6.56723606 12.10468415 19.91225037
   4.58626451 10.59563363 18.63783890
   8.54893536 10.58890555 18.65297657
   3.27925131 12.10457612 20.64566377
   3.27386964  0.00025258 23.21992303
   7.80089159 10.59221913 22.07391271
   5.34185439 10.60446904 22.08638091
   3.28593690  3.02622359  7.50000000
   3.28593690  3.02622359 10.06746119
   7.85560440  1.51311179  8.78373060
   5.28814321  1.51311179  8.78373060
   6.57187380  3.02622359 10.78593690
   6.57187380  3.02622359 13.35339810
   4.56966750  1.51311179 12.06966750
   8.57408011  1.51311179 12.06966750
   3.28593690  3.02622359 14.07187380
   3.28593690  3.02622359 16.63933500
   7.85560440  1.51311179 15.35560440
   5.28814321  1.51311179 15.35560440
   6.57450393  3.04167698 17.36239624
   6.54191908  3.00764447 19.91225562
   4.58618969  1.51022680 18.63977577
   8.54958993  1.51581431 18.65215179
   3.28712570  3.02589157 20.64631379
   3.28748430  3.02651790 23.21867989
   7.80159989  1.51156734 22.07424141
   5.34123379  1.50276632 22.08373792
   3.28593690  6.05244718  7.50000000
   3.28593690  6.05244718 10.06746119
   7.85560440  4.53933538  8.78373060
   5.28814321  4.53933538  8.78373060
   6.57187380  6.05244718 10.78593690
   6.57187380  6.05244718 13.35339810
   4.56966750  4.53933538 12.06966750
   8.57408011  4.53933538 12.06966750
   3.28593690  6.05244718 14.07187380
   3.28593690  6.05244718 16.63933500
   7.85560440  4.53933538 15.35560440
   5.28814321  4.53933538 15.35560440
   6.57616156  6.05068502 17.37080914
   6.55012828  6.05731091 19.95923615
   4.58557961  4.54014890 18.64999829
   8.55455861  4.53993793 18.67192633
   3.28894012  6.05678046 20.65131080
   3.29488023  6.05213983 23.22243310
   7.83433350  4.49014651 21.92091245
   5.35536086  4.52869163 22.08837318
 


--------------------------------------------------------------------------------------------------------

--------------------------------------- Iteration      FINAL  ---------------------------------------


--------------------OUTCAR has been truncated-------------------------


--------------------OUTCAR has been truncated-------------------------


--------------------OUTCAR has been truncated-------------------------


--------------------OUTCAR has been truncated-------------------------


--------------------OUTCAR has been truncated-------------------------


--------------------OUTCAR has been truncated-------------------------


--------------------OUTCAR has been truncated-------------------------


--------------------OUTCAR has been truncated-------------------------


--------------------OUTCAR has been truncated-------------------------


--------------------OUTCAR has been truncated-------------------------


  Hirshfeld charges:
            ion         q(e)     
   ------------------------------
      1     Ti          0.751
      2     Ti          0.923
      3     Ti          0.818
      4     Ti          0.806
      5     Ti          0.805
      6     Ti          0.816
      7     Ti          0.819
      8     Ti          0.804
      9     Ti          0.780
     10     Ti          0.883
     11     Ti          0.751
     12     Ti          0.923
     13     Ti          0.818
     14     Ti          0.806
     15     Ti          0.805
     16     Ti          0.816
     17     Ti          0.820
     18     Ti          0.804
     19     Ti          0.789
     20     Ti          0.884
     21     Ti          0.751
     22     Ti          0.923
     23     Ti          0.818
     24     Ti          0.806
     25     Ti          0.805
     26     Ti          0.816
     27     Ti          0.820
     28     Ti          0.804
     29     Ti          0.789
     30     Ti          0.883
     31     Ti          0.751
     32     Ti          0.923
     33     Ti          0.818
     34     Ti          0.806
     35     Ti          0.805
     36     Ti          0.816
     37     Ti          0.819
     38     Ti          0.802
     39     Ti          0.780
     40     Ti          0.880
     41     Ti          0.751
     42     Ti          0.923
     43     Ti          0.818
     44     Ti          0.806
     45     Ti          0.805
     46     Ti          0.815
     47     Ti          0.820
     48     Ti          0.804
     49     Ti          0.789
     50     Ti          0.878
     51     Ti          0.751
     52     Ti          0.923
     53     Ti          0.818
     54     Ti          0.806
     55     Ti          0.805
     56     Ti          0.815
     57     Ti          0.820
     58     Ti          0.803
     59     Ti          0.789
     60     Ti          0.879
     61     Ti          0.751
     62     Ti          0.923
     63     Ti          0.818
     64     Ti          0.806
     65     Ti          0.805
     66     Ti          0.815
     67     Ti          0.820
     68     Ti          0.804
     69     Ti          0.790
     70     Ti          0.881
     71     Ti          0.751
     72     Ti          0.923
     73     Ti          0.818
     74     Ti          0.806
     75     Ti          0.805
     76     Ti          0.817
     77     Ti          0.820
     78     Ti          0.803
     79     Ti          0.789
     80     Ti          0.925
     81     O          -0.448
     82     O          -0.425
     83     O          -0.408
     84     O          -0.408
     85     O          -0.389
     86     O          -0.401
     87     O          -0.408
     88     O          -0.408
     89     O          -0.411
     90     O          -0.412
     91     O          -0.406
     92     O          -0.406
     93     O          -0.397
     94     O          -0.393
     95     O          -0.408
     96     O          -0.408
     97     O          -0.420
     98     O          -0.418
     99     O          -0.420
    100     O          -0.421
    101     O          -0.448
    102     O          -0.425
    103     O          -0.408
    104     O          -0.408
    105     O          -0.389
    106     O          -0.401
    107     O          -0.408
    108     O          -0.408
    109     O          -0.411
    110     O          -0.412
    111     O          -0.406
    112     O          -0.406
    113     O          -0.397
    114     O          -0.393
    115     O          -0.408
    116     O          -0.409
    117     O          -0.419
    118     O          -0.417
    119     O          -0.420
    120     O          -0.420
    121     O          -0.448
    122     O          -0.425
    123     O          -0.408
    124     O          -0.408
    125     O          -0.389
    126     O          -0.401
    127     O          -0.408
    128     O          -0.408
    129     O          -0.411
    130     O          -0.412
    131     O          -0.406
    132     O          -0.406
    133     O          -0.397
    134     O          -0.392
    135     O          -0.408
    136     O          -0.409
    137     O          -0.420
    138     O          -0.418
    139     O          -0.420
    140     O          -0.420
    141     O          -0.448
    142     O          -0.425
    143     O          -0.408
    144     O          -0.408
    145     O          -0.389
    146     O          -0.401
    147     O          -0.408
    148     O          -0.408
    149     O          -0.411
    150     O          -0.413
    151     O          -0.406
    152     O          -0.406
    153     O          -0.397
    154     O          -0.393
    155     O          -0.408
    156     O          -0.409
    157     O          -0.421
    158     O          -0.433
    159     O          -0.420
    160     O          -0.421
    161     O          -0.448
    162     O          -0.426
    163     O          -0.408
    164     O          -0.408
    165     O          -0.389
    166     O          -0.402
    167     O          -0.408
    168     O          -0.408
    169     O          -0.411
    170     O          -0.412
    171     O          -0.406
    172     O          -0.406
    173     O          -0.398
    174     O          -0.392
    175     O          -0.408
    176     O          -0.408
    177     O          -0.420
    178     O          -0.417
    179     O          -0.416
    180     O          -0.419
    181     O          -0.448
    182     O          -0.426
    183     O          -0.408
    184     O          -0.408
    185     O          -0.389
    186     O          -0.402
    187     O          -0.408
    188     O          -0.408
    189     O          -0.411
    190     O          -0.413
    191     O          -0.406
    192     O          -0.406
    193     O          -0.399
    194     O          -0.393
    195     O          -0.408
    196     O          -0.409
    197     O          -0.419
    198     O          -0.417
    199     O          -0.420
    200     O          -0.422
    201     O          -0.448
    202     O          -0.426
    203     O          -0.408
    204     O          -0.408
    205     O          -0.389
    206     O          -0.401
    207     O          -0.408
    208     O          -0.408
    209     O          -0.411
    210     O          -0.413
    211     O          -0.406
    212     O          -0.406
    213     O          -0.398
    214     O          -0.391
    215     O          -0.408
    216     O          -0.409
    217     O          -0.420
    218     O          -0.418
    219     O          -0.420
    220     O          -0.422
    221     O          -0.448
    222     O          -0.426
    223     O          -0.408
    224     O          -0.408
    225     O          -0.389
    226     O          -0.401
    227     O          -0.408
    228     O          -0.408
    229     O          -0.411
    230     O          -0.413
    231     O          -0.406
    232     O          -0.406
    233     O          -0.395
    234     O          -0.391
    235     O          -0.408
    236     O          -0.408
    237     O          -0.420
    238     O          -0.419
    239     O          -0.415
    240     O          -0.418

  Hirshfeld-I charges:
            ion         q(e)        dq(e)    
   ------------------------------------------
      1     Ti          2.197     -0.125E-04
      2     Ti          2.216     -0.265E-04
      3     Ti          2.272     -0.162E-04
[...]
      9.85423      1.50751     22.11170         0.088394      0.076746      0.121279
     13.13985      3.02672     21.80230        -0.090380      0.049921      0.064835
      9.85781      4.53934      8.78373        -0.001007      0.000032     -3.245083
      0.00000      6.05245      8.78373         0.000790      0.000058      2.637494
      0.00000      4.53934     12.06967         0.004012      0.000650      0.485580
      9.85781      6.05245     12.06967        -0.002566      0.000302     -0.739905
      9.85781      4.53934     15.35560        -0.017431      0.025693      0.368143
      0.00000      6.05245     15.35560         0.010728      0.000730     -0.500626
     13.14293      4.53955     18.58403        -0.048334      0.008150      0.046786
      9.86262      6.05290     18.72313         0.090179      0.004781      0.164482
      9.86486      4.51971     22.07287         0.178692      0.797684      0.635639
      0.00982      6.05319     21.79996        -0.146585      0.015638      0.095893
      3.28594      7.56556      8.78373         0.001053      0.000038     -3.243184
      6.57187      9.07867      8.78373        -0.000761      0.000376      2.640094
      6.57187      7.56556     12.06967        -0.003724      0.011247      0.492957
      3.28594      9.07867     12.06967         0.003285      0.000600     -0.727994
      3.28594      7.56556     15.35560         0.015915     -0.009232      0.413025
      6.57187      9.07867     15.35560        -0.006822     -0.035838     -0.444703
      6.56817      7.54287     18.61576         0.043050      0.263740     -0.190447
      3.28611      9.07788     18.72745        -0.052048      0.033778     -0.001531
      3.29745      7.56699     22.11651        -0.213209      0.077580      0.055585
      6.56751      9.08702     21.76203         0.036729      0.321259      0.100676
      3.28594     10.59178      8.78373         0.001316      0.000049     -3.243196
      6.57187      0.00000      8.78373        -0.000737     -0.000069      2.640664
      6.57187     10.59178     12.06967        -0.003580      0.001713      0.497866
      3.28594      0.00000     12.06967         0.003937     -0.000213     -0.728921
      3.28594     10.59178     15.35560         0.008608      0.002178      0.408504
      6.57187      0.00000     15.35560        -0.006355     -0.000790     -0.611887
      6.56412     10.58520     18.55873         0.035890      0.057067     -0.006081
      3.28076      0.00020     18.72737        -0.032983     -0.006807      0.013222
      3.28906     10.59344     22.11246        -0.059729      0.009274      0.044866
      6.56937      0.00198     21.77283         0.047983     -0.063800      0.029540
      3.28594      1.51311      8.78373         0.001279     -0.000114     -3.243228
      6.57187      3.02622      8.78373        -0.000778     -0.000394      2.639861
      6.57187      1.51311     12.06967        -0.003688     -0.003616      0.496785
      3.28594      3.02622     12.06967         0.003110     -0.000590     -0.728087
      3.28594      1.51311     15.35560         0.008062     -0.003401      0.407669
      6.57187      3.02622     15.35560        -0.007920      0.040972     -0.432279
      6.56420      1.52213     18.56165         0.036599     -0.084691     -0.026020
      3.28457      3.02717     18.72754        -0.056836     -0.034261     -0.021269
      3.28824      1.51269     22.11157        -0.085530     -0.076340      0.023480
      6.56717      3.02212     21.77154         0.079098     -0.459931     -0.119850
      3.28594      4.53934      8.78373         0.001025      0.000020     -3.243216
      6.57187      6.05245      8.78373        -0.000767      0.000065      2.639229
      6.57187      4.53934     12.06967        -0.003819     -0.009351      0.492172
      3.28594      6.05245     12.06967         0.002382      0.000190     -0.726707
      3.28594      4.53934     15.35560         0.016745      0.010360      0.412206
      6.57187      6.05245     15.35560        -0.008800     -0.003729     -0.481569
      6.56763      4.56126     18.62219         0.046427     -0.234248     -0.213124
      3.28515      6.05300     18.73152        -0.078666      0.007473     -0.027675
      3.29669      4.53873     22.11284        -0.316825     -0.010234      0.025916
      6.60262      6.04887     21.92039         0.261627      0.204727     -1.801487
      9.85781      9.07867      7.50000         0.000311     -0.000090      1.784529
      9.85781      9.07867     10.06746         0.000509     -0.000128      1.644424
      1.28373      7.56556      8.78373        -1.856670     -0.000001     -0.750305
     11.86002      7.56556      8.78373         1.855547     -0.000009     -0.750179
      0.00000      9.07867     10.78594        -0.000504      0.000143     -1.173653
      0.00000      9.07867     13.35340        -0.001124      0.000385     -0.160166
     11.14154      7.56556     12.06967         0.399136     -0.000117      0.061087
      2.00221      7.56556     12.06967        -0.403216      0.000086      0.059367
      9.85781      9.07867     14.07187         0.001959     -0.001155      0.009926
      9.85781      9.07867     16.63933        -0.011450      0.000134      0.119702
      1.28373      7.56556     15.35560        -0.338752      0.003232      0.055517
     11.86002      7.56556     15.35560         0.321740      0.002254      0.058348
      0.00085      9.08039     17.36480         0.006556      0.001395     -0.024933
     13.12985      9.07629     19.93898         0.009586      0.005863     -0.062445
     11.16809      7.56844     18.63360         0.003217      0.004958     -0.018598
      1.97255      7.56727     18.65601         0.052697     -0.009135     -0.000883
      9.90397      9.08864     20.64267        -0.042083      0.060594     -0.170701
      9.83424      9.06532     23.21259         0.004134      0.213374     -0.096170
      1.22942      7.56876     22.09192         0.090602     -0.000593     -0.011503
     11.91467      7.55431     22.13391         0.146676      0.042294     -0.060488
      9.85781      0.00000      7.50000         0.000334      0.000052      1.784519
      9.85781      0.00000     10.06746         0.000621      0.000067      1.644267
      1.28373     10.59178      8.78373        -1.856703      0.000020     -0.750294
     11.86002     10.59178      8.78373         1.855587      0.000018     -0.750182
      0.00000      0.00000     10.78594        -0.000505      0.000061     -1.173476
      0.00000      0.00000     13.35340        -0.001165      0.000155     -0.158778
     11.14154     10.59178     12.06967         0.399417     -0.000015      0.061172
      2.00221     10.59178     12.06967        -0.403351      0.000061      0.059572
      9.85781      0.00000     14.07187         0.002154      0.001429      0.009275
      9.85781      0.00000     16.63933        -0.020813      0.000770      0.123067
      1.28373     10.59178     15.35560        -0.336700      0.001202      0.053991
     11.86002     10.59178     15.35560         0.321630     -0.000205      0.057369
      0.00165     12.10476     17.36529         0.005142      0.001279     -0.023539
     13.13437      0.00030     19.93736         0.008347      0.001066     -0.045081
     11.16466     10.59659     18.64282         0.004692      0.003862     -0.015309
      1.97135     10.58876     18.65682         0.036068     -0.002268     -0.002376
      9.86333     12.10419     20.65195        -0.010834      0.009223     -0.099556
      9.85172     12.10397     23.22447        -0.014444      0.024695     -0.028824
      1.22414     10.58682     22.08793         0.047850      0.014458     -0.009388
     11.91590     10.59261     22.11460         0.041946      0.018455     -0.025721
      9.85781      3.02622      7.50000         0.000318      0.000089      1.784540
      9.85781      3.02622     10.06746         0.000497      0.000126      1.644702
      1.28373      1.51311      8.78373        -1.856696      0.000007     -0.750299
     11.86002      1.51311      8.78373         1.855592      0.000003     -0.750171
      0.00000      3.02622     10.78594        -0.000510     -0.000139     -1.173578
      0.00000      3.02622     13.35340        -0.001217     -0.000335     -0.159638
     11.14154      1.51311     12.06967         0.399380      0.000256      0.061221
      2.00221      1.51311     12.06967        -0.403382      0.000039      0.059578
      9.85781      3.02622     14.07187         0.002120      0.000791      0.011423
      9.85781      3.02622     16.63933        -0.012926      0.003200      0.125013
      1.28373      1.51311     15.35560        -0.337189     -0.000169      0.054685
     11.86002      1.51311     15.35560         0.320861      0.001231      0.058608
      0.00062      3.02527     17.36479         0.006384     -0.001887     -0.023364
     13.13050      3.02883     19.93869         0.010251     -0.006195     -0.055979
     11.16451      1.50886     18.64308         0.003925     -0.000688     -0.014556
      1.97068      1.51495     18.65413         0.038022      0.007273     -0.000571
      9.90222      3.01681     20.64196        -0.045615     -0.061645     -0.158120
      9.83937      3.03832     23.20934        -0.028560     -0.202598     -0.035550
      1.22330      1.51775     22.09047         0.056790     -0.005249     -0.005362
     11.91572      1.51214     22.11207         0.033117     -0.008835     -0.022795
      9.85781      6.05245      7.50000         0.000299     -0.000048      1.784512
      9.85781      6.05245     10.06746         0.000468     -0.000061      1.644424
      1.28373      4.53934      8.78373        -1.856670     -0.000030     -0.750293
     11.86002      4.53934      8.78373         1.855538     -0.000026     -0.750169
      0.00000      6.05245     10.78594        -0.000514     -0.000060     -1.173777
      0.00000      6.05245     13.35340        -0.001081     -0.000072     -0.161529
     11.14154      4.53934     12.06967         0.399084     -0.000111      0.061147
      2.00221      4.53934     12.06967        -0.403248     -0.000176      0.059391
      9.85781      6.05245     14.07187         0.003589     -0.000870      0.008793
      9.85781      6.05245     16.63933        -0.020613     -0.001157      0.118773
      1.28373      4.53934     15.35560        -0.339070     -0.003423      0.055456
     11.86002      4.53934     15.35560         0.320854     -0.002438      0.058442
      0.00247      6.05273     17.36392         0.008101     -0.001288     -0.023931
     13.13389      6.05302     19.93637         0.014778     -0.001584     -0.070804
     11.16789      4.53714     18.63400         0.002773     -0.009159     -0.018067
      1.97235      4.53964     18.65543         0.054071      0.004239      0.000234
      9.93077      6.05368     20.64360        -0.047156     -0.012554     -0.292454
      9.68715      6.05165     23.22442         0.288003     -0.017125     -0.906635
      1.22858      4.53766     22.09055         0.104024     -0.010018     -0.008015
     11.91505      4.55135     22.13265         0.140262     -0.053276     -0.056211
      3.28594      9.07867      7.50000        -0.000297     -0.000044      1.783766
      3.28594      9.07867     10.06746        -0.000480     -0.000090      1.641290
      7.85560      7.56556      8.78373        -1.854516     -0.000307     -0.750531
      5.28814      7.56556      8.78373         1.855689     -0.000308     -0.750653
      6.57187      9.07867     10.78594         0.000511     -0.001840     -1.179328
      6.57187      9.07867     13.35340         0.001327     -0.002925     -0.188029
      4.56967      7.56556     12.06967         0.399243     -0.000610      0.058876
      8.57408      7.56556     12.06967        -0.394983     -0.000833      0.060441
      3.28594      9.07867     14.07187        -0.001970      0.001485     -0.007295
      3.28594      9.07867     16.63933        -0.016670     -0.002347      0.142244
      7.85560      7.56556     15.35560        -0.302390     -0.027605      0.044672
      5.28814      7.56556     15.35560         0.324983     -0.029113      0.047425
      6.57536      9.06529     17.36003        -0.006149     -0.059316      0.048098
      6.53472      9.09513     19.90731         0.000889     -0.056135      0.044790
      4.58548      7.56479     18.64486         0.071065     -0.023269      0.015336
      8.55483      7.56650     18.67024        -0.126243     -0.015995     -0.000406
      3.29929      9.07571     20.64894         0.032293     -0.025469     -0.008948
      3.28567      9.08036     23.22279         0.019498     -0.039660     -0.059584
      7.83366      7.62349     21.92395        -0.512430     -0.549401      0.373768
      5.36666      7.57522     22.13920         0.185628     -0.348142      0.117167
      3.28594      0.00000      7.50000        -0.000315      0.000025      1.783786
      3.28594      0.00000     10.06746        -0.000560      0.000038      1.641300
      7.85560     10.59178      8.78373        -1.854367     -0.000173     -0.750551
      5.28814     10.59178      8.78373         1.855531     -0.000169     -0.750670
      6.57187      0.00000     10.78594         0.000528      0.000301     -1.180539
      6.57187      0.00000     13.35340         0.000963      0.000632     -0.190706
      4.56967     10.59178     12.06967         0.397051     -0.000030      0.058768
      8.57408     10.59178     12.06967        -0.392955     -0.000082      0.060261
      3.28594      0.00000     14.07187        -0.001140      0.000545     -0.006359
      3.28594      0.00000     16.63933        -0.031990      0.000482      0.122093
      7.85560     10.59178     15.35560        -0.300616     -0.003239      0.053486
      5.28814     10.59178     15.35560         0.317448     -0.004303      0.055335
      6.57237      0.00104     17.35047        -0.004891      0.006552      0.016565
      6.56724     12.10468     19.91225        -0.007486      0.007377     -0.011769
      4.58626     10.59563     18.63784         0.019865     -0.009480     -0.001001
      8.54894     10.58891     18.65298        -0.055576      0.000488     -0.013940
      3.27925     12.10458     20.64566         0.015389      0.009586     -0.016188
      3.27387      0.00025     23.21992         0.021345      0.023838     -0.036396
      7.80089     10.59222     22.07391        -0.112364     -0.026755     -0.053364
      5.34185     10.60447     22.08638         0.024603     -0.035444     -0.031488
      3.28594      3.02622      7.50000        -0.000293      0.000051      1.783757
      3.28594      3.02622     10.06746        -0.000464      0.000081      1.641358
      7.85560      1.51311      8.78373        -1.854399      0.000263     -0.750537
      5.28814      1.51311      8.78373         1.855549      0.000259     -0.750665
      6.57187      3.02622     10.78594         0.000526      0.001829     -1.178724
      6.57187      3.02622     13.35340         0.001284      0.002973     -0.182562
      4.56967      1.51311     12.06967         0.397357      0.000219      0.058821
      8.57408      1.51311     12.06967        -0.393205      0.000418      0.060382
      3.28594      3.02622     14.07187        -0.002129     -0.001806     -0.007390
      3.28594      3.02622     16.63933        -0.015849      0.005831      0.145618
      7.85560      1.51311     15.35560        -0.301507      0.009124      0.055564
      5.28814      1.51311     15.35560         0.318665      0.009039      0.056401
      6.57450      3.04168     17.36240        -0.006169      0.057153      0.055645
      6.54192      3.00764     19.91226        -0.003771      0.064303      0.100835
      4.58619      1.51023     18.63978         0.023099      0.016230      0.001039
      8.54959      1.51581     18.65215        -0.060139      0.004620     -0.012137
      3.28713      3.02589     20.64631         0.041824      0.031477      0.009531
      3.28748      3.02652     23.21868         0.046383      0.058316     -0.014387
      7.80160      1.51157     22.07424        -0.120339      0.080175     -0.027434
      5.34123      1.50277     22.08374         0.029348      0.084332     -0.009382
      3.28594      6.05245      7.50000        -0.000275     -0.000026      1.783720
      3.28594      6.05245     10.06746        -0.000423     -0.000025      1.641132
      7.85560      4.53934      8.78373        -1.854523      0.000227     -0.750529
      5.28814      4.53934      8.78373         1.855700      0.000225     -0.750661
      6.57187      6.05245     10.78594         0.000510     -0.000283     -1.176411
      6.57187      6.05245     13.35340         0.001535     -0.000479     -0.149462
      4.56967      4.53934     12.06967         0.399537      0.000423      0.058906
      8.57408      4.53934     12.06967        -0.395207      0.000503      0.060521
      3.28594      6.05245     14.07187        -0.003385     -0.000076     -0.009610
      3.28594      6.05245     16.63933        -0.015510     -0.001982      0.157565
      7.85560      4.53934     15.35560        -0.301392      0.022980      0.042657
      5.28814      4.53934     15.35560         0.324338      0.025633      0.044821
      6.57616      6.05069     17.37081        -0.004895     -0.005112      0.115462
      6.55013      6.05731     19.95924        -0.040472     -0.022084      0.760101
      4.58558      4.54015     18.65000         0.073724      0.016521      0.019356
      8.55456      4.53994     18.67193        -0.128990      0.009821      0.001732
      3.28894      6.05678     20.65131         0.046617     -0.014404      0.004215
      3.29488      6.05214     23.22243         0.054025     -0.045590     -0.032089
      7.83433      4.49015     21.92091        -0.548047      0.434048      0.451910
      5.35536      4.52869     22.08837         0.239599      0.339622      0.289802
 -----------------------------------------------------------------------------------
    total drift:                               -0.002818      0.000176     -0.014527


--------------------------------------------------------------------------------------------------------



  FREE ENERGIE OF THE ION-ELECTRON SYSTEM (eV)
  ---------------------------------------------------
  free  energy   TOTEN  =     -1912.82411310 eV

  energy  without entropy=    -1912.82411310  energy(sigma->0) =    -1912.82411310
 


--------------------------------------------------------------------------------------------------------


    POTLOK:  cpu time      0.2822: real time      0.2829


--------------------------------------------------------------------------------------------------------


     LOOP+:  cpu time   1801.5609: real time   1810.0867
    4ORBIT:  cpu time      0.0000: real time      0.0000

 total amount of memory used by VASP MPI-rank0   651744. kBytes
=======================================================================

   base      :      30000. kBytes
   nonl-proj :     407467. kBytes
   fftplans  :      42363. kBytes
   grid      :      58508. kBytes
   one-center:       1866. kBytes
   wavefun   :     111540. kBytes
 
  
  
 General timing and accounting informations for this job:
 ========================================================
  
                  Total CPU time used (sec):     1846.090
                            User time (sec):     1840.676
                          System time (sec):        5.415
                         Elapsed time (sec):     1855.553
  
                   Maximum memory used (kb):     1161220.
                   Average memory used (kb):          N/A
  
                          Minor page faults:       138328
                          Major page faults:           66
                 Voluntary context switches:         2974
