 **********************************************************************
                          MRCC program system
 **********************************************************************
 
                              Written by
     Mihaly Kallay, Peter R. Nagy, David Mester, Laszlo Gyevi-Nagy,
        Jozsef Csoka, P. Bernat Szabo, Zoltan Rolik, Gyula Samu,
     Jozsef Csontos, Bence Hegely, Adam Ganyecz, Istvan Ladjanszki,
       Lorant Szegedy, Bence Ladoczki, Klara Petrov, Mate Farkas,
                    Pal D. Mezei, and Reka A. Horvath
 
        Department of Physical Chemistry and Materials Science
            Budapest University of Technology and Economics
                  Budapest P.O.Box 91, H-1521 Hungary
 
                              www.mrcc.hu
 
                      Release date: March 18, 2022

 ************************ 2023-02-28 16:16:06 *************************
 Executing minp...

 Reading input from MINP...
 
 Input file:
 
calc=DF-CCSD(T)
scftype=rhf
verbosity=3
mem=240GB
symm=off
unit=angs
scfiguess=small
scfmaxit=1000
scfalg=locfit1


ccmaxit=400
ccsdalg=dfdirect
ccsdthreads=4
ccsdmkl=thr
ptthreads=4

charge=-12
core=10

basis=special
aug-cc-pVDZ
aug-cc-pVDZ
aug-cc-pVDZ
bse_CVDZ
aug-cc-pVDZ
aug-cc-pVDZ
aug-cc-pVDZ
aug-cc-pVDZ
aug-cc-pVDZ
bse_CVDZ
aug-cc-pVDZ
aug-cc-pVDZ
aug-cc-pVDZ
nothing
nothing
nothing
nothing
nothing
nothing
nothing
nothing
nothing
nothing
nothing
nothing
nothing
nothing
nothing
nothing
nothing
nothing
nothing
nothing
nothing
nothing
nothing
nothing
nothing
nothing
nothing
nothing
nothing
nothing
nothing
nothing
nothing
nothing

basis_sm=special
def2-SVP
def2-SVP
def2-SVP
def2-SVP
def2-SVP
def2-SVP
def2-SVP
def2-SVP
def2-SVP
def2-SVP
def2-SVP
def2-SVP
def2-SVP
nothing
nothing
nothing
nothing
nothing
nothing
nothing
nothing
nothing
nothing
nothing
nothing
nothing
nothing
nothing
nothing
nothing
nothing
nothing
nothing
nothing
nothing
nothing
nothing
nothing
nothing
nothing
nothing
nothing
nothing
nothing
nothing
nothing
nothing

dfbasis_scf=special
def2-QZVPP-RI-JK
def2-QZVPP-RI-JK
def2-QZVPP-RI-JK
def2-QZVPP-RI-JK
def2-QZVPP-RI-JK
def2-QZVPP-RI-JK
def2-QZVPP-RI-JK
def2-QZVPP-RI-JK
def2-QZVPP-RI-JK
def2-QZVPP-RI-JK
def2-QZVPP-RI-JK
def2-QZVPP-RI-JK
def2-QZVPP-RI-JK
nothing
nothing
nothing
nothing
nothing
nothing
nothing
nothing
nothing
nothing
nothing
nothing
nothing
nothing
nothing
nothing
nothing
nothing
nothing
nothing
nothing
nothing
nothing
nothing
nothing
nothing
nothing
nothing
nothing
nothing
nothing
nothing
nothing
nothing

dfbasis_cor=special
aug-cc-pVDZ-RI
aug-cc-pVDZ-RI
aug-cc-pVDZ-RI
bse_CVDZ_mp2fit
aug-cc-pVDZ-RI
aug-cc-pVDZ-RI
aug-cc-pVDZ-RI
aug-cc-pVDZ-RI
aug-cc-pVDZ-RI
bse_CVDZ_mp2fit
aug-cc-pVDZ-RI
aug-cc-pVDZ-RI
aug-cc-pVDZ-RI
nothing
nothing
nothing
nothing
nothing
nothing
nothing
nothing
nothing
nothing
nothing
nothing
nothing
nothing
nothing
nothing
nothing
nothing
nothing
nothing
nothing
nothing
nothing
nothing
nothing
nothing
nothing
nothing
nothing
nothing
nothing
nothing
nothing
nothing

ecp=special
none
none
none
none
none
none
none
none
none
none
none
none
none
ECP-12
ECP-12
ECP-12
ECP-12
ECP-12
ECP-12
ECP-12
ECP-12
ECP-12
ECP-12
ECP-12
ECP-12
ECP-12
ECP-12
ECP-12
ECP-12
ECP-12
ECP-12
ECP-12
ECP-12
ECP-12
ECP-12
ECP-12
ECP-12
ECP-12
ECP-12
ECP-12
ECP-12
ECP-12
ECP-12
ECP-12
ECP-12
ECP-12
ECP-12

unit=angs
geom=xyz
47
N2 O1 Mg2 O8 ECP34
N     0.21938998798    0.40711977304    2.97219464994
N     1.05356774415    1.17304794437    2.80999671970
O     1.92808598532    1.97633711084    2.62078476033
Mg    0.00000000000    0.00000000000   -0.06414637471
O     0.00879312303    0.00842352091   -2.16734401299
O    -2.10365172079    0.00761122469   -0.01597712917
O     0.00778395620   -2.10382756004   -0.01463473797
O     2.11515428806    0.00800445658    0.00000000000
O     0.00810805587    2.11629766541   -0.00126230397
Mg    2.12796920687    2.12721324578   -0.04032291113
O     2.11856833703    2.11812882663   -2.16308822988
O     4.23365640750    2.11960444750   -0.01704913316
O     2.11997259781    4.23354034437   -0.01762926941
Mg   -2.10342106048    0.00836257636   -2.16287324258
Mg    0.00869458373   -2.10350864443   -2.16299267631
Mg   -2.10182671140   -2.10194801669   -0.05433122489
Mg    0.01114258755    2.11865590409   -2.15862203820
Mg    2.11891481275    0.01078710265   -2.15861177273
Mg   -2.10215918382    2.11757634283   -0.05857971338
Mg    2.11809648320   -2.10229967536   -0.05857210618
Mg    0.01042449524   -4.21139718053   -0.05874866953
Mg   -4.21152717799    0.00998626723   -0.05743045094
Mg    0.00894784418    0.00856002639   -4.28659186237
Mg    4.22945987783    0.00998626723   -0.05743045094
Mg    0.01042449524    4.22958987528   -0.05874866953
Mg   -4.21151483900   -2.10185587264   -2.16149164580
Mg   -2.10163503777   -4.21193677885   -2.16154933510
Mg   -4.21194264270    2.11939709126   -2.16103414158
Mg    2.11995598863   -4.21234766126   -2.16106567971
Mg   -2.10129891977   -2.10168673757   -4.28659186237
Mg   -2.10163503777    4.22905027697   -2.16154933510
Mg    4.22947221682   -2.10185587264   -2.16149164580
Mg   -2.10129891977    2.11880679034   -4.28659186237
Mg    2.11919460814   -2.10168673757   -4.28659186237
Mg    2.11995598863    4.22863939456   -2.16106567971
Mg    4.22904441312    2.11939709126   -2.16103414158
Mg    2.11919460814    2.11880679034   -4.28659186237
Mg    0.00894784418    4.22905355430   -4.28659186237
Mg    4.22944137209    0.00856002639   -4.28659186237
Mg    4.23004715709    4.22974356707   -0.05698052938
Mg    6.33756599534    0.00836257636   -2.16287324258
Mg    0.00869458373    6.33747841139   -2.16299267631
Mg    2.11809648320    6.33868738046   -0.05857210618
Mg    6.33882787200    2.11757634283   -0.05857971338
Mg    4.22944137209    4.22905355430   -4.28659186237
Mg    4.22947221682    6.33913118318   -2.16149164580
Mg    6.33935201805    4.22905027697   -2.16154933510


ghost=serialno
1-3

qmmm=Amber
pointcharges
10181
     -2.10342106048    0.00836257636   -2.16287324258    2.00000000000
      0.00869458373   -2.10350864443   -2.16299267631    2.00000000000
     -2.10182671140   -2.10194801669   -0.05433122489    2.00000000000
      0.01114258755    2.11865590409   -2.15862203820    2.00000000000
--------------------Output has been truncated-------------------------


--------------------Output has been truncated-------------------------


--------------------Output has been truncated-------------------------


--------------------Output has been truncated-------------------------


--------------------Output has been truncated-------------------------


--------------------Output has been truncated-------------------------


--------------------Output has been truncated-------------------------


--------------------Output has been truncated-------------------------


--------------------Output has been truncated-------------------------


--------------------Output has been truncated-------------------------


 ************************ 2023-02-28 16:17:22 *************************
 Executing ccsd...

 Allocation of 240.0 Gbytes of memory...

 Direct DF-CCSD(T) calculation
 
 Convergence criterion:  1.0E-06
 
 Number of occupied/virtual/auxiliary orbitals:    40   257  1026
   3848.00 MB is the minimal memory requirement for (T)
   1941.96 MB is the minimal memory requirement for CCSD
 
 Reference energy [au]:          -10337.544851486506
 T1 contribution [au]:                0.000000000000
 Same spin MP2 energy [au]:          -0.564164323376
 Opposite spin MP2 energy [au]:      -1.468287976363
 MP2 correlation energy [au]:        -2.032452299738
 Total MP2 energy [au]:          -10339.577303786244
 
 
 CPU time [min]:     1.350                   Wall time [min]:     0.221
 
 Starting CCSD iterations...
 
                     Residual norm          Energy
 Iteration  1        0.315475501021   -10339.543398937589
 Iteration  2        0.094009227140   -10339.581647584033
 Iteration  3        0.036455983972   -10339.593312092686
 Iteration  4        0.008356052014   -10339.592748887382
 Iteration  5        0.003068154975   -10339.592409282994
 Iteration  6        0.000982964011   -10339.592500411343
 Iteration  7        0.000460846444   -10339.592518126175
 Iteration  8        0.000173118865   -10339.592502947695
 Iteration  9        0.000055520946   -10339.592497288120
 Iteration 10        0.000021869982   -10339.592496863286
 Iteration 11        0.000007550748   -10339.592497078771
 
 CCSD iteration has converged in 11 steps.
    18525.35 MB memory was utilized by CCSD
 
 T1 diagnostic:      1.269E-02            D1 diagnostic:      4.519E-02
 
 T1 contribution [au]:                                  0.000000000000
 Opposite spin CCSD energy [au]:                       -1.555321823928
 Same spin CCSD energy [au]:                           -0.492323768339
 CCSD correlation energy [au]:                         -2.047645592265
 Total CCSD energy [au]:                           -10339.592497078771
 
 CPU time [min]:   192.044                   Wall time [min]:     7.284
 
 Calculation of (T) correction...
 
 
     9372.49 MB memory is utilized for (T)

 0%       25%       50%       75%       100%
 |---------|---------|---------|---------| 
 
 (T) correction [au]:                                    -0.051721777002
 CCSD(T) correlation energy [au]:                        -2.099367369266
 Total CCSD(T) energy [au]:                          -10339.644218855772
 
 CPU time [min]:  1183.451                   Wall time [min]:    35.173
 
 ************************ 2023-02-28 16:52:33 *************************
                      Normal termination of mrcc.
 **********************************************************************
