 vasp.6.3.0 20Jan22 (build Dec 25 2023 18:06:01) complex                         
 executed on        HPECrayEX_GCC date 2024.02.07  23:49:18
 running 1024 mpi-ranks, with    1 threads/rank
 distrk:  each k-point on 1024 cores,    1 groups
 distr:  one band on NCORE=   4 cores,  256 groups


--------------------------------------------------------------------------------------------------------


 INCAR:
   SYSTEM = TiO2
   ISMEAR = 0
   SIGMA = 0.05
   EDIFF = 1E-4
   ALGO = ALL
   ICHARG = 1
   IBRION = -1
   NSW = 0
   ISYM = 0
   ISIF = 2
   EDIFFG = -0.01
   DIPOL = 0.5 0.5 0.5
   IDIPOL = 3
   LDIPOL = .TRUE.
   LHFCALC = .TRUE.
   HFSCREEN = 0.2
   GGA = PE
   IVDW = 13
   VDW_S8 = 1.19528249
   VDW_A1 = 0.38663183
   VDW_A2 = 5.19133469
   ENCUT = 520
   PREC = Normal
   PRECFOCK = Fast
   LASPH = .TRUE.
   LREAL = .FALSE.
   ISPIN = 1
   NELM = 200
   NELMIN = 8
   NCORE = 4
   KPAR = 1
   NKREDX = 2
   NKREDY = 2
   LWAVE = .FALSE.
   LCHARG = .FALSE.

 POTCAR:    PAW_PBE Ti 08Apr2002                  
 POTCAR:    PAW_PBE O 08Apr2002                   
 POTCAR:    PAW_PBE Ti 08Apr2002                  
   SHA256 =  f8e8f1d080d9e9b45e792f1068744b07aba8441d1e7ce11486a5d4c0f5a1479e Ti/POTCAR             
   COPYR  = (c) Copyright 08Apr2002 Georg Kresse                                                    
   COPYR  = This file is part of the software VASP. Any use, copying, and all other rights are regul
   COPYR  = If you do not have a valid VASP license, you may not use, copy or distribute this file. 
   VRHFIN =Ti: d3 s1                                                                                
   LEXCH  = PE                                                                                      
   EATOM  =    94.7928 eV,    6.9671 Ry                                                             
                                                                                                    
   TITEL  = PAW_PBE Ti 08Apr2002                                                                    
   LULTRA =        F    use ultrasoft PP ?                                                          
   IUNSCR =        1    unscreen: 0-lin 1-nonlin 2-no                                               
   RPACOR =    2.200    partial core radius                                                         
   POMASS =   47.880; ZVAL   =    4.000    mass and valenz                                          
   RCORE  =    2.800    outmost cutoff radius                                                       
   RWIGS  =    2.500; RWIGS  =    1.323    wigner-seitz radius (au A)                               
   ENMAX  =  178.330; ENMIN  =  133.747 eV                                                          
   RCLOC  =    2.215    cutoff for local pot                                                        
   LCOR   =        T    correct aug charges                                                         
   LPAW   =        T    paw PP                                                                      
   EAUG   =  328.883                                                                                
   DEXC   =    0.000                                                                                
   RMAX   =    2.868    core radius for proj-oper                                                   
   RAUG   =    1.300    factor for augmentation sphere                                              
   RDEP   =    2.885    radius for radial grids                                                     
   RDEPT  =    2.320    core radius for aug-charge                                                  
                                                                                                    
   Atomic configuration                                                                             
    9 entries                                                                                       
     n  l   j            E        occ.                                                              
     1  0  0.50     -4865.3608   2.0000                                                             
     2  0  0.50      -533.1367   2.0000                                                             
     2  1  1.50      -440.5031   6.0000                                                             
     3  0  0.50       -59.3186   2.0000                                                             
     3  1  1.50       -35.7012   6.0000                                                             
     3  2  2.50        -1.9157   3.0000                                                             
     4  0  0.50        -3.7291   1.0000                                                             
     4  1  1.50        -4.0817   0.0000                                                             
     4  3  2.50        -1.3606   0.0000                                                             
   Description                                                                                      
     l       E           TYP  RCUT    TYP  RCUT                                                     
     2     -1.9156924     23  2.800                                                                 
     2     -0.4062961     23  2.800                                                                 
     0     -3.7290832     23  2.800                                                                 
     0     20.4087390     23  2.800                                                                 
     1     -5.4423304     23  2.800                                                                 
  local pseudopotential read in
  partial core-charges read in
  partial kinetic energy density read in
  atomic valenz-charges read in
  non local Contribution for L=           2  read in
    real space projection operators read in
  non local Contribution for L=           2  read in
    real space projection operators read in
  non local Contribution for L=           0  read in
    real space projection operators read in
  non local Contribution for L=           0  read in
    real space projection operators read in
  non local Contribution for L=           1  read in
    real space projection operators read in
    PAW grid and wavefunctions read in

   number of l-projection  operators is LMAX  =           5
   number of lm-projection operators is LMMAX =          15

 POTCAR:    PAW_PBE O 08Apr2002                   
   SHA256 =  818f92134a0a090dccd8ba1447fa70422a3b330e708bb4f08108d8ae51209ddf O/POTCAR              
   COPYR  = (c) Copyright 08Apr2002 Georg Kresse                                                    
   COPYR  = This file is part of the software VASP. Any use, copying, and all other rights are regul
   COPYR  = If you do not have a valid VASP license, you may not use, copy or distribute this file. 
   VRHFIN =O: s2p4                                                                                  
   LEXCH  = PE                                                                                      
   EATOM  =   432.3788 eV,   31.7789 Ry                                                             
                                                                                                    
   TITEL  = PAW_PBE O 08Apr2002                                                                     
   LULTRA =        F    use ultrasoft PP ?                                                          
   IUNSCR =        1    unscreen: 0-lin 1-nonlin 2-no                                               
   RPACOR =    1.200    partial core radius                                                         
   POMASS =   16.000; ZVAL   =    6.000    mass and valenz                                          
   RCORE  =    1.520    outmost cutoff radius                                                       
   RWIGS  =    1.550; RWIGS  =    0.820    wigner-seitz radius (au A)                               
   ENMAX  =  400.000; ENMIN  =  300.000 eV                                                          
   ICORE  =        2    local potential                                                             
   LCOR   =        T    correct aug charges                                                         
   LPAW   =        T    paw PP                                                                      
   EAUG   =  605.392                                                                                
   DEXC   =    0.000                                                                                
   RMAX   =    1.553    core radius for proj-oper                                                   
   RAUG   =    1.300    factor for augmentation sphere                                              
   RDEP   =    1.550    radius for radial grids                                                     
   RDEPT  =    1.329    core radius for aug-charge                                                  
                                                                                                    
   Atomic configuration                                                                             
    4 entries                                                                                       
     n  l   j            E        occ.                                                              
     1  0  0.50      -514.6923   2.0000                                                             
     2  0  0.50       -23.9615   2.0000                                                             
     2  1  0.50        -9.0305   4.0000                                                             
     3  2  1.50        -9.5241   0.0000                                                             
   Description                                                                                      
     l       E           TYP  RCUT    TYP  RCUT                                                     
     0    -23.9615318     23  1.200                                                                 
     0     -9.5240782     23  1.200                                                                 
     1     -9.0304911     23  1.520                                                                 
     1      8.1634956     23  1.520                                                                 
     2     -9.5240782      7  1.500                                                                 
  local pseudopotential read in
  partial core-charges read in
  partial kinetic energy density read in
  kinetic energy density of atom read in
  atomic valenz-charges read in
  non local Contribution for L=           0  read in
    real space projection operators read in
  non local Contribution for L=           0  read in
    real space projection operators read in
  non local Contribution for L=           1  read in
    real space projection operators read in
  non local Contribution for L=           1  read in
    real space projection operators read in
    PAW grid and wavefunctions read in

   number of l-projection  operators is LMAX  =           4
   number of lm-projection operators is LMMAX =           8

 -----------------------------------------------------------------------------
|                                                                             |
|               ----> ADVICE to this user running VASP <----                  |
|                                                                             |
|     You have a (more or less) 'large supercell' and for larger cells it     |
|     might be more efficient to use real-space projection operators.         |
|     Therefore, try LREAL= Auto in the INCAR file.                           |
|     Mind: For very accurate calculation, you might also keep the            |
|     reciprocal projection scheme (i.e. LREAL=.FALSE.).                      |
|                                                                             |
 -----------------------------------------------------------------------------

  PAW_PBE Ti 08Apr2002                  :
 energy of atom  1       EATOM=  -94.7928
 kinetic energy error for atom=    0.0002 (will be added to EATOM!!)
  PAW_PBE O 08Apr2002                   :
 energy of atom  2       EATOM= -432.3788
 kinetic energy error for atom=    0.0208 (will be added to EATOM!!)


 POSCAR: Ti  O
  positions in direct lattice
  No initial velocities read in
 -----------------------------------------------------------------------------
|                                                                             |
|           W    W    AA    RRRRR   N    N  II  N    N   GGGG   !!!           |
|           W    W   A  A   R    R  NN   N  II  NN   N  G    G  !!!           |
|           W    W  A    A  R    R  N N  N  II  N N  N  G       !!!           |
|           W WW W  AAAAAA  RRRRR   N  N N  II  N  N N  G  GGG   !            |
|           WW  WW  A    A  R   R   N   NN  II  N   NN  G    G                |
|           W    W  A    A  R    R  N    N  II  N    N   GGGG   !!!           |
|                                                                             |
|     Specifying the vdW parameters                                           |
|     VDW_S8 = 1.195                                                          |
|     VDW_A1 = 0.387                                                          |
|     VDW_A2 = 5.191                                                          |
|     in the INCAR file will overwrite the defaults for hse06. Please         |
|     make sure that is what you intended.                                    |
|                                                                             |
 -----------------------------------------------------------------------------

 exchange correlation table for  LEXCH =        8
   RHO(1)=    0.500       N(1)  =     2000
   RHO(2)=  100.500       N(2)  =     4000



--------------------------------------------------------------------------------------------------------


 ion  position               nearest neighbor table
   1  0.750  0.625  0.287-  82 1.95 142 1.95 141 1.95  81 1.95  84 1.98 163 1.98  11 2.96  31 2.96

   2  0.000  0.750  0.287-  83 1.95  84 1.95 103 1.95 104 1.95  85 1.98  32 2.96  12 2.96
   3  0.000  0.625  0.394-  85 1.95 145 1.95  86 1.95 146 1.95  87 1.98  88 1.98  13 2.96  33 2.96

   4  0.750  0.750  0.394-  87 1.95 107 1.95 168 1.95 188 1.95  89 1.98  82 1.98  14 2.96  34 2.96

   5  0.750  0.625  0.500-  89 1.95  90 1.95 149 1.95 150 1.95  92 1.98 171 1.98  15 2.96  35 2.96

   6  0.000  0.750  0.500-  91 1.95  92 1.95 111 1.95 112 1.95  86 1.98  93 2.00  16 2.96  36 2.96

   7  1.000  0.625  0.604-  93 1.89 153 1.90  95 1.95  96 1.95  94 2.02 154 2.02  17 2.96  37 2.96

   8  0.750  0.750  0.611-  97 1.86 196 1.97 176 1.97 115 1.97  95 1.97  90 2.11  18 2.96  38 2.96

   9  0.750  0.625  0.720-  98 1.83 158 1.84 179 2.03 100 2.03  97 2.10 157 2.10  19 2.96  39 2.96

  10  0.000  0.750  0.708-  94 1.81 119 1.95 120 1.95  99 1.95 100 1.95  20 2.96  40 2.96
  11  0.750  0.875  0.287-  82 1.95 102 1.95 101 1.95  81 1.95 104 1.98 183 1.98   1 2.96  21 2.96

  12  0.000  0.000  0.287- 103 1.95 104 1.95 123 1.95 124 1.95 105 1.98  22 2.96   2 2.96
  13  0.000  0.875  0.394-  85 1.95 105 1.95  86 1.95 106 1.95 107 1.98 108 1.98   3 2.96  23 2.96

  14  0.750  0.000  0.394- 107 1.95 127 1.95 188 1.95 208 1.95 109 1.98 102 1.98   4 2.96  24 2.96

  15  0.750  0.875  0.500-  89 1.95  90 1.95 109 1.95 110 1.95 112 1.98 191 1.98   5 2.96  25 2.96

  16  0.000  0.000  0.500- 111 1.95 112 1.95 131 1.95 132 1.95 106 1.98 113 2.00   6 2.96  26 2.96

  17  1.000  0.875  0.604-  93 1.89 113 1.89 115 1.95 116 1.95 114 2.02  94 2.02  27 2.96   7 2.96

  18  0.750  0.000  0.611- 117 1.86 216 1.97 196 1.97 135 1.97 115 1.97 110 2.11  28 2.96   8 2.96

  19  0.750  0.875  0.721- 118 1.83  98 1.83 199 2.03 120 2.03 117 2.10  97 2.10   9 2.96  29 2.96

  20  1.000  1.000  0.708- 114 1.81 140 1.95 139 1.95 120 1.95 119 1.95  10 2.96  30 2.96
  21  0.750  0.125  0.287- 102 1.95 122 1.95 121 1.95 101 1.95 124 1.98 203 1.98  11 2.96  31 2.96

  22  0.000  0.250  0.287- 123 1.95 124 1.95 143 1.95 144 1.95 125 1.98  32 2.96  12 2.96
  23  0.000  0.125  0.394- 105 1.95 125 1.95 106 1.95 126 1.95 127 1.98 128 1.98  13 2.96  33 2.96

  24  0.750  0.250  0.394- 127 1.95 147 1.95 208 1.95 228 1.95 129 1.98 122 1.98  14 2.96  34 2.96

  25  0.750  0.125  0.500- 109 1.95 110 1.95 129 1.95 130 1.95 132 1.98 211 1.98  15 2.96  35 2.96

  26  0.000  0.250  0.500- 131 1.95 132 1.95 151 1.95 152 1.95 126 1.98 133 2.00  16 2.96  36 2.96

  27  0.000  0.125  0.604- 113 1.89 133 1.89 136 1.95 135 1.95 114 2.02 134 2.02  17 2.96  37 2.96

  28  0.750  0.250  0.611- 137 1.86 216 1.97 236 1.97 135 1.97 155 1.97 130 2.11  18 2.96  38 2.96

  29  0.750  0.125  0.721- 118 1.83 138 1.83 219 2.03 140 2.03 137 2.10 117 2.10  19 2.96  39 2.96

  30  0.000  0.250  0.708- 134 1.81 139 1.95 140 1.95 159 1.95 160 1.95  20 2.96  40 2.96
  31  0.750  0.375  0.287- 122 1.95 142 1.95 141 1.95 121 1.95 144 1.98 223 1.98   1 2.96  21 2.96

  32  0.000  0.500  0.287-  83 1.95  84 1.95 143 1.95 144 1.95 145 1.98  22 2.96   2 2.96
  33  0.000  0.375  0.394- 125 1.95 145 1.95 126 1.95 146 1.95 147 1.98 148 1.98   3 2.96  23 2.96

  34  0.750  0.500  0.394-  87 1.95 147 1.95 168 1.95 228 1.95 142 1.98 149 1.98   4 2.96  24 2.96

  35  0.750  0.375  0.500- 129 1.95 130 1.95 149 1.95 150 1.95 152 1.98 231 1.98   5 2.96  25 2.96

  36  0.000  0.500  0.500-  91 1.95  92 1.95 151 1.95 152 1.95 146 1.98 153 2.00   6 2.96  26 2.96

  37  0.000  0.375  0.604- 133 1.89 153 1.89 156 1.95 155 1.95 134 2.02 154 2.02  27 2.96   7 2.96

  38  0.750  0.500  0.611- 157 1.86 236 1.97 176 1.97 155 1.97  95 1.97 150 2.11  28 2.96   8 2.96

  39  0.750  0.375  0.720- 138 1.83 158 1.83 239 2.03 160 2.03 157 2.10 137 2.10   9 2.96  29 2.96

  40  1.000  0.500  0.708- 154 1.81 160 1.95 159 1.95 100 1.95  99 1.95  10 2.96  30 2.96
  41  0.250  0.625  0.287- 162 1.95 222 1.95 221 1.95 161 1.95  83 1.98 164 1.98  51 2.96  71 2.96

  42  0.500  0.750  0.287- 163 1.95 164 1.95 183 1.95 184 1.95 165 1.98  72 2.96  52 2.96
  43  0.500  0.625  0.394- 165 1.95 225 1.95 166 1.95 226 1.95 167 1.98 168 1.98  53 2.96  73 2.96

  44  0.250  0.750  0.394-  88 1.95 108 1.95 167 1.95 187 1.95 169 1.98 162 1.98  54 2.96  74 2.96

  45  0.250  0.625  0.500- 169 1.95 170 1.95 229 1.95 230 1.95  91 1.98 172 1.98  55 2.96  75 2.96

  46  0.500  0.750  0.500- 171 1.95 172 1.95 191 1.95 192 1.95 166 1.98 173 2.00  56 2.96  76 2.96

  47  0.500  0.625  0.604- 233 1.90 173 1.90 175 1.95 176 1.95 174 2.01 234 2.01  77 2.95  57 2.96

  48  0.250  0.750  0.611- 177 1.86 195 1.97 175 1.97 116 1.97  96 1.97 170 2.11  58 2.96  78 2.96

  49  0.250  0.625  0.720- 178 1.83 238 1.84 180 2.03  99 2.03 177 2.10 237 2.10  59 2.96  79 2.96

  50  0.500  0.751  0.708- 174 1.81 199 1.94 200 1.94 179 1.95 180 1.95  60 2.95  80 2.98
  51  0.250  0.875  0.287- 162 1.95 182 1.95 181 1.95 161 1.95 103 1.98 184 1.98  41 2.96  61 2.96

  52  0.500  0.000  0.287- 183 1.95 184 1.95 203 1.95 204 1.95 185 1.98  62 2.96  42 2.96
  53  0.500  0.875  0.394- 165 1.95 185 1.95 166 1.95 186 1.95 187 1.98 188 1.98  43 2.96  63 2.96

  54  0.250  0.000  0.394- 108 1.95 128 1.95 187 1.95 207 1.95 189 1.98 182 1.98  44 2.96  64 2.96

  55  0.250  0.875  0.500- 169 1.95 170 1.95 189 1.95 190 1.95 111 1.98 192 1.98  45 2.96  65 2.96

  56  0.500  0.000  0.500- 191 1.95 192 1.95 211 1.95 212 1.95 186 1.98 193 1.99  46 2.96  66 2.96

  57  0.500  0.875  0.604- 173 1.89 193 1.90 195 1.95 196 1.95 174 2.01 194 2.02  47 2.96  67 2.96

  58  0.250  0.000  0.611- 197 1.86 215 1.97 195 1.97 136 1.97 116 1.97 190 2.11  68 2.96  48 2.96

  59  0.250  0.875  0.721- 198 1.83 178 1.83 200 2.03 119 2.03 197 2.10 177 2.10  49 2.96  69 2.96

  60  0.500  0.000  0.708- 194 1.81 200 1.94 199 1.94 220 1.95 219 1.95  50 2.95  70 2.95
  61  0.250  0.125  0.287- 182 1.95 202 1.95 201 1.95 181 1.95 123 1.98 204 1.98  51 2.96  71 2.96

  62  0.500  0.250  0.287- 203 1.95 204 1.95 223 1.95 224 1.95 205 1.98  72 2.96  52 2.96
  63  0.500  0.125  0.394- 185 1.95 205 1.95 186 1.95 206 1.95 207 1.98 208 1.98  53 2.96  73 2.96

  64  0.250  0.250  0.394- 128 1.95 148 1.95 207 1.95 227 1.95 209 1.98 202 1.98  54 2.96  74 2.96

  65  0.250  0.125  0.500- 189 1.95 190 1.95 209 1.95 210 1.95 131 1.98 212 1.98  55 2.96  75 2.96

  66  0.500  0.250  0.500- 211 1.95 212 1.95 231 1.95 232 1.95 206 1.98 213 2.00  56 2.96  76 2.96

  67  0.500  0.125  0.604- 213 1.89 193 1.90 216 1.95 215 1.95 214 2.01 194 2.02  77 2.96  57 2.96

  68  0.250  0.250  0.611- 217 1.86 215 1.97 235 1.97 136 1.97 156 1.97 210 2.11  58 2.96  78 2.96

  69  0.250  0.125  0.721- 198 1.83 218 1.83 220 2.03 139 2.03 217 2.10 197 2.10  59 2.96  79 2.96

  70  0.500  0.250  0.708- 214 1.81 239 1.94 240 1.94 219 1.95 220 1.95  80 2.95  60 2.95
  71  0.250  0.375  0.287- 202 1.95 222 1.95 221 1.95 201 1.95 143 1.98 224 1.98  41 2.96  61 2.96

  72  0.500  0.500  0.287- 163 1.95 164 1.95 223 1.95 224 1.95 225 1.98  62 2.96  42 2.96
  73  0.500  0.375  0.394- 205 1.95 225 1.95 206 1.95 226 1.95 227 1.98 228 1.98  43 2.96  63 2.96

  74  0.250  0.500  0.394-  88 1.95 148 1.95 167 1.95 227 1.95 222 1.98 229 1.98  44 2.96  64 2.96

  75  0.250  0.375  0.500- 209 1.95 210 1.95 229 1.95 230 1.95 151 1.98 232 1.98  45 2.96  65 2.96

  76  0.500  0.500  0.500- 171 1.95 172 1.95 231 1.95 232 1.95 226 1.98 233 2.00  46 2.96  66 2.96

  77  0.500  0.375  0.604- 233 1.89 213 1.90 236 1.95 235 1.95 234 2.01 214 2.02  47 2.95  67 2.96

  78  0.250  0.500  0.611- 237 1.86 235 1.97 175 1.97 156 1.97  96 1.97 230 2.11  68 2.96  48 2.96

  79  0.250  0.375  0.720- 218 1.83 238 1.83 240 2.03 159 2.03 237 2.10 217 2.10  49 2.96  69 2.96

  80  0.500  0.499  0.709- 234 1.82 240 1.94 239 1.94 180 1.96 179 1.96  70 2.95  50 2.98
  81  0.750  0.750  0.245-   1 1.95  11 1.95
  82  0.750  0.750  0.329-   1 1.95  11 1.95   4 1.98
  83  0.098  0.625  0.287-   2 1.95  32 1.95  41 1.98
  84  0.902  0.625  0.287-   2 1.95  32 1.95   1 1.98
  85  0.000  0.750  0.352-   3 1.95  13 1.95   2 1.98
  86  0.000  0.750  0.435-   3 1.95  13 1.95   6 1.98
  87  0.848  0.625  0.394-   4 1.95  34 1.95   3 1.98
  88  0.152  0.625  0.394-  44 1.95  74 1.95   3 1.98
  89  0.750  0.750  0.458-   5 1.95  15 1.95   4 1.98
  90  0.750  0.750  0.542-   5 1.95  15 1.95   8 2.11
  91  0.098  0.625  0.500-   6 1.95  36 1.95  45 1.98
  92  0.902  0.625  0.500-   6 1.95  36 1.95   5 1.98
  93  1.000  0.750  0.565-  17 1.89   7 1.89   6 2.00
  94  0.000  0.750  0.649-  10 1.81   7 2.02  17 2.02
  95  0.850  0.625  0.607-   7 1.95   8 1.97  38 1.97
  96  0.150  0.625  0.607-   7 1.95  48 1.97  78 1.97
  97  0.750  0.750  0.672-   8 1.86   9 2.10  19 2.10
  98  0.749  0.750  0.756-   9 1.83  19 1.83
  99  0.094  0.625  0.719-  40 1.95  10 1.95  49 2.03
 100  0.906  0.625  0.719-  40 1.95  10 1.95   9 2.03
 101  0.750  0.000  0.245-  11 1.95  21 1.95
 102  0.750  0.000  0.329-  11 1.95  21 1.95  14 1.98
 103  0.098  0.875  0.287-   2 1.95  12 1.95  51 1.98
 104  0.902  0.875  0.287-   2 1.95  12 1.95  11 1.98
 105  0.000  0.000  0.352-  13 1.95  23 1.95  12 1.98
 106  0.000  0.000  0.435-  13 1.95  23 1.95  16 1.98
 107  0.848  0.875  0.394-   4 1.95  14 1.95  13 1.98
 108  0.152  0.875  0.394-  44 1.95  54 1.95  13 1.98
 109  0.750  0.000  0.458-  15 1.95  25 1.95  14 1.98
 110  0.750  0.000  0.542-  15 1.95  25 1.95  18 2.11
 111  0.098  0.875  0.500-   6 1.95  16 1.95  55 1.98
 112  0.902  0.875  0.500-   6 1.95  16 1.95  15 1.98
 113  1.000  0.000  0.565-  27 1.89  17 1.89  16 2.00
 114  1.000  1.000  0.649-  20 1.81  17 2.02  27 2.02
 115  0.850  0.875  0.607-  17 1.95   8 1.97  18 1.97
 116  0.150  0.875  0.607-  17 1.95  48 1.97  58 1.97
 117  0.750  0.000  0.672-  18 1.86  29 2.10  19 2.10
 118  0.750  1.000  0.756-  19 1.83  29 1.83
 119  0.094  0.875  0.719-  10 1.95  20 1.95  59 2.03
 120  0.906  0.875  0.719-  10 1.95  20 1.95  19 2.03
 121  0.750  0.250  0.245-  21 1.95  31 1.95
 122  0.750  0.250  0.329-  21 1.95  31 1.95  24 1.98
 123  0.098  0.125  0.287-  12 1.95  22 1.95  61 1.98
 124  0.902  0.125  0.287-  12 1.95  22 1.95  21 1.98
 125  0.000  0.250  0.352-  23 1.95  33 1.95  22 1.98
 126  0.000  0.250  0.435-  23 1.95  33 1.95  26 1.98
 127  0.848  0.125  0.394-  14 1.95  24 1.95  23 1.98
 128  0.152  0.125  0.394-  54 1.95  64 1.95  23 1.98
 129  0.750  0.250  0.458-  25 1.95  35 1.95  24 1.98
 130  0.750  0.250  0.542-  25 1.95  35 1.95  28 2.11
 131  0.098  0.125  0.500-  16 1.95  26 1.95  65 1.98
 132  0.902  0.125  0.500-  16 1.95  26 1.95  25 1.98
 133  1.000  0.250  0.565-  37 1.89  27 1.89  26 2.00
 134  1.000  0.250  0.649-  30 1.81  37 2.02  27 2.02
 135  0.850  0.125  0.607-  27 1.95  18 1.97  28 1.97
 136  0.150  0.125  0.607-  27 1.95  58 1.97  68 1.97
 137  0.750  0.250  0.672-  28 1.86  29 2.10  39 2.10
 138  0.750  0.250  0.756-  39 1.83  29 1.83
 139  0.094  0.125  0.719-  30 1.95  20 1.95  69 2.03
 140  0.906  0.125  0.719-  30 1.95  20 1.95  29 2.03
 141  0.750  0.500  0.245-   1 1.95  31 1.95
 142  0.750  0.500  0.329-   1 1.95  31 1.95  34 1.98
 143  0.098  0.375  0.287-  22 1.95  32 1.95  71 1.98
 144  0.902  0.375  0.287-  22 1.95  32 1.95  31 1.98
 145  0.000  0.500  0.352-   3 1.95  33 1.95  32 1.98
 146  0.000  0.500  0.435-   3 1.95  33 1.95  36 1.98
 147  0.848  0.375  0.394-  24 1.95  34 1.95  33 1.98
 148  0.152  0.375  0.394-  64 1.95  74 1.95  33 1.98
 149  0.750  0.500  0.458-   5 1.95  35 1.95  34 1.98
 150  0.750  0.500  0.542-   5 1.95  35 1.95  38 2.11
 151  0.098  0.375  0.500-  26 1.95  36 1.95  75 1.98
 152  0.902  0.375  0.500-  26 1.95  36 1.95  35 1.98
 153  1.000  0.500  0.565-  37 1.89   7 1.90  36 2.00
 154  0.000  0.500  0.649-  40 1.81   7 2.02  37 2.02
 155  0.850  0.375  0.607-  37 1.95  38 1.97  28 1.97
 156  0.150  0.375  0.607-  37 1.95  78 1.97  68 1.97
 157  0.751  0.500  0.672-  38 1.86   9 2.10  39 2.10
 158  0.749  0.500  0.756-  39 1.83   9 1.84
 159  0.094  0.375  0.719-  40 1.95  30 1.95  79 2.03
 160  0.906  0.375  0.719-  40 1.95  30 1.95  39 2.03
 161  0.250  0.750  0.245-  41 1.95  51 1.95
 162  0.250  0.750  0.329-  41 1.95  51 1.95  44 1.98
 163  0.598  0.625  0.287-  42 1.95  72 1.95   1 1.98
 164  0.402  0.625  0.287-  42 1.95  72 1.95  41 1.98
 165  0.500  0.750  0.352-  43 1.95  53 1.95  42 1.98
 166  0.500  0.750  0.435-  43 1.95  53 1.95  46 1.98
 167  0.348  0.625  0.394-  44 1.95  74 1.95  43 1.98
 168  0.652  0.625  0.394-   4 1.95  34 1.95  43 1.98
 169  0.250  0.750  0.458-  45 1.95  55 1.95  44 1.98
 170  0.250  0.750  0.542-  45 1.95  55 1.95  48 2.11
 171  0.598  0.625  0.500-  46 1.95  76 1.95   5 1.98
 172  0.402  0.625  0.500-  46 1.95  76 1.95  45 1.98
 173  0.500  0.750  0.565-  57 1.89  47 1.90  46 2.00
 174  0.500  0.750  0.649-  50 1.81  57 2.01  47 2.01
 175  0.350  0.625  0.607-  47 1.95  48 1.97  78 1.97
 176  0.650  0.625  0.607-  47 1.95   8 1.97  38 1.97
 177  0.250  0.750  0.672-  48 1.86  49 2.10  59 2.10
 178  0.251  0.750  0.756-  49 1.83  59 1.83
 179  0.594  0.626  0.718-  50 1.95  80 1.96   9 2.03
 180  0.406  0.626  0.718-  50 1.95  80 1.96  49 2.03
 181  0.250  0.000  0.245-  51 1.95  61 1.95
 182  0.250  0.000  0.329-  51 1.95  61 1.95  54 1.98
 183  0.598  0.875  0.287-  42 1.95  52 1.95  11 1.98
 184  0.402  0.875  0.287-  42 1.95  52 1.95  51 1.98
 185  0.500  0.000  0.352-  53 1.95  63 1.95  52 1.98
 186  0.500  0.000  0.435-  53 1.95  63 1.95  56 1.98
 187  0.348  0.875  0.394-  44 1.95  54 1.95  53 1.98
 188  0.652  0.875  0.394-   4 1.95  14 1.95  53 1.98
 189  0.250  0.000  0.458-  55 1.95  65 1.95  54 1.98
 190  0.250  0.000  0.542-  55 1.95  65 1.95  58 2.11
 191  0.598  0.875  0.500-  46 1.95  56 1.95  15 1.98
 192  0.402  0.875  0.500-  46 1.95  56 1.95  55 1.98
 193  0.500  1.000  0.565-  67 1.90  57 1.90  56 1.99
 194  0.500  0.000  0.649-  60 1.81  67 2.02  57 2.02
 195  0.350  0.875  0.607-  57 1.95  48 1.97  58 1.97
 196  0.650  0.875  0.607-  57 1.95   8 1.97  18 1.97
 197  0.250  0.000  0.672-  58 1.86  69 2.10  59 2.10
 198  0.250  1.000  0.756-  59 1.83  69 1.83
 199  0.594  0.875  0.718-  60 1.94  50 1.94  19 2.03
 200  0.406  0.875  0.718-  60 1.94  50 1.94  59 2.03
 201  0.250  0.250  0.245-  61 1.95  71 1.95
 202  0.250  0.250  0.329-  61 1.95  71 1.95  64 1.98
 203  0.598  0.125  0.287-  52 1.95  62 1.95  21 1.98
 204  0.402  0.125  0.287-  52 1.95  62 1.95  61 1.98
 205  0.500  0.250  0.352-  63 1.95  73 1.95  62 1.98
 206  0.500  0.250  0.435-  63 1.95  73 1.95  66 1.98
 207  0.348  0.125  0.394-  54 1.95  64 1.95  63 1.98
 208  0.652  0.125  0.394-  14 1.95  24 1.95  63 1.98
 209  0.250  0.250  0.458-  65 1.95  75 1.95  64 1.98
 210  0.250  0.250  0.542-  65 1.95  75 1.95  68 2.11
 211  0.598  0.125  0.500-  56 1.95  66 1.95  25 1.98
 212  0.402  0.125  0.500-  56 1.95  66 1.95  65 1.98
 213  0.500  0.250  0.565-  67 1.89  77 1.90  66 2.00
 214  0.500  0.250  0.649-  70 1.81  67 2.01  77 2.02
 215  0.350  0.125  0.607-  67 1.95  58 1.97  68 1.97
 216  0.650  0.125  0.607-  67 1.95  18 1.97  28 1.97
 217  0.250  0.250  0.672-  68 1.86  69 2.10  79 2.10
 218  0.250  0.250  0.756-  79 1.83  69 1.83
 219  0.594  0.125  0.719-  60 1.95  70 1.95  29 2.03
 220  0.406  0.125  0.719-  60 1.95  70 1.95  69 2.03
 221  0.250  0.500  0.245-  41 1.95  71 1.95
 222  0.250  0.500  0.329-  41 1.95  71 1.95  74 1.98
 223  0.598  0.375  0.287-  62 1.95  72 1.95  31 1.98
 224  0.402  0.375  0.287-  62 1.95  72 1.95  71 1.98
 225  0.500  0.500  0.352-  43 1.95  73 1.95  72 1.98
 226  0.500  0.500  0.435-  43 1.95  73 1.95  76 1.98
 227  0.348  0.375  0.394-  64 1.95  74 1.95  73 1.98
 228  0.652  0.375  0.394-  24 1.95  34 1.95  73 1.98
 229  0.250  0.500  0.458-  45 1.95  75 1.95  74 1.98
 230  0.250  0.500  0.542-  45 1.95  75 1.95  78 2.11
 231  0.598  0.375  0.500-  66 1.95  76 1.95  35 1.98
 232  0.402  0.375  0.500-  66 1.95  76 1.95  75 1.98
 233  0.500  0.500  0.565-  77 1.89  47 1.90  76 2.00
 234  0.500  0.500  0.649-  80 1.82  47 2.01  77 2.01
 235  0.350  0.375  0.607-  77 1.95  78 1.97  68 1.97
 236  0.650  0.375  0.607-  77 1.95  38 1.97  28 1.97
 237  0.249  0.500  0.672-  78 1.86  49 2.10  79 2.10
 238  0.251  0.500  0.756-  79 1.83  49 1.84
 239  0.594  0.374  0.718-  80 1.94  70 1.94  39 2.03
 240  0.406  0.374  0.718-  80 1.94  70 1.94  79 2.03


IMPORTANT INFORMATION: All symmetrisations will be switched off!
NOSYMM: (Re-)initialisation of all symmetry stuff for point group C_1.


----------------------------------------------------------------------------------------

                                     Primitive cell                                     

  volume of cell :    4700.2961

  direct lattice vectors                    reciprocal lattice vectors
    13.003980404  0.000000000  0.000000000     0.076899531  0.000000000  0.000000000
     0.000000000 11.830378115  0.000000000     0.000000000  0.084528152  0.000000000
     0.000000000  0.000000000 30.552748813     0.000000000  0.000000000  0.032730279

  length of vectors
    13.003980404 11.830378115 30.552748813     0.076899531  0.084528152  0.032730279

  position of ions in fractional coordinates (direct lattice)
     0.750000000  0.625000000  0.287188045
     0.000000000  0.750000000  0.287188045
     0.000000000  0.625000000  0.393594023
     0.750000000  0.750000000  0.393594023
     0.750000000  0.625000000  0.500000000
     0.000000000  0.750000000  0.500000000
     0.999999939  0.625012602  0.604131190
     0.750021775  0.750035515  0.610696778
     0.750003064  0.625099460  0.720187232
     0.000000016  0.750048202  0.708165271
     0.750000000  0.875000000  0.287188045
     0.000000000  0.000000000  0.287188045
     0.000000000  0.875000000  0.393594023
     0.750000000  0.000000000  0.393594023
     0.750000000  0.875000000  0.500000000
     0.000000000  0.000000000  0.500000000
     0.999999991  0.875008991  0.604144304
     0.749983712  0.000012875  0.610796716
     0.749876203  0.874991967  0.720525488
     0.999999989  0.999985733  0.708180187
     0.750000000  0.125000000  0.287188045
     0.000000000  0.250000000  0.287188045
     0.000000000  0.125000000  0.393594023
     0.750000000  0.250000000  0.393594023
     0.750000000  0.125000000  0.500000000
     0.000000000  0.250000000  0.500000000
     0.000000067  0.124986485  0.604150370
     0.750020773  0.249966864  0.610793409
     0.749936140  0.125009463  0.720500285
     0.000000014  0.249968494  0.708178592
     0.750000000  0.375000000  0.287188045
     0.000000000  0.500000000  0.287188045
     0.000000000  0.375000000  0.393594023
     0.750000000  0.500000000  0.393594023
     0.750000000  0.375000000  0.500000000
     0.000000000  0.500000000  0.500000000
     0.000000084  0.374994155  0.604134382
     0.750042567  0.499977077  0.610710241
     0.750059276  0.375070994  0.720471486
     0.999999993  0.500046918  0.708154109
     0.250000000  0.625000000  0.287188045
     0.500000000  0.750000000  0.287188045
     0.500000000  0.625000000  0.393594023
     0.250000000  0.750000000  0.393594023
     0.250000000  0.625000000  0.500000000
     0.500000000  0.750000000  0.500000000
     0.499999957  0.624723114  0.604426797
     0.249978087  0.750035507  0.610696776
     0.249996934  0.625099468  0.720187222
     0.500000013  0.750558309  0.708051210
     0.250000000  0.875000000  0.287188045
     0.500000000  0.000000000  0.287188045
     0.500000000  0.875000000  0.393594023
     0.250000000  0.000000000  0.393594023
     0.250000000  0.875000000  0.500000000
     0.500000000  0.000000000  0.500000000
     0.499999960  0.874829590  0.604010476
     0.250016350  0.000012902  0.610796720
     0.250123805  0.874991976  0.720525490
     0.499999993  0.000021181  0.708009690
     0.250000000  0.125000000  0.287188045
     0.500000000  0.250000000  0.287188045
     0.500000000  0.125000000  0.393594023
     0.250000000  0.250000000  0.393594023
     0.250000000  0.125000000  0.500000000
     0.500000000  0.250000000  0.500000000
     0.500000115  0.125111211  0.604000284
     0.249979426  0.249966827  0.610793415
     0.250063854  0.125009463  0.720500296
     0.500000007  0.249718714  0.708000713
     0.250000000  0.375000000  0.287188045
     0.500000000  0.500000000  0.287188045
     0.500000000  0.375000000  0.393594023
     0.250000000  0.500000000  0.393594023
     0.250000000  0.375000000  0.500000000
     0.500000000  0.500000000  0.500000000
     0.500000048  0.375282353  0.604348479
     0.249957422  0.499977084  0.610710236
     0.249940730  0.375071005  0.720471484
     0.499999991  0.499006492  0.708759231
     0.750000000  0.750000000  0.245477094
     0.750000000  0.750000000  0.328898996
     0.097999548  0.625000000  0.287188045
     0.902000452  0.625000000  0.287188045
     0.000000000  0.750000000  0.351883072
     0.000000000  0.750000000  0.435304973
     0.847999548  0.625000000  0.393594023
     0.152000452  0.625000000  0.393594023
     0.750000000  0.750000000  0.458289049
     0.750000000  0.750000000  0.541710951
     0.097999548  0.625000000  0.500000000
     0.902000452  0.625000000  0.500000000
     0.999999990  0.750025588  0.565355333
     0.000000005  0.749981456  0.649035189
     0.850229499  0.625032780  0.607079483
     0.149770494  0.625032778  0.607079472
     0.750354406  0.750128887  0.671626480
     0.749399844  0.749722498  0.755915954
     0.094084822  0.624985662  0.718842108
     0.905915176  0.624985663  0.718842110
     0.750000000  0.000000000  0.245477094
     0.750000000  0.000000000  0.328898996
     0.097999548  0.875000000  0.287188045
     0.902000452  0.875000000  0.287188045
     0.000000000  0.000000000  0.351883072
     0.000000000  0.000000000  0.435304973
     0.847999548  0.875000000  0.393594023
     0.152000452  0.875000000  0.393594023
     0.750000000  0.000000000  0.458289049
     0.750000000  0.000000000  0.541710951
     0.097999548  0.875000000  0.500000000
     0.902000452  0.875000000  0.500000000
     0.999999988  0.000010652  0.565363103
     0.999999997  0.999970796  0.649051065
     0.850226219  0.875030737  0.607113025
     0.149773765  0.875030742  0.607113012
     0.750146101  0.000023829  0.671695076
     0.750114644  0.999965554  0.755974731
     0.094082744  0.874929697  0.718816649
     0.905917254  0.874929691  0.718816649
     0.750000000  0.250000000  0.245477094
     0.750000000  0.250000000  0.328898996
     0.097999548  0.125000000  0.287188045
     0.902000452  0.125000000  0.287188045
     0.000000000  0.250000000  0.351883072
     0.000000000  0.250000000  0.435304973
     0.847999548  0.125000000  0.393594023
     0.152000452  0.125000000  0.393594023
     0.750000000  0.250000000  0.458289049
     0.750000000  0.250000000  0.541710951
     0.097999548  0.125000000  0.500000000
     0.902000452  0.125000000  0.500000000
     0.999999987  0.249978044  0.565364902
     0.999999998  0.250049072  0.649053084
     0.850239320  0.124967262  0.607133411
     0.149760664  0.124967262  0.607133402
     0.750370768  0.249873718  0.671673122
     0.749925546  0.250146461  0.755946268
     0.094040314  0.125033351  0.718792433
     0.905959685  0.125033354  0.718792434
     0.750000000  0.500000000  0.245477094
     0.750000000  0.500000000  0.328898996
     0.097999548  0.375000000  0.287188045
     0.902000452  0.375000000  0.287188045
     0.000000000  0.500000000  0.351883072
     0.000000000  0.500000000  0.435304973
     0.847999548  0.375000000  0.393594023
     0.152000452  0.375000000  0.393594023
     0.750000000  0.500000000  0.458289049
     0.750000000  0.500000000  0.541710951
     0.097999548  0.375000000  0.500000000
     0.902000452  0.375000000  0.500000000
     0.999999989  0.499994627  0.565354829
     0.000000001  0.500020295  0.649027108
     0.850230187  0.374983598  0.607097998
     0.149769788  0.374983585  0.607097984
     0.750521699  0.500033238  0.671624992
     0.748815268  0.500305633  0.755885907
     0.094086766  0.375122992  0.718859990
     0.905913228  0.375122991  0.718859988
     0.250000000  0.750000000  0.245477094
     0.250000000  0.750000000  0.328898996
     0.597999548  0.625000000  0.287188045
     0.402000452  0.625000000  0.287188045
     0.500000000  0.750000000  0.351883072
     0.500000000  0.750000000  0.435304973
     0.347999548  0.625000000  0.393594023
     0.652000452  0.625000000  0.393594023
     0.250000000  0.750000000  0.458289049
     0.250000000  0.750000000  0.541710951
     0.597999548  0.625000000  0.500000000
     0.402000452  0.625000000  0.500000000
     0.499999988  0.749718233  0.565368509
     0.500000009  0.750330382  0.648907594
     0.350111777  0.624996492  0.607215633
     0.649888212  0.624996490  0.607215619
     0.249645561  0.750128896  0.671626478
     0.250600156  0.749722492  0.755915952
     0.594194168  0.625583920  0.718236634
     0.405805811  0.625583912  0.718236606
     0.250000000  0.000000000  0.245477094
     0.250000000  0.000000000  0.328898996
     0.597999548  0.875000000  0.287188045
     0.402000452  0.875000000  0.287188045
     0.500000000  0.000000000  0.351883072
     0.500000000  0.000000000  0.435304973
     0.347999548  0.875000000  0.393594023
     0.652000452  0.875000000  0.393594023
     0.250000000  0.000000000  0.458289049
     0.250000000  0.000000000  0.541710951
     0.597999548  0.875000000  0.500000000
     0.402000452  0.875000000  0.500000000
     0.499999988  0.999965144  0.565275178
     0.499999998  0.000078865  0.648886703
     0.350118431  0.875011847  0.607111520
     0.649881560  0.875011854  0.607111509
     0.249853884  0.000023820  0.671695080
     0.249885346  0.999965555  0.755974738
     0.594206204  0.875337296  0.718484562
     0.405793793  0.875337295  0.718484568
     0.250000000  0.250000000  0.245477094
     0.250000000  0.250000000  0.328898996
     0.597999548  0.125000000  0.287188045
     0.402000452  0.125000000  0.287188045
     0.500000000  0.250000000  0.351883072
     0.500000000  0.250000000  0.435304973
     0.347999548  0.125000000  0.393594023
     0.652000452  0.125000000  0.393594023
     0.250000000  0.250000000  0.458289049
     0.250000000  0.250000000  0.541710951
     0.597999548  0.125000000  0.500000000
     0.402000452  0.125000000  0.500000000
     0.499999986  0.250258952  0.565348191
     0.499999998  0.249552693  0.648880591
     0.350103752  0.124991043  0.607104283
     0.649896220  0.124991051  0.607104265
     0.249629213  0.249873722  0.671673125
     0.250074449  0.250146470  0.755946272
     0.594165485  0.124869545  0.718697195
     0.405834514  0.124869549  0.718697202
     0.250000000  0.500000000  0.245477094
     0.250000000  0.500000000  0.328898996
     0.597999548  0.375000000  0.287188045
     0.402000452  0.375000000  0.287188045
     0.500000000  0.500000000  0.351883072
     0.500000000  0.500000000  0.435304973
     0.347999548  0.375000000  0.393594023
     0.652000452  0.375000000  0.393594023
     0.250000000  0.500000000  0.458289049
     0.250000000  0.500000000  0.541710951
     0.597999548  0.375000000  0.500000000
     0.402000452  0.375000000  0.500000000
     0.499999988  0.500009952  0.565445434
     0.500000010  0.499946207  0.649265036
     0.350114586  0.375000884  0.607233860
     0.649885401  0.375000880  0.607233846
     0.249478263  0.500033224  0.671624988
     0.251184731  0.500305644  0.755885903
     0.594380379  0.374260879  0.718008979
     0.405619619  0.374260885  0.718008977

  ion indices of the primitive-cell ions
   primitive index   ion index
                 1           1
                 2           2
                 3           3
                 4           4
                 5           5
                 6           6
                 7           7
                 8           8
                 9           9
                10          10
                11          11
                12          12
                13          13
                14          14
                15          15
                16          16
                17          17
                18          18
                19          19
                20          20
                21          21
                22          22
                23          23
                24          24
                25          25
                26          26
                27          27
                28          28
                29          29
                30          30
                31          31
                32          32
                33          33
                34          34
                35          35
                36          36
                37          37
                38          38
                39          39
                40          40
                41          41
                42          42
                43          43
                44          44
                45          45
                46          46
                47          47
                48          48
                49          49
                50          50
                51          51
                52          52
                53          53
                54          54
                55          55
                56          56
                57          57
                58          58
                59          59
                60          60
                61          61
                62          62
                63          63
                64          64
                65          65
                66          66
                67          67
                68          68
                69          69
                70          70
                71          71
                72          72
                73          73
                74          74
                75          75
                76          76
                77          77
                78          78
                79          79
                80          80
                81          81
                82          82
                83          83
                84          84
                85          85
                86          86
                87          87
                88          88
                89          89
                90          90
                91          91
                92          92
                93          93
                94          94
                95          95
                96          96
                97          97
                98          98
                99          99
               100         100
               101         101
               102         102
               103         103
               104         104
               105         105
               106         106
               107         107
               108         108
               109         109
               110         110
               111         111
               112         112
               113         113
               114         114
               115         115
               116         116
               117         117
               118         118
               119         119
               120         120
               121         121
               122         122
               123         123
               124         124
               125         125
               126         126
               127         127
               128         128
               129         129
               130         130
               131         131
               132         132
               133         133
               134         134
               135         135
               136         136
               137         137
               138         138
               139         139
               140         140
               141         141
               142         142
               143         143
               144         144
               145         145
               146         146
               147         147
               148         148
               149         149
               150         150
               151         151
               152         152
               153         153
               154         154
               155         155
               156         156
               157         157
               158         158
               159         159
               160         160
               161         161
               162         162
               163         163
               164         164
               165         165
               166         166
               167         167
               168         168
               169         169
               170         170
               171         171
               172         172
               173         173
               174         174
               175         175
               176         176
               177         177
               178         178
               179         179
               180         180
               181         181
               182         182
               183         183
               184         184
               185         185
               186         186
               187         187
               188         188
               189         189
               190         190
               191         191
               192         192
               193         193
               194         194
               195         195
               196         196
               197         197
               198         198
               199         199
               200         200
               201         201
               202         202
               203         203
               204         204
               205         205
               206         206
               207         207
               208         208
               209         209
               210         210
               211         211
               212         212
               213         213
               214         214
               215         215
               216         216
               217         217
               218         218
               219         219
               220         220
               221         221
               222         222
               223         223
               224         224
               225         225
               226         226
               227         227
               228         228
               229         229
               230         230
               231         231
               232         232
               233         233
               234         234
               235         235
               236         236
               237         237
               238         238
               239         239
               240         240

----------------------------------------------------------------------------------------



 KPOINTS: pymatgen v2020.8.13 with grid density = 

Automatic generation of k-mesh.
 Grid dimensions read from file:
 generate k-points for:    2    2    1

 Generating k-lattice:

  Cartesian coordinates                     Fractional coordinates (reciprocal lattice)
     0.038449766  0.000000000  0.000000000     0.500000000  0.000000000  0.000000000
     0.000000000  0.042264076  0.000000000     0.000000000  0.500000000  0.000000000
     0.000000000  0.000000000  0.032730279     0.000000000  0.000000000  1.000000000

  Length of vectors
     0.038449766  0.042264076  0.032730279

  Shift w.r.t. Gamma in fractional coordinates (k-lattice)
     0.000000000  0.000000000  0.000000000

 
 Subroutine IBZKPT returns following result:
 ===========================================
 
 Found      4 irreducible k-points:
 
 Following reciprocal coordinates:
            Coordinates               Weight
  0.000000  0.000000  0.000000      1.000000
  0.500000  0.000000  0.000000      1.000000
  0.000000  0.500000  0.000000      1.000000
  0.500000  0.500000  0.000000      1.000000
 
 Following cartesian coordinates:
            Coordinates               Weight
  0.000000  0.000000  0.000000      1.000000
  0.038450  0.000000  0.000000      1.000000
  0.000000  0.042264  0.000000      1.000000
  0.038450  0.042264  0.000000      1.000000
 
 
 Subroutine IBZKPT_HF returns following result:
 ==============================================
 
 Found      4 k-points in 1st BZ
 the following      4 k-points will be used (e.g. in the exchange kernel)
 Following reciprocal coordinates:   # in IRBZ
  0.000000  0.000000  0.000000    0.25000000   1 t-inv F
  0.500000  0.000000  0.000000    0.25000000   2 t-inv F
  0.000000  0.500000  0.000000    0.25000000   3 t-inv F
  0.500000  0.500000  0.000000    0.25000000   4 t-inv F


--------------------------------------------------------------------------------------------------------




 Dimension of arrays:
   k-points           NKPTS =      4   k-points in BZ     NKDIM =      4   number of bands    NBANDS=    768
   number of dos      NEDOS =    301   number of ions     NIONS =    240
   non local maximal  LDIM  =      5   non local SUM 2l+1 LMDIM =     15
   total plane-waves  NPLWV = ******
   max r-space proj   IRMAX =      1   max aug-charges    IRDMAX=  15009
   dimension x,y,z NGX =    80 NGY =   70 NGZ =  180
   dimension x,y,z NGXF=   160 NGYF=  140 NGZF=  360
   support grid    NGXF=   160 NGYF=  140 NGZF=  360
   ions per type =              80 160
   NGX,Y,Z   is equivalent  to a cutoff of  10.23,  9.84,  9.79 a.u.
   NGXF,Y,Z  is equivalent  to a cutoff of  20.45, 19.67, 19.59 a.u.

 SYSTEM =  TiO2                                    
 POSCAR =  Ti  O                                   

--------------------------------------------------------------------------------------------------------


  energy-cutoff  :      520.00
  volume of cell :     4700.30
      direct lattice vectors                 reciprocal lattice vectors
    13.003980404  0.000000000  0.000000000     0.076899531  0.000000000  0.000000000
     0.000000000 11.830378115  0.000000000     0.000000000  0.084528152  0.000000000
     0.000000000  0.000000000 30.552748813     0.000000000  0.000000000  0.032730279

  length of vectors
    13.003980404 11.830378115 30.552748813     0.076899531  0.084528152  0.032730279



 k-points in units of 2pi/SCALE and weight: pymatgen v2020.8.13 with grid density = 
   0.00000000  0.00000000  0.00000000       0.250
   0.03844977  0.00000000  0.00000000       0.250
   0.00000000  0.04226408  0.00000000       0.250
   0.03844977  0.04226408  0.00000000       0.250

 k-points in reciprocal lattice and weights: pymatgen v2020.8.13 with grid density = 
   0.00000000  0.00000000  0.00000000       0.250
   0.50000000  0.00000000  0.00000000       0.250
   0.00000000  0.50000000  0.00000000       0.250
   0.50000000  0.50000000  0.00000000       0.250

 position of ions in fractional coordinates (direct lattice) 
   0.75000000  0.62500000  0.28718805
   0.00000000  0.75000000  0.28718805
   0.00000000  0.62500000  0.39359402
   0.75000000  0.75000000  0.39359402
   0.75000000  0.62500000  0.50000000
   0.00000000  0.75000000  0.50000000
   0.99999994  0.62501260  0.60413119
   0.75002178  0.75003552  0.61069678
   0.75000306  0.62509946  0.72018723
   0.00000002  0.75004820  0.70816527
   0.75000000  0.87500000  0.28718805
   0.00000000  0.00000000  0.28718805
   0.00000000  0.87500000  0.39359402
   0.75000000  0.00000000  0.39359402
   0.75000000  0.87500000  0.50000000
   0.00000000  0.00000000  0.50000000
   0.99999999  0.87500899  0.60414430
   0.74998371  0.00001288  0.61079672
   0.74987620  0.87499197  0.72052549
   0.99999999  0.99998573  0.70818019
   0.75000000  0.12500000  0.28718805
   0.00000000  0.25000000  0.28718805
   0.00000000  0.12500000  0.39359402
   0.75000000  0.25000000  0.39359402
   0.75000000  0.12500000  0.50000000
   0.00000000  0.25000000  0.50000000
   0.00000007  0.12498648  0.60415037
   0.75002077  0.24996686  0.61079341
   0.74993614  0.12500946  0.72050028
   0.00000001  0.24996849  0.70817859
   0.75000000  0.37500000  0.28718805
   0.00000000  0.50000000  0.28718805
   0.00000000  0.37500000  0.39359402
   0.75000000  0.50000000  0.39359402
   0.75000000  0.37500000  0.50000000
   0.00000000  0.50000000  0.50000000
   0.00000008  0.37499415  0.60413438
   0.75004257  0.49997708  0.61071024
   0.75005928  0.37507099  0.72047149
   0.99999999  0.50004692  0.70815411
   0.25000000  0.62500000  0.28718805
   0.50000000  0.75000000  0.28718805
   0.50000000  0.62500000  0.39359402
   0.25000000  0.75000000  0.39359402
   0.25000000  0.62500000  0.50000000
   0.50000000  0.75000000  0.50000000
   0.49999996  0.62472311  0.60442680
   0.24997809  0.75003551  0.61069678
   0.24999693  0.62509947  0.72018722
   0.50000001  0.75055831  0.70805121
   0.25000000  0.87500000  0.28718805
   0.50000000  0.00000000  0.28718805
   0.50000000  0.87500000  0.39359402
   0.25000000  0.00000000  0.39359402
   0.25000000  0.87500000  0.50000000
   0.50000000  0.00000000  0.50000000
   0.49999996  0.87482959  0.60401048
   0.25001635  0.00001290  0.61079672
   0.25012380  0.87499198  0.72052549
   0.49999999  0.00002118  0.70800969
   0.25000000  0.12500000  0.28718805
   0.50000000  0.25000000  0.28718805
   0.50000000  0.12500000  0.39359402
   0.25000000  0.25000000  0.39359402
   0.25000000  0.12500000  0.50000000
   0.50000000  0.25000000  0.50000000
   0.50000011  0.12511121  0.60400028
   0.24997943  0.24996683  0.61079341
   0.25006385  0.12500946  0.72050030
   0.50000001  0.24971871  0.70800071
   0.25000000  0.37500000  0.28718805
   0.50000000  0.50000000  0.28718805
   0.50000000  0.37500000  0.39359402
   0.25000000  0.50000000  0.39359402
   0.25000000  0.37500000  0.50000000
   0.50000000  0.50000000  0.50000000
   0.50000005  0.37528235  0.60434848
   0.24995742  0.49997708  0.61071024
   0.24994073  0.37507101  0.72047148
   0.49999999  0.49900649  0.70875923
   0.75000000  0.75000000  0.24547709
   0.75000000  0.75000000  0.32889900
   0.09799955  0.62500000  0.28718805
   0.90200045  0.62500000  0.28718805
   0.00000000  0.75000000  0.35188307
   0.00000000  0.75000000  0.43530497
   0.84799955  0.62500000  0.39359402
   0.15200045  0.62500000  0.39359402
   0.75000000  0.75000000  0.45828905
   0.75000000  0.75000000  0.54171095
   0.09799955  0.62500000  0.50000000
   0.90200045  0.62500000  0.50000000
   0.99999999  0.75002559  0.56535533
   0.00000001  0.74998146  0.64903519
   0.85022950  0.62503278  0.60707948
   0.14977049  0.62503278  0.60707947
   0.75035441  0.75012889  0.67162648
   0.74939984  0.74972250  0.75591595
   0.09408482  0.62498566  0.71884211
   0.90591518  0.62498566  0.71884211
   0.75000000  0.00000000  0.24547709
   0.75000000  0.00000000  0.32889900
   0.09799955  0.87500000  0.28718805
   0.90200045  0.87500000  0.28718805
   0.00000000  0.00000000  0.35188307
   0.00000000  0.00000000  0.43530497
   0.84799955  0.87500000  0.39359402
   0.15200045  0.87500000  0.39359402
   0.75000000  0.00000000  0.45828905
   0.75000000  0.00000000  0.54171095
   0.09799955  0.87500000  0.50000000
   0.90200045  0.87500000  0.50000000
   0.99999999  0.00001065  0.56536310
   1.00000000  0.99997080  0.64905107
   0.85022622  0.87503074  0.60711302
   0.14977377  0.87503074  0.60711301
   0.75014610  0.00002383  0.67169508
   0.75011464  0.99996555  0.75597473
   0.09408274  0.87492970  0.71881665
   0.90591725  0.87492969  0.71881665
   0.75000000  0.25000000  0.24547709
   0.75000000  0.25000000  0.32889900
   0.09799955  0.12500000  0.28718805
   0.90200045  0.12500000  0.28718805
   0.00000000  0.25000000  0.35188307
   0.00000000  0.25000000  0.43530497
   0.84799955  0.12500000  0.39359402
   0.15200045  0.12500000  0.39359402
   0.75000000  0.25000000  0.45828905
   0.75000000  0.25000000  0.54171095
   0.09799955  0.12500000  0.50000000
   0.90200045  0.12500000  0.50000000
   0.99999999  0.24997804  0.56536490
   1.00000000  0.25004907  0.64905308
   0.85023932  0.12496726  0.60713341
   0.14976066  0.12496726  0.60713340
   0.75037077  0.24987372  0.67167312
   0.74992555  0.25014646  0.75594627
   0.09404031  0.12503335  0.71879243
   0.90595968  0.12503335  0.71879243
   0.75000000  0.50000000  0.24547709
   0.75000000  0.50000000  0.32889900
   0.09799955  0.37500000  0.28718805
   0.90200045  0.37500000  0.28718805
   0.00000000  0.50000000  0.35188307
   0.00000000  0.50000000  0.43530497
   0.84799955  0.37500000  0.39359402
   0.15200045  0.37500000  0.39359402
   0.75000000  0.50000000  0.45828905
   0.75000000  0.50000000  0.54171095
   0.09799955  0.37500000  0.50000000
   0.90200045  0.37500000  0.50000000
   0.99999999  0.49999463  0.56535483
   0.00000000  0.50002030  0.64902711
   0.85023019  0.37498360  0.60709800
   0.14976979  0.37498359  0.60709798
   0.75052170  0.50003324  0.67162499
   0.74881527  0.50030563  0.75588591
   0.09408677  0.37512299  0.71885999
   0.90591323  0.37512299  0.71885999
   0.25000000  0.75000000  0.24547709
   0.25000000  0.75000000  0.32889900
   0.59799955  0.62500000  0.28718805
   0.40200045  0.62500000  0.28718805
   0.50000000  0.75000000  0.35188307
   0.50000000  0.75000000  0.43530497
   0.34799955  0.62500000  0.39359402
   0.65200045  0.62500000  0.39359402
   0.25000000  0.75000000  0.45828905
   0.25000000  0.75000000  0.54171095
   0.59799955  0.62500000  0.50000000
   0.40200045  0.62500000  0.50000000
   0.49999999  0.74971823  0.56536851
   0.50000001  0.75033038  0.64890759
   0.35011178  0.62499649  0.60721563
   0.64988821  0.62499649  0.60721562
   0.24964556  0.75012890  0.67162648
   0.25060016  0.74972249  0.75591595
   0.59419417  0.62558392  0.71823663
   0.40580581  0.62558391  0.71823661
   0.25000000  0.00000000  0.24547709
   0.25000000  0.00000000  0.32889900
   0.59799955  0.87500000  0.28718805
   0.40200045  0.87500000  0.28718805
   0.50000000  0.00000000  0.35188307
   0.50000000  0.00000000  0.43530497
   0.34799955  0.87500000  0.39359402
   0.65200045  0.87500000  0.39359402
   0.25000000  0.00000000  0.45828905
   0.25000000  0.00000000  0.54171095
   0.59799955  0.87500000  0.50000000
   0.40200045  0.87500000  0.50000000
   0.49999999  0.99996514  0.56527518
   0.50000000  0.00007887  0.64888670
   0.35011843  0.87501185  0.60711152
   0.64988156  0.87501185  0.60711151
   0.24985388  0.00002382  0.67169508
   0.24988535  0.99996556  0.75597474
   0.59420620  0.87533730  0.71848456
   0.40579379  0.87533729  0.71848457
   0.25000000  0.25000000  0.24547709
   0.25000000  0.25000000  0.32889900
   0.59799955  0.12500000  0.28718805
   0.40200045  0.12500000  0.28718805
   0.50000000  0.25000000  0.35188307
   0.50000000  0.25000000  0.43530497
   0.34799955  0.12500000  0.39359402
   0.65200045  0.12500000  0.39359402
   0.25000000  0.25000000  0.45828905
   0.25000000  0.25000000  0.54171095
   0.59799955  0.12500000  0.50000000
   0.40200045  0.12500000  0.50000000
   0.49999999  0.25025895  0.56534819
   0.50000000  0.24955269  0.64888059
   0.35010375  0.12499104  0.60710428
   0.64989622  0.12499105  0.60710427
   0.24962921  0.24987372  0.67167313
   0.25007445  0.25014647  0.75594627
   0.59416548  0.12486955  0.71869720
   0.40583451  0.12486955  0.71869720
   0.25000000  0.50000000  0.24547709
   0.25000000  0.50000000  0.32889900
   0.59799955  0.37500000  0.28718805
   0.40200045  0.37500000  0.28718805
   0.50000000  0.50000000  0.35188307
   0.50000000  0.50000000  0.43530497
   0.34799955  0.37500000  0.39359402
   0.65200045  0.37500000  0.39359402
   0.25000000  0.50000000  0.45828905
   0.25000000  0.50000000  0.54171095
   0.59799955  0.37500000  0.50000000
   0.40200045  0.37500000  0.50000000
   0.49999999  0.50000995  0.56544543
   0.50000001  0.49994621  0.64926504
   0.35011459  0.37500088  0.60723386
   0.64988540  0.37500088  0.60723385
   0.24947826  0.50003322  0.67162499
   0.25118473  0.50030564  0.75588590
   0.59438038  0.37426088  0.71800898
   0.40561962  0.37426088  0.71800898

 position of ions in cartesian coordinates  (Angst):
   9.75298530  7.39398632  8.77438420
   0.00000000  8.87278359  8.77438420
   0.00000000  7.39398632 12.02537931
   9.75298530  8.87278359 12.02537931
   9.75298530  7.39398632 15.27637441
   0.00000000  8.87278359 15.27637441
  13.00397961  7.39413540 18.45786850
   9.75326847  8.87320374 18.65846526
   9.75302515  7.39516297 22.00369959
   0.00000020  8.87335383 21.63639566
   9.75298530 10.35158085  8.77438420
   0.00000000  0.00000000  8.77438420
   0.00000000 10.35158085 12.02537931
   9.75298530  0.00000000 12.02537931
   9.75298530 10.35158085 15.27637441
   0.00000000  0.00000000 15.27637441
  13.00398028 10.35168722 18.45826915
   9.75277350  0.00015232 18.66151865
   9.75137544 10.35148582 22.01403425
  13.00398025 11.83020933 21.63685136
   9.75298530  1.47879726  8.77438420
   0.00000000  2.95759453  8.77438420
   0.00000000  1.47879726 12.02537931
   9.75298530  2.95759453 12.02537931
   9.75298530  1.47879726 15.27637441
   0.00000000  2.95759453 15.27637441
   0.00000087  1.47863738 18.45845449
   9.75325544  2.95720251 18.66141760
   9.75215487  1.47890921 22.01326422
   0.00000019  2.95722180 21.63680264
   9.75298530  4.43639179  8.77438420
   0.00000000  5.91518906  8.77438420
   0.00000000  4.43639179 12.02537931
   9.75298530  5.91518906 12.02537931
   9.75298530  4.43639179 15.27637441
   0.00000000  5.91518906 15.27637441
   0.00000109  4.43632264 18.45796603
   9.75353884  5.91491787 18.65887660
   9.75375613  4.43723168 22.01238434
  13.00398031  5.91574411 21.63605463
   3.25099510  7.39398632  8.77438420
   6.50199020  8.87278359  8.77438420
   6.50199020  7.39398632 12.02537931
   3.25099510  8.87278359 12.02537931
   3.25099510  7.39398632 15.27637441
   6.50199020  8.87278359 15.27637441
   6.50198964  7.39071065 18.46690011
   3.25071015  8.87320365 18.65846520
   3.25095523  7.39516307 22.00369931
   6.50199036  8.87938859 21.63291076
   3.25099510 10.35158085  8.77438420
   6.50199020  0.00000000  8.77438420
   6.50199020 10.35158085 12.02537931
   3.25099510  0.00000000 12.02537931
   3.25099510 10.35158085 15.27637441
   6.50199020  0.00000000 15.27637441
   6.50198968 10.34956484 18.45418034
   3.25120772  0.00015263 18.66151877
   3.25260506 10.35148592 22.01403431
   6.50199011  0.00025058 21.63164221
   3.25099510  1.47879726  8.77438420
   6.50199020  2.95759453  8.77438420
   6.50199020  1.47879726 12.02537931
   3.25099510  2.95759453 12.02537931
   3.25099510  1.47879726 15.27637441
   6.50199020  2.95759453 15.27637441
   6.50199169  1.48011293 18.45386895
   3.25072756  2.95720208 18.66141777
   3.25182546  1.47890922 22.01326456
   6.50199029  2.95426680 21.63136794
   3.25099510  4.43639179  8.77438420
   6.50199020  5.91518906  8.77438420
   6.50199020  4.43639179 12.02537931
   3.25099510  5.91518906 12.02537931
   3.25099510  4.43639179 15.27637441
   6.50199020  5.91518906 15.27637441
   6.50199083  4.43973214 18.46450727
   3.25044142  5.91491795 18.65887643
   3.25022436  4.43723181 22.01238427
   6.50199009  5.90343549 21.65454277
   9.75298530  8.87278359  7.50000000
   9.75298530  8.87278359 10.04876841
   1.27438420  7.39398632  8.77438420
  11.72959620  7.39398632  8.77438420
   0.00000000  8.87278359 10.75099510
   0.00000000  8.87278359 13.29976351
  11.02736951  7.39398632 12.02537931
   1.97661090  7.39398632 12.02537931
   9.75298530  8.87278359 14.00199020
   9.75298530  8.87278359 16.55075861
   1.27438420  7.39398632 15.27637441
  11.72959620  7.39398632 15.27637441
  13.00398027  8.87308631 17.27315949
   0.00000007  8.87256420 19.82980910
  11.05636774  7.39437412 18.54794696
   1.94761256  7.39437410 18.54794661
   9.75759399  8.87430837 20.52003514
   9.74518089  8.86950063 23.09531027
   1.22347718  7.39381669 21.96260237
  11.78050320  7.39381671 21.96260242
   9.75298530  0.00000000  7.50000000
   9.75298530  0.00000000 10.04876841
   1.27438420 10.35158085  8.77438420
  11.72959620 10.35158085  8.77438420
   0.00000000  0.00000000 10.75099510
   0.00000000  0.00000000 13.29976351
  11.02736951 10.35158085 12.02537931
   1.97661090 10.35158085 12.02537931
   9.75298530  0.00000000 14.00199020
   9.75298530  0.00000000 16.55075861
   1.27438420 10.35158085 15.27637441
  11.72959620 10.35158085 15.27637441
  13.00398025  0.00012602 17.27339689
  13.00398036 11.83003262 19.83029416
  11.05632509 10.35194448 18.54897175
   1.94765511 10.35194454 18.54897135
   9.75488519  0.00028191 20.52213092
   9.75447613 11.82997061 23.09710607
   1.22345017 10.35074913 21.96182453
  11.78053022 10.35074907 21.96182453
   9.75298530  2.95759453  7.50000000
   9.75298530  2.95759453 10.04876841
   1.27438420  1.47879726  8.77438420
  11.72959620  1.47879726  8.77438420
   0.00000000  2.95759453 10.75099510
   0.00000000  2.95759453 13.29976351
  11.02736951  1.47879726 12.02537931
   1.97661090  1.47879726 12.02537931
   9.75298530  2.95759453 14.00199020
   9.75298530  2.95759453 16.55075861
   1.27438420  1.47879726 15.27637441
  11.72959620  1.47879726 15.27637441
  13.00398023  2.95733478 17.27345183
  13.00398037  2.95817507 19.83035586
  11.05649545  1.47840996 18.54959460
   1.94748474  1.47840996 18.54959433
   9.75780676  2.95610056 20.52146017
   9.75201710  2.95932722 23.09623645
   1.22289840  1.47919182 21.96108466
  11.78108199  1.47919186 21.96108468
   9.75298530  5.91518906  7.50000000
   9.75298530  5.91518906 10.04876841
   1.27438420  4.43639179  8.77438420
  11.72959620  4.43639179  8.77438420
   0.00000000  5.91518906 10.75099510
   0.00000000  5.91518906 13.29976351
  11.02736951  4.43639179 12.02537931
   1.97661090  4.43639179 12.02537931
   9.75298530  5.91518906 14.00199020
   9.75298530  5.91518906 16.55075861
   1.27438420  4.43639179 15.27637441
  11.72959620  4.43639179 15.27637441
  13.00398026  5.91512549 17.27314407
   0.00000001  5.91542916 19.82956220
  11.05637669  4.43619775 18.54851265
   1.94760339  4.43619760 18.54851221
   9.75976947  5.91558227 20.51998967
   9.73757907  5.91880481 23.09439225
   1.22350246  4.43784683 21.96314872
  11.78047786  4.43784682 21.96314864
   3.25099510  8.87278359  7.50000000
   3.25099510  8.87278359 10.04876841
   7.77637441  7.39398632  8.77438420
   5.22760600  7.39398632  8.77438420
   6.50199020  8.87278359 10.75099510
   6.50199020  8.87278359 13.29976351
   4.52537931  7.39398632 12.02537931
   8.47860110  7.39398632 12.02537931
   3.25099510  8.87278359 14.00199020
   3.25099510  8.87278359 16.55075861
   7.77637441  7.39398632 15.27637441
   5.22760600  7.39398632 15.27637441
   6.50199005  8.86945017 17.27356205
   6.50199031  8.87669213 19.82591071
   4.55284669  7.39394482 18.55210670
   8.45113357  7.39394480 18.55210629
   3.24638598  8.87430847 20.52003509
   3.25879952  8.86950057 23.09531021
   7.72688931  7.40089432 21.94410345
   5.27709082  7.40089422 21.94410260
   3.25099510  0.00000000  7.50000000
   3.25099510  0.00000000 10.04876841
   7.77637441 10.35158085  8.77438420
   5.22760600 10.35158085  8.77438420
   6.50199020  0.00000000 10.75099510
   6.50199020  0.00000000 13.29976351
   4.52537931 10.35158085 12.02537931
   8.47860110 10.35158085 12.02537931
   3.25099510  0.00000000 14.00199020
   3.25099510  0.00000000 16.55075861
   7.77637441 10.35158085 15.27637441
   5.22760600 10.35158085 15.27637441
   6.50199005 11.82996575 17.27071054
   6.50199018  0.00093300 19.82527244
   4.55293321 10.35172101 18.54892576
   8.45104707 10.35172109 18.54892545
   3.24909501  0.00028180 20.52213106
   3.24950414 11.82997062 23.09710627
   7.72704584 10.35557119 21.95167834
   5.27693453 10.35557117 21.95167852
   3.25099510  2.95759453  7.50000000
   3.25099510  2.95759453 10.04876841
   7.77637441  1.47879726  8.77438420
   5.22760600  1.47879726  8.77438420
   6.50199020  2.95759453 10.75099510
   6.50199020  2.95759453 13.29976351
   4.52537931  1.47879726 12.02537931
   8.47860110  1.47879726 12.02537931
   3.25099510  2.95759453 14.00199020
   3.25099510  2.95759453 16.55075861
   7.77637441  1.47879726 15.27637441
   5.22760600  1.47879726 15.27637441
   6.50199001  2.96065803 17.27294126
   6.50199018  2.95230272 19.82508572
   4.55274233  1.47869130 18.54870466
   8.45123771  1.47869140 18.54870412
   3.24617340  2.95610061 20.52146028
   3.25196323  2.95932732 23.09623656
   7.72651632  1.47725393 21.95817488
   5.27746406  1.47725398 21.95817509
   3.25099510  5.91518906  7.50000000
   3.25099510  5.91518906 10.04876841
   7.77637441  4.43639179  8.77438420
   5.22760600  4.43639179  8.77438420
   6.50199020  5.91518906 10.75099510
   6.50199020  5.91518906 13.29976351
   4.52537931  4.43639179 12.02537931
   8.47860110  4.43639179 12.02537931
   3.25099510  5.91518906 14.00199020
   3.25099510  5.91518906 16.55075861
   7.77637441  4.43639179 15.27637441
   5.22760600  4.43639179 15.27637441
   6.50199004  5.91530680 17.27591230
   6.50199033  5.91455267 19.83683155
   4.55288322  4.43640225 18.55266361
   8.45109701  4.43640221 18.55266318
   3.24421045  5.91558211 20.51998956
   3.26640132  5.91880495 23.09439213
   7.72931080  4.42764771 21.93714797
   5.27466957  4.42764778 21.93714791



--------------------------------------------------------------------------------------------------------

--------------------------------------- Iteration      FINAL  ---------------------------------------


--------------------OUTCAR has been truncated-------------------------


--------------------OUTCAR has been truncated-------------------------


--------------------OUTCAR has been truncated-------------------------


--------------------OUTCAR has been truncated-------------------------


--------------------OUTCAR has been truncated-------------------------


--------------------OUTCAR has been truncated-------------------------


--------------------OUTCAR has been truncated-------------------------


--------------------OUTCAR has been truncated-------------------------


--------------------OUTCAR has been truncated-------------------------


--------------------OUTCAR has been truncated-------------------------


    FORVDW:  cpu time     54.1947: real time     54.3648

  FORCE on cell =-STRESS in cart. coord.  units (eV):
  Direction    XX          YY          ZZ          XY          YZ          ZX
  --------------------------------------------------------------------------------------
  Alpha Z  2928.55071  2928.55071  2928.55071
  Ewald  514710.85141519941.14958************    -0.00000    -0.92412     0.00003
  Hartree535688.02801537095.78717************     0.00022    -0.22672    -0.00029
  E(xc)   -4634.69905 -4682.34987 -4635.42264    -0.00001     0.01466    -0.00003
  Local  ************************************    -0.00109     1.08167     0.00074
  n-local -2894.43024 -2797.01068 -2953.04608    -0.00025    -0.04542     0.00013
  augment  1338.04342  1318.20275  1342.99797     0.00015     0.00509    -0.00004
  Kinetic 23332.64925 22795.60108 23388.06898     0.00108     0.09778    -0.00070
  Fock    -2122.80531 -2147.26250 -2125.48037    -0.00011     0.00423     0.00002
  vdW       -49.24653   -49.18803   -42.90889     0.00000     0.00093    -0.00000
  -------------------------------------------------------------------------------------
  Total     -53.71849  -126.64633   -90.06691    -0.00001     0.00810    -0.00013
  in kB     -18.31088   -43.16960   -30.70087    -0.00000     0.00276    -0.00005
  external pressure =      -30.73 kB  Pullay stress =        0.00 kB


 VOLUME and BASIS-vectors are now :
 -----------------------------------------------------------------------------
  energy-cutoff  :      520.00
  volume of cell :     4700.30
      direct lattice vectors                 reciprocal lattice vectors
    13.003980404  0.000000000  0.000000000     0.076899531  0.000000000  0.000000000
     0.000000000 11.830378115  0.000000000     0.000000000  0.084528152  0.000000000
     0.000000000  0.000000000 30.552748813     0.000000000  0.000000000  0.032730279

  length of vectors
    13.003980404 11.830378115 30.552748813     0.076899531  0.084528152  0.032730279


 FORCES acting on ions:
    Electron-Ion                     Ewald-Force                    Non-Local-Force
 -----------------------------------------------------------------------------------------------
   0.217E-02 0.164E-02 0.110E+04   -.228E-02 -.163E-02 -.110E+04   -.108E-04 -.200E-05 -.120E+01
   -.172E-04 0.124E-02 0.117E+04   0.141E-07 -.119E-02 -.117E+04   -.504E-04 -.489E-05 -.178E+01
   -.241E-04 0.500E-02 0.561E+03   0.139E-07 -.492E-02 -.560E+03   -.180E-04 0.276E-04 0.171E+00
   0.871E-02 0.100E-01 0.557E+03   -.900E-02 -.957E-02 -.558E+03   -.555E-04 0.312E-03 -.162E+00
   0.887E-01 0.433E-01 -.535E+01   -.904E-01 -.431E-01 0.588E+01   -.523E-03 0.551E-04 0.205E+00
   0.413E-05 0.596E-02 -.469E+01   0.267E-05 -.369E-02 0.401E+01   0.661E-05 0.542E-03 -.732E-01
   -.496E-04 0.299E-01 -.554E+03   0.544E-04 -.295E-01 0.555E+03   -.724E-06 -.170E-03 -.297E-01
   0.504E-01 0.553E-01 -.569E+03   -.402E-01 -.535E-01 0.569E+03   -.824E-03 -.145E-02 0.718E-01
   -.676E+00 0.356E+00 -.109E+04   0.663E+00 -.357E+00 0.109E+04   0.214E-01 0.280E-02 -.510E-01
   0.285E-04 0.251E+00 -.111E+04   -.249E-04 -.265E+00 0.111E+04   -.174E-04 -.392E-02 0.731E+00
   0.125E-02 0.118E-02 0.110E+04   -.137E-02 -.101E-02 -.110E+04   -.811E-05 0.872E-04 -.120E+01
   -.445E-04 -.568E-03 0.117E+04   0.306E-07 0.554E-03 -.117E+04   0.324E-04 -.181E-05 -.178E+01
   0.155E-04 -.783E-04 0.561E+03   0.104E-06 0.241E-03 -.560E+03   0.342E-04 0.801E-04 0.171E+00
   0.766E-03 -.245E-02 0.557E+03   -.129E-02 0.262E-02 -.558E+03   -.107E-03 0.190E-03 -.162E+00
   0.464E-02 0.211E-01 -.531E+01   -.567E-02 -.117E-01 0.585E+01   -.288E-03 0.511E-02 0.208E+00
   -.928E-05 -.167E-01 -.473E+01   0.362E-05 0.182E-01 0.405E+01   -.270E-04 0.487E-03 -.726E-01
   0.741E-06 -.796E-02 -.554E+03   -.827E-05 0.628E-02 0.555E+03   0.206E-04 -.154E-02 -.301E-01
   -.630E-01 0.412E-02 -.570E+03   0.734E-01 -.863E-02 0.569E+03   0.148E-02 -.180E-02 0.754E-01
   -.343E+00 0.200E+00 -.109E+04   0.385E+00 -.230E+00 0.109E+04   0.176E-01 -.185E-01 -.672E-01
   -.179E-05 0.124E+00 -.111E+04   0.169E-05 -.136E+00 0.111E+04   -.166E-04 -.466E-02 0.737E+00
   0.104E-02 -.160E-02 0.110E+04   -.121E-02 0.163E-02 -.110E+04   -.829E-04 -.785E-04 -.120E+01
   -.281E-04 -.118E-02 0.117E+04   0.332E-07 0.119E-02 -.117E+04   -.142E-04 -.130E-04 -.178E+01
   -.712E-05 -.505E-02 0.561E+03   0.230E-06 0.493E-02 -.560E+03   -.111E-04 -.423E-04 0.171E+00
   0.629E-02 -.100E-01 0.557E+03   -.664E-02 0.957E-02 -.558E+03   -.120E-03 -.277E-03 -.162E+00
   -.985E-02 -.413E-01 -.533E+01   0.878E-02 0.402E-01 0.588E+01   -.206E-03 -.586E-03 0.210E+00
   -.131E-04 -.583E-02 -.475E+01   0.305E-05 0.350E-02 0.407E+01   -.539E-05 -.572E-03 -.724E-01
   0.637E-04 -.569E-01 -.554E+03   -.846E-04 0.573E-01 0.555E+03   -.544E-06 0.683E-03 -.285E-01
   -.593E-02 -.630E-01 -.570E+03   0.194E-01 0.618E-01 0.569E+03   0.643E-03 0.985E-03 0.717E-01
   -.439E-01 -.527E-01 -.109E+04   0.762E-01 0.479E-01 0.109E+04   0.786E-02 -.476E-02 -.677E-01
   0.147E-04 -.439E+00 -.111E+04   -.166E-04 0.460E+00 0.111E+04   0.149E-04 0.492E-02 0.732E+00
   0.200E-02 -.128E-02 0.110E+04   -.212E-02 0.101E-02 -.110E+04   -.349E-04 -.652E-04 -.120E+01
   0.149E-04 0.507E-03 0.117E+04   0.166E-07 -.554E-03 -.117E+04   -.451E-04 0.256E-04 -.178E+01
   -.137E-04 0.116E-03 0.561E+03   0.117E-06 -.254E-03 -.560E+03   -.215E-04 -.636E-04 0.171E+00
   0.144E-01 0.246E-02 0.557E+03   -.144E-01 -.261E-02 -.558E+03   0.210E-05 -.164E-03 -.162E+00
   0.749E-01 -.229E-01 -.538E+01   -.762E-01 0.144E-01 0.592E+01   -.644E-03 -.452E-02 0.208E+00
   0.531E-05 0.185E-01 -.469E+01   0.205E-05 -.199E-01 0.401E+01   0.314E-04 -.557E-03 -.733E-01
   0.113E-03 0.184E-01 -.554E+03   -.120E-03 -.161E-01 0.555E+03   -.269E-06 0.114E-02 -.301E-01
   0.135E+00 -.245E-02 -.569E+03   -.120E+00 0.814E-02 0.569E+03   -.668E-03 0.178E-02 0.687E-01
   -.502E+00 -.432E+00 -.109E+04   0.594E+00 0.462E+00 0.109E+04   0.250E-01 0.223E-01 -.594E-01
   0.858E-05 0.108E-01 -.111E+04   -.504E-05 -.363E-02 0.111E+04   0.657E-05 0.493E-02 0.726E+00
   -.223E-02 0.158E-02 0.110E+04   0.228E-02 -.163E-02 -.110E+04   0.235E-04 -.178E-04 -.120E+01
   0.465E-04 0.275E-02 0.117E+04   -.130E-07 -.260E-02 -.117E+04   0.244E-04 0.738E-04 -.178E+01
   0.235E-06 0.157E-01 0.561E+03   0.275E-07 -.137E-01 -.560E+03   -.634E-05 0.647E-03 0.171E+00
   -.872E-02 0.100E-01 0.557E+03   0.900E-02 -.957E-02 -.558E+03   0.892E-04 0.299E-03 -.162E+00
   -.887E-01 0.433E-01 -.535E+01   0.904E-01 -.431E-01 0.588E+01   0.561E-03 0.152E-03 0.205E+00
   -.106E-04 0.602E-01 -.479E+01   0.438E-05 -.683E-01 0.413E+01   -.192E-05 0.423E-02 -.707E-01
   -.220E-04 0.186E+00 -.555E+03   0.346E-04 -.126E+00 0.556E+03   -.934E-06 -.734E-02 -.316E-01
   -.505E-01 0.553E-01 -.569E+03   0.403E-01 -.535E-01 0.569E+03   0.807E-03 -.145E-02 0.718E-01
   0.676E+00 0.356E+00 -.109E+04   -.663E+00 -.357E+00 0.109E+04   -.214E-01 0.280E-02 -.511E-01
   0.253E-04 0.237E+00 -.111E+04   -.258E-04 -.383E+00 0.111E+04   0.626E-06 -.398E-01 0.769E+00
   -.123E-02 0.123E-02 0.110E+04   0.137E-02 -.101E-02 -.110E+04   -.148E-06 0.772E-04 -.120E+01
   0.252E-04 -.272E-03 0.117E+04   -.311E-07 0.305E-03 -.117E+04   0.248E-04 -.895E-05 -.178E+01
   0.381E-05 0.137E-01 0.561E+03   -.755E-07 -.121E-01 -.560E+03   -.212E-04 0.442E-03 0.172E+00
   -.775E-03 -.245E-02 0.557E+03   0.129E-02 0.262E-02 -.558E+03   0.947E-04 0.165E-03 -.162E+00
[...]
      0.00000      2.95722     21.63680         0.000014      0.009467      0.160936
      9.75299      4.43639      8.77438        -0.000160     -0.000345     -3.893367
      0.00000      5.91519      8.77438        -0.000033     -0.000019      3.266036
      0.00000      4.43639     12.02538        -0.000038     -0.000207      0.566114
      9.75299      5.91519     12.02538        -0.000059     -0.000329     -0.824389
      9.75299      4.43639     15.27637        -0.002049     -0.013916      0.790457
      0.00000      5.91519     15.27637         0.000040     -0.002085     -0.861939
      0.00000      4.43632     18.45797         0.000000      0.003010      0.135445
      9.75354      5.91492     18.65888         0.015560      0.005670      0.004622
      9.75376      4.43723     22.01238         0.104267      0.044989     -0.136218
     13.00398      5.91574     21.63605         0.000010      0.013090      0.170918
      3.25100      7.39399      8.77438         0.000079     -0.000077     -3.893355
      6.50199      8.87278      8.77438         0.000069      0.000236      3.266336
      6.50199      7.39399     12.02538        -0.000009      0.002890      0.565928
      3.25100      8.87278     12.02538         0.000380      0.000806     -0.824378
      3.25100      7.39399     15.27637         0.002365      0.000332      0.781750
      6.50199      8.87278     15.27637        -0.000010     -0.004455     -0.842836
      6.50199      7.39071     18.46690         0.000008      0.041551      0.095608
      3.25071      8.87320     18.65847        -0.010555      0.002718      0.007789
      3.25096      7.39516     22.00370         0.013705      0.009818     -0.082558
      6.50199      8.87939     21.63291         0.000001     -0.185886      0.100654
      3.25100     10.35158      8.77438         0.000144      0.000324     -3.893189
      6.50199      0.00000      8.77438         0.000051      0.000022      3.266548
      6.50199     10.35158     12.02538        -0.000021      0.002207      0.568368
      3.25100      0.00000     12.02538         0.000626      0.000352     -0.822236
      3.25100     10.35158     15.27637         0.001383      0.015566      0.791531
      6.50199      0.00000     15.27637         0.000048      0.001911     -0.873882
      6.50199     10.34956     18.45418        -0.000003      0.000363      0.123472
      3.25121      0.00015     18.66152        -0.009402     -0.005008     -0.001129
      3.25261     10.35149     22.01403        -0.047336     -0.043220     -0.139706
      6.50199      0.00025     21.63164         0.000016      0.017967      0.110476
      3.25100      1.47880      8.77438         0.000216      0.000216     -3.892914
      6.50199      2.95759      8.77438         0.000050     -0.000173      3.266114
      6.50199      1.47880     12.02538         0.000050     -0.001551      0.568707
      3.25100      2.95759     12.02538         0.000404     -0.000768     -0.822137
      3.25100      1.47880     15.27637         0.001348     -0.001930      0.800585
      6.50199      2.95759     15.27637        -0.000021      0.002775     -0.850082
      6.50199      1.48011     18.45387         0.000011     -0.019420      0.108137
      3.25073      2.95720     18.66142        -0.014283     -0.002811     -0.008322
      3.25183      1.47891     22.01326        -0.035169     -0.011621     -0.148834
      6.50199      2.95427     21.63137         0.000007     -0.147112      0.071328
      3.25100      4.43639      8.77438         0.000083     -0.000345     -3.893197
      6.50199      5.91519      8.77438         0.000022     -0.000088      3.266059
      6.50199      4.43639     12.02538         0.000010     -0.003573      0.566233
      3.25100      5.91519     12.02538         0.000117     -0.000295     -0.824277
      3.25100      4.43639     15.27637         0.002014     -0.013984      0.790499
      6.50199      5.91519     15.27637        -0.000024     -0.000373     -0.848385
      6.50199      4.43973     18.46451         0.000003     -0.021748      0.081735
      3.25044      5.91492     18.65888        -0.015564      0.005675      0.004580
      3.25022      4.43723     22.01238        -0.104260      0.044966     -0.136232
      6.50199      5.90344     21.65454        -0.000026      0.364905     -0.296861
      9.75299      8.87278      7.50000         0.000053     -0.000001      2.524056
      9.75299      8.87278     10.04877         0.000064     -0.000140      1.828147
      1.27438      7.39399      8.77438        -2.299897     -0.000015     -0.822604
     11.72960      7.39399      8.77438         2.300045     -0.000049     -0.822643
      0.00000      8.87278     10.75100        -0.000010     -0.000068     -1.346423
      0.00000      8.87278     13.29976         0.000001     -0.000248     -0.252786
     11.02737      7.39399     12.02538         0.333868     -0.000132      0.057006
      1.97661      7.39399     12.02538        -0.333818     -0.000121      0.057020
      9.75299      8.87278     14.00199         0.000230     -0.003156      0.031198
      9.75299      8.87278     16.55076        -0.000445     -0.003357     -0.169149
      1.27438      7.39399     15.27637        -0.704223     -0.000131      0.112741
     11.72960      7.39399     15.27637         0.704212     -0.000084      0.112771
     13.00398      8.87309     17.27316        -0.000014      0.000438      0.076341
      0.00000      8.87256     19.82981        -0.000018      0.000483     -0.339791
     11.05637      7.39437     18.54795        -0.096009     -0.001882      0.017864
      1.94761      7.39437     18.54795         0.095978     -0.001880      0.017868
      9.75759      8.87431     20.52004        -0.005368      0.002222      0.111911
      9.74518      8.86950     23.09531         0.017703      0.051959     -0.324908
      1.22348      7.39382     21.96260        -0.190392     -0.001027     -0.064142
     11.78050      7.39382     21.96260         0.190410     -0.001016     -0.064165
      9.75299      0.00000      7.50000         0.000048     -0.000045      2.523958
      9.75299      0.00000     10.04877         0.000152     -0.000171      1.827477
      1.27438     10.35158      8.77438        -2.299963     -0.000026     -0.822685
     11.72960     10.35158      8.77438         2.299983     -0.000011     -0.822691
      0.00000      0.00000     10.75100        -0.000004     -0.000146     -1.346562
      0.00000      0.00000     13.29976        -0.000016     -0.000200     -0.252774
     11.02737     10.35158     12.02538         0.333960     -0.000475      0.056900
      1.97661     10.35158     12.02538        -0.334068     -0.000466      0.056968
      9.75299      0.00000     14.00199         0.000157     -0.002673      0.027434
      9.75299      0.00000     16.55076         0.001074     -0.001770     -0.179462
      1.27438     10.35158     15.27637        -0.706507     -0.001219      0.112023
     11.72960     10.35158     15.27637         0.706572     -0.001186      0.112046
     13.00398      0.00013     17.27340        -0.000006      0.001293      0.077613
     13.00398     11.83003     19.83029         0.000001      0.001819     -0.333446
     11.05633     10.35194     18.54897        -0.095587      0.000972      0.018685
      1.94766     10.35194     18.54897         0.095582      0.000944      0.018687
      9.75489      0.00028     20.52213        -0.006687      0.006693      0.122460
      9.75448     11.82997     23.09711        -0.009937      0.019098     -0.281701
      1.22345     10.35075     21.96182        -0.183689      0.007660     -0.060004
     11.78053     10.35075     21.96182         0.183701      0.007649     -0.060010
      9.75299      2.95759      7.50000         0.000030      0.000163      2.523787
      9.75299      2.95759     10.04877         0.000134      0.000054      1.827606
      1.27438      1.47880      8.77438        -2.299932     -0.000090     -0.822685
     11.72960      1.47880      8.77438         2.300013     -0.000001     -0.822698
      0.00000      2.95759     10.75100        -0.000003      0.000131     -1.346622
      0.00000      2.95759     13.29976        -0.000016      0.000276     -0.252500
     11.02737      1.47880     12.02538         0.334121      0.000052      0.056863
      1.97661      1.47880     12.02538        -0.334155      0.000116      0.056884
      9.75299      2.95759     14.00199         0.000249      0.003135      0.027585
      9.75299      2.95759     16.55076         0.000012      0.003939     -0.174609
      1.27438      1.47880     15.27637        -0.708886      0.000336      0.111700
     11.72960      1.47880     15.27637         0.708858      0.000298      0.111680
     13.00398      2.95733     17.27345        -0.000005     -0.000539      0.077399
     13.00398      2.95818     19.83036        -0.000005     -0.000913     -0.332275
     11.05650      1.47841     18.54959        -0.096635      0.002483      0.019772
      1.94748      1.47841     18.54959         0.096628      0.002513      0.019760
      9.75781      2.95610     20.52146        -0.011828      0.000822      0.127446
      9.75202      2.95933     23.09624        -0.013335     -0.007438     -0.281249
      1.22290      1.47919     21.96108        -0.175305      0.001588     -0.055915
     11.78108      1.47919     21.96108         0.175308      0.001553     -0.055939
      9.75299      5.91519      7.50000         0.000058      0.000113      2.524062
      9.75299      5.91519     10.04877         0.000008      0.000187      1.828297
      1.27438      4.43639      8.77438        -2.299889      0.000132     -0.822715
     11.72960      4.43639      8.77438         2.300041      0.000059     -0.822732
      0.00000      5.91519     10.75100        -0.000008      0.000103     -1.346599
      0.00000      5.91519     13.29976         0.000023      0.000193     -0.252700
     11.02737      4.43639     12.02538         0.334092      0.000542      0.057002
      1.97661      4.43639     12.02538        -0.334041      0.000493      0.056937
      9.75299      5.91519     14.00199         0.000508      0.002628      0.031317
      9.75299      5.91519     16.55076        -0.002037      0.001437     -0.165905
      1.27438      4.43639     15.27637        -0.706522      0.001184      0.112457
     11.72960      4.43639     15.27637         0.706525      0.001096      0.112448
     13.00398      5.91513     17.27314         0.000014     -0.001139      0.076406
      0.00000      5.91543     19.82956        -0.000001     -0.001227     -0.338847
     11.05638      4.43620     18.54851        -0.096883     -0.002025      0.018617
      1.94760      4.43620     18.54851         0.096894     -0.002035      0.018590
      9.75977      5.91558     20.51999        -0.006509     -0.011120      0.112527
      9.73758      5.91880     23.09439         0.016196     -0.066876     -0.331408
      1.22350      4.43785     21.96315        -0.177821     -0.007786     -0.059637
     11.78048      4.43785     21.96315         0.177809     -0.007796     -0.059644
      3.25100      8.87278      7.50000         0.000005     -0.000056      2.523996
      3.25100      8.87278     10.04877        -0.000082     -0.000152      1.828261
      7.77637      7.39399      8.77438        -2.299938     -0.000090     -0.822677
      5.22761      7.39399      8.77438         2.299866      0.000001     -0.822702
      6.50199      8.87278     10.75100         0.000018     -0.000809     -1.347103
      6.50199      8.87278     13.29976        -0.000015     -0.001615     -0.255499
      4.52538      7.39399     12.02538         0.333772     -0.000332      0.057023
      8.47860      7.39399     12.02538        -0.333733     -0.000245      0.057035
      3.25100      8.87278     14.00199        -0.000278     -0.003119      0.031339
      3.25100      8.87278     16.55076         0.000462     -0.003403     -0.169114
      7.77637      7.39399     15.27637        -0.703091     -0.006634      0.110881
      5.22761      7.39399     15.27637         0.703095     -0.006677      0.110886
      6.50199      8.86945     17.27356        -0.000003     -0.012378      0.093116
      6.50199      8.87669     19.82591         0.000016      0.003682     -0.323192
      4.55285      7.39394     18.55211        -0.077938     -0.005085      0.017715
      8.45113      7.39394     18.55211         0.077909     -0.005098      0.017721
      3.24639      8.87431     20.52004         0.005370      0.002210      0.111991
      3.25880      8.86950     23.09531        -0.017705      0.051980     -0.324872
      7.72689      7.40089     21.94410        -0.263723     -0.110450      0.011365
      5.27709      7.40089     21.94410         0.263787     -0.110468      0.011364
      3.25100      0.00000      7.50000         0.000003     -0.000254      2.523727
      3.25100      0.00000     10.04877        -0.000128     -0.000108      1.827688
      7.77637     10.35158      8.77438        -2.299911     -0.000145     -0.822690
      5.22761     10.35158      8.77438         2.299863     -0.000183     -0.822675
      6.50199      0.00000     10.75100        -0.000025     -0.000222     -1.347797
      6.50199      0.00000     13.29976         0.000012     -0.000397     -0.260824
      4.52538     10.35158     12.02538         0.333190     -0.000643      0.056855
      8.47860     10.35158     12.02538        -0.333190     -0.000530      0.056834
      3.25100      0.00000     14.00199        -0.000142     -0.002664      0.027510
      3.25100      0.00000     16.55076        -0.001065     -0.001778     -0.179466
      7.77637     10.35158     15.27637        -0.703475     -0.005302      0.112466
      5.22761     10.35158     15.27637         0.703433     -0.005353      0.112486
      6.50199     11.82997     17.27071         0.000001      0.005284      0.086391
      6.50199      0.00093     19.82527         0.000008      0.002060     -0.308394
      4.55293     10.35172     18.54893        -0.086284      0.001123      0.018987
      8.45105     10.35172     18.54893         0.086310      0.001117      0.018996
      3.24910      0.00028     20.52213         0.006672      0.006694      0.122419
      3.24950     11.82997     23.09711         0.009929      0.019125     -0.281684
      7.72705     10.35557     21.95168        -0.200144      0.005360     -0.024536
      5.27693     10.35557     21.95168         0.200097      0.005371     -0.024569
      3.25100      2.95759      7.50000         0.000000      0.000063      2.524144
      3.25100      2.95759     10.04877        -0.000109      0.000127      1.827430
      7.77637      1.47880      8.77438        -2.299829      0.000150     -0.822612
      5.22761      1.47880      8.77438         2.299767      0.000022     -0.822704
      6.50199      2.95759     10.75100        -0.000005      0.000823     -1.347068
      6.50199      2.95759     13.29976         0.000007      0.001703     -0.256778
      4.52538      1.47880     12.02538         0.333202      0.000131      0.056725
      8.47860      1.47880     12.02538        -0.333189      0.000132      0.056773
      3.25100      2.95759     14.00199        -0.000236      0.003176      0.027554
      3.25100      2.95759     16.55076         0.000018      0.004029     -0.174642
      7.77637      1.47880     15.27637        -0.705596      0.002973      0.112185
      5.22761      1.47880     15.27637         0.705588      0.003057      0.112223
      6.50199      2.96066     17.27294         0.000006      0.009815      0.097850
      6.50199      2.95230     19.82509        -0.000003      0.011040     -0.282644
      4.55274      1.47869     18.54870        -0.082823      0.003260      0.021601
      8.45124      1.47869     18.54870         0.082821      0.003287      0.021601
      3.24617      2.95610     20.52146         0.011829      0.000846      0.127424
      3.25196      2.95933     23.09624         0.013334     -0.007452     -0.281256
      7.72652      1.47725     21.95817        -0.204530      0.023393     -0.056492
      5.27746      1.47725     21.95818         0.204488      0.023396     -0.056514
      3.25100      5.91519      7.50000        -0.000112      0.000104      2.523826
      3.25100      5.91519     10.04877         0.000003      0.000147      1.828139
      7.77637      4.43639      8.77438        -2.299851      0.000136     -0.822682
      5.22761      4.43639      8.77438         2.299788      0.000197     -0.822620
      6.50199      5.91519     10.75100        -0.000013      0.000217     -1.346421
      6.50199      5.91519     13.29976        -0.000005      0.000229     -0.245970
      4.52538      4.43639     12.02538         0.333769      0.000692      0.056871
      8.47860      4.43639     12.02538        -0.333788      0.000646      0.056927
      3.25100      5.91519     14.00199        -0.000482      0.002635      0.031242
      3.25100      5.91519     16.55076         0.002013      0.001428     -0.165860
      7.77637      4.43639     15.27637        -0.704869      0.008403      0.110865
      5.22761      4.43639     15.27637         0.704923      0.008448      0.110898
      6.50199      5.91531     17.27591        -0.000004     -0.003367      0.101806
      6.50199      5.91455     19.83683         0.000003     -0.022871     -0.171903
      4.55288      4.43640     18.55266        -0.076214      0.000071      0.019211
      8.45110      4.43640     18.55266         0.076200      0.000098      0.019184
      3.24421      5.91558     20.51999         0.006533     -0.011133      0.112487
      3.26640      5.91880     23.09439        -0.016197     -0.066843     -0.331382
      7.72931      4.42765     21.93715        -0.239262      0.063877      0.074488
      5.27467      4.42765     21.93715         0.239261      0.063886      0.074512
 -----------------------------------------------------------------------------------
    total drift:                                0.000166     -0.000398     -0.042008


--------------------------------------------------------------------------------------------------------



  FREE ENERGIE OF THE ION-ELECTRON SYSTEM (eV)
  ---------------------------------------------------
  free  energy   TOTEN  =     -2617.45108536 eV

  energy  without entropy=    -2617.45108536  energy(sigma->0) =    -2617.45108536



--------------------------------------------------------------------------------------------------------


    POTLOK:  cpu time      5.5789: real time      5.5816


--------------------------------------------------------------------------------------------------------


     LOOP+:  cpu time   6850.9097: real time   6856.0158
    4ORBIT:  cpu time      0.0000: real time      0.0000

 total amount of memory used by VASP MPI-rank0   509977. kBytes
=======================================================================

   base      :      30000. kBytes
   nonl-proj :     152371. kBytes
   fftplans  :      13946. kBytes
   grid      :      12936. kBytes
   one-center:        648. kBytes
   HF        :         90. kBytes
   nonlr-proj:      61321. kBytes
   wavefun   :      18726. kBytes
   fock_wrk  :     219939. kBytes

  
  
 General timing and accounting informations for this job:
 ========================================================
  
                  Total CPU time used (sec):     6959.322
                            User time (sec):     6934.509
                          System time (sec):       24.813
                         Elapsed time (sec):     6993.885
  
                   Maximum memory used (kb):     1059860.
                   Average memory used (kb):          N/A
  
                          Minor page faults:       642097
                          Major page faults:         1226
                 Voluntary context switches:        23765
