 **********************************************************************
                          MRCC program system
 **********************************************************************
 
                              Written by
     Mihaly Kallay, Peter R. Nagy, David Mester, Laszlo Gyevi-Nagy,
        Jozsef Csoka, P. Bernat Szabo, Zoltan Rolik, Gyula Samu,
     Jozsef Csontos, Bence Hegely, Adam Ganyecz, Istvan Ladjanszki,
       Lorant Szegedy, Bence Ladoczki, Klara Petrov, Mate Farkas,
                    Pal D. Mezei, and Reka A. Horvath
 
        Department of Physical Chemistry and Materials Science
            Budapest University of Technology and Economics
                  Budapest P.O.Box 91, H-1521 Hungary
 
                              www.mrcc.hu
 
                      Release date: March 18, 2022

 ************************ 2023-02-07 16:11:42 *************************
 Executing minp...

 Reading input from MINP...
 
 Input file:
 
calc=LNO-CCSD(T)
scftype=rhf
verbosity=3
mem=220GB
symm=off
unit=angs
scfiguess=small
scfmaxit=1000
scfalg=locfit1


lcorthr=tight
bpedo=0.99999
ccmaxit=400
usedisk=0
ccsdalg=dfdirect
ccsdthreads=4
ccsdmkl=thr
ptthreads=4

charge=-24
core=28

basis=special
aug-cc-pVDZ
aug-cc-pVDZ
aug-cc-pVDZ
aug-cc-pVDZ
bse_CVDZ
aug-cc-pVDZ
aug-cc-pVDZ
aug-cc-pVDZ
aug-cc-pVDZ
aug-cc-pVDZ
bse_CVDZ
bse_CVDZ
bse_CVDZ
aug-cc-pVDZ
aug-cc-pVDZ
aug-cc-pVDZ
bse_CVDZ
bse_CVDZ
aug-cc-pVDZ
aug-cc-pVDZ
aug-cc-pVDZ
aug-cc-pVDZ
aug-cc-pVDZ
aug-cc-pVDZ
aug-cc-pVDZ
aug-cc-pVDZ
aug-cc-pVDZ
aug-cc-pVDZ
nothing
nothing
nothing
nothing
nothing
nothing
nothing
nothing
nothing
nothing
nothing
nothing
nothing
nothing
nothing
nothing
nothing
nothing
nothing
nothing
nothing
nothing
nothing
nothing
nothing
nothing
nothing
nothing
nothing
nothing
nothing
nothing
nothing
nothing
nothing
nothing
nothing
nothing
nothing
nothing
nothing
nothing
nothing
nothing
nothing
nothing
nothing
nothing
nothing
nothing
nothing
nothing
nothing
nothing
nothing
nothing

basis_sm=special
def2-SVP
def2-SVP
def2-SVP
def2-SVP
def2-SVP
def2-SVP
def2-SVP
def2-SVP
def2-SVP
def2-SVP
def2-SVP
def2-SVP
def2-SVP
def2-SVP
def2-SVP
def2-SVP
def2-SVP
def2-SVP
def2-SVP
def2-SVP
def2-SVP
def2-SVP
def2-SVP
def2-SVP
def2-SVP
def2-SVP
def2-SVP
def2-SVP
nothing
nothing
nothing
nothing
nothing
nothing
nothing
nothing
nothing
nothing
nothing
nothing
nothing
nothing
nothing
nothing
nothing
nothing
nothing
nothing
nothing
nothing
nothing
nothing
nothing
nothing
nothing
nothing
nothing
nothing
nothing
nothing
nothing
nothing
nothing
nothing
nothing
nothing
nothing
nothing
nothing
nothing
nothing
nothing
nothing
nothing
nothing
nothing
nothing
nothing
nothing
nothing
nothing
nothing
nothing
nothing

dfbasis_scf=special
def2-QZVPP-RI-JK
def2-QZVPP-RI-JK
def2-QZVPP-RI-JK
def2-QZVPP-RI-JK
def2-QZVPP-RI-JK
def2-QZVPP-RI-JK
def2-QZVPP-RI-JK
def2-QZVPP-RI-JK
def2-QZVPP-RI-JK
def2-QZVPP-RI-JK
def2-QZVPP-RI-JK
def2-QZVPP-RI-JK
def2-QZVPP-RI-JK
def2-QZVPP-RI-JK
def2-QZVPP-RI-JK
def2-QZVPP-RI-JK
def2-QZVPP-RI-JK
def2-QZVPP-RI-JK
def2-QZVPP-RI-JK
def2-QZVPP-RI-JK
def2-QZVPP-RI-JK
def2-QZVPP-RI-JK
def2-QZVPP-RI-JK
def2-QZVPP-RI-JK
def2-QZVPP-RI-JK
def2-QZVPP-RI-JK
def2-QZVPP-RI-JK
def2-QZVPP-RI-JK
nothing
nothing
nothing
nothing
nothing
nothing
nothing
nothing
nothing
nothing
nothing
nothing
nothing
nothing
nothing
nothing
nothing
nothing
nothing
nothing
nothing
nothing
nothing
nothing
nothing
nothing
nothing
nothing
nothing
nothing
nothing
nothing
nothing
nothing
nothing
nothing
nothing
nothing
nothing
nothing
nothing
nothing
nothing
nothing
nothing
nothing
nothing
nothing
nothing
nothing
nothing
nothing
nothing
nothing
nothing
nothing

dfbasis_cor=special
aug-cc-pVDZ-RI
aug-cc-pVDZ-RI
aug-cc-pVDZ-RI
aug-cc-pVDZ-RI
bse_CVDZ_mp2fit
aug-cc-pVDZ-RI
aug-cc-pVDZ-RI
aug-cc-pVDZ-RI
aug-cc-pVDZ-RI
aug-cc-pVDZ-RI
bse_CVDZ_mp2fit
bse_CVDZ_mp2fit
bse_CVDZ_mp2fit
aug-cc-pVDZ-RI
aug-cc-pVDZ-RI
aug-cc-pVDZ-RI
bse_CVDZ_mp2fit
bse_CVDZ_mp2fit
aug-cc-pVDZ-RI
aug-cc-pVDZ-RI
aug-cc-pVDZ-RI
aug-cc-pVDZ-RI
aug-cc-pVDZ-RI
aug-cc-pVDZ-RI
aug-cc-pVDZ-RI
aug-cc-pVDZ-RI
aug-cc-pVDZ-RI
aug-cc-pVDZ-RI
nothing
nothing
nothing
nothing
nothing
nothing
nothing
nothing
nothing
nothing
nothing
nothing
nothing
nothing
nothing
nothing
nothing
nothing
nothing
nothing
nothing
nothing
nothing
nothing
nothing
nothing
nothing
nothing
nothing
nothing
nothing
nothing
nothing
nothing
nothing
nothing
nothing
nothing
nothing
nothing
nothing
nothing
nothing
nothing
nothing
nothing
nothing
nothing
nothing
nothing
nothing
nothing
nothing
nothing
nothing
nothing

ecp=special
none
none
none
none
none
none
none
none
none
none
none
none
none
none
none
none
none
none
none
none
none
none
none
none
none
none
none
none
ECP-12
ECP-12
ECP-12
ECP-12
ECP-12
ECP-12
ECP-12
ECP-12
ECP-12
ECP-12
ECP-12
ECP-12
ECP-12
ECP-12
ECP-12
ECP-12
ECP-12
ECP-12
ECP-12
ECP-12
ECP-12
ECP-12
ECP-12
ECP-12
ECP-12
ECP-12
ECP-12
ECP-12
ECP-12
ECP-12
ECP-12
ECP-12
ECP-12
ECP-12
ECP-12
ECP-12
ECP-12
ECP-12
ECP-12
ECP-12
ECP-12
ECP-12
ECP-12
ECP-12
ECP-12
ECP-12
ECP-12
ECP-12
ECP-12
ECP-12
ECP-12
ECP-12
ECP-12
ECP-12
ECP-12
ECP-12

unit=angs
geom=xyz
84
N2 O2 Mg6 O18 ECP56
N    -1.70405963805   -1.70405712827    2.26414168348
N    -0.39353036420   -0.39352673915    2.24350696282
O    -1.92362708458   -1.92361426085    3.38577361047
O    -0.15453424971   -0.15452091980    3.35706853724
Mg    0.00000000000    0.00000000000   -0.01531913526
O    -0.01397522745    2.09468953471   -0.01585324347
O     2.09468905905   -0.01397437085   -0.01585277191
O    -0.01778966524   -0.01778880947   -2.13403421792
O    -0.00133952625   -2.13087240787   -0.00000161082
O    -2.13087267524   -0.00133947280    0.00000000000
Mg   -2.11995931933    2.09477773529   -0.06038491507
Mg    2.09477679477   -2.11995905039   -0.06038679353
Mg   -2.13088520181   -2.13088545772   -0.01012263154
O    -2.11755124438    2.08342073000   -2.14593618886
O     2.08342029619   -2.11754984751   -2.14593778319
O    -2.11558402862   -2.11558331309   -2.13320886404
Mg   -0.01245252393   -4.22705516525   -0.06026969975
Mg   -4.22705659767   -0.01245136032   -0.06026780324
O    -2.11840960322    4.17865165921   -0.01381232594
O     4.17865071048   -2.11840916182   -0.01381306365
O    -4.22022017916    2.08784675453   -0.01214613529
O     2.08784591757   -4.22021851565   -0.01215280864
O    -0.01610958985   -4.21657884901   -2.14603965752
O    -4.21657946783   -0.01610784354   -2.14603842464
O    -2.11840960322   -4.22621272714   -0.01381232594
O    -4.22621367587   -2.11840916182   -0.01381306365
O    -0.01397522745   -6.31017485164   -0.01585324347
O    -6.31017532729   -0.01397437085   -0.01585277191
Mg    2.08862803039    2.08862832399   -0.05635228977
Mg   -0.01632367088    2.08255818024   -2.13773428997
Mg    2.08255773525   -0.01632264178   -2.13773460265
Mg   -0.01974882929   -2.11400355054   -2.13567957697
Mg   -2.11400472602   -0.01974853677   -2.13567899809
Mg   -0.01245252393    4.17780922110   -0.06026969975
Mg    4.17780778867   -0.01245136032   -0.06026780324
Mg   -0.01690903118   -0.01690815737   -4.24997684878
Mg    2.08514640547    4.18646419546   -2.14162420318
Mg    4.18646370808    2.08514704855   -2.14162286511
Mg   -2.11723961381    4.18970011946   -2.13702861337
Mg    4.18969929600   -2.11723885565   -2.13702814002
Mg    2.08430706541    2.08430793922   -4.24997684878
Mg   -4.21840067827    2.08514704855   -2.14162286511
Mg    2.08514640547   -4.21840019089   -2.14162420318
Mg   -2.11723961381   -4.21516426688   -2.13702861337
Mg   -4.21516509034   -2.11723885565   -2.13702814002
Mg   -2.11812512776    2.08430793922   -4.24997684878
Mg    2.08430706541   -2.11812425396   -4.24997684878
Mg   -2.11812512776   -2.11812425396   -4.24997684878
Mg   -4.22076569256    4.18409952573   -0.05560468565
Mg    4.18409869378   -4.22076486062   -0.05560468565
Mg   -0.01690903118    4.18552403580   -4.24997684878
Mg    4.18552316199   -0.01690815737   -4.24997684878
Mg   -4.22076569256   -4.22076486062   -0.05560468565
Mg   -0.01690903118   -4.21934035054   -4.24997684878
Mg   -4.21934122435   -0.01690815737   -4.24997684878
Mg   -2.13088520181    6.27397892863   -0.01012263154
Mg    6.27397918454   -2.13088545772   -0.01012263154
Mg   -0.01974882929    6.29086083581   -2.13567957697
Mg    6.29085966033   -0.01974853677   -2.13567899809
Mg   -6.31623635596    2.08862832399   -0.05635228977
Mg    2.08862803039   -6.31623606236   -0.05635228977
Mg   -2.11995931933   -6.31008665105   -0.06038491507
Mg   -6.31008759158   -2.11995905039   -0.06038679353
Mg   -0.01632367088   -6.32230620611   -2.13773428997
Mg   -6.32230665109   -0.01632264178   -2.13773460265
Mg   -4.21934122435    4.18552403580   -4.24997684878
Mg    4.18552316199   -4.21934035054   -4.24997684878
Mg   -4.21934122435   -4.21934035054   -4.24997684878
Mg   -4.21516509034    6.28762553069   -2.13702814002
Mg    6.28762477254   -4.21516426688   -2.13702861337
Mg   -6.31971798088    4.18646419546   -2.14162420318
Mg    4.18646370808   -6.31971733780   -2.14162286511
Mg   -6.32055732094    2.08430793922   -4.24997684878
Mg    2.08430706541   -6.32055644713   -4.24997684878
Mg   -4.21840067827   -6.31971733780   -2.14162286511
Mg   -6.31971798088   -4.21840019089   -2.14162420318
Mg   -2.11812512776   -6.32055644713   -4.24997684878
Mg   -6.32055732094   -2.11812425396   -4.24997684878
Mg   -8.40486438635    0.00000000000   -0.01531913526
Mg    0.00000000000   -8.40486438635   -0.01531913526
Mg   -8.42118805722    2.08255818024   -2.13773428997
Mg    2.08255773525   -8.42118702812   -2.13773460265
Mg   -2.11400472602   -8.42461292312   -2.13567899809
Mg   -8.42461321564   -2.11400355054   -2.13567957697



ghost=serialno


qmmm=Amber
pointcharges
10259
      2.08862803039    2.08862832399   -0.05635228977    2.00000000000
     -0.01632367088    2.08255818024   -2.13773428997    2.00000000000
      2.08255773525   -0.01632264178   -2.13773460265    2.00000000000
     -0.01974882929   -2.11400355054   -2.13567957697    2.00000000000
--------------------Output has been truncated-------------------------


--------------------Output has been truncated-------------------------


--------------------Output has been truncated-------------------------


--------------------Output has been truncated-------------------------


--------------------Output has been truncated-------------------------


--------------------Output has been truncated-------------------------


--------------------Output has been truncated-------------------------


--------------------Output has been truncated-------------------------


--------------------Output has been truncated-------------------------


--------------------Output has been truncated-------------------------


 
 Final local CC results:
 
 Minimum number of correlated electrons:        38       ( 17.8%)
 Maximum number of correlated electrons:       130       ( 60.7%)
 Average number of correlated electrons:        61.0     ( 28.5%)
 Minimum number of correlated orbitals:         61       (  9.5%)
 Maximum number of correlated orbitals:        240       ( 37.5%)
 Average number of correlated orbitals:        116.1     ( 18.1%)
 
 CPU time for integral calculations [min]:                  4.481
 Wall time for integral calculations [min]:                 0.985
 
 CPU time for SCF calculation [min]:                      122.330
 Wall time for SCF calculation [min]:                       3.435
 
 CPU time for orbital localization [min]:                   0.439
 Wall time for orbital localization [min]:                  0.197
 
 CPU time for integral transformations [min]:            1663.271
 Wall time for integral transformations [min]:             50.812
 
 Reference energy [au]:                                -11956.571464476610
 
 LMP2 correlation energy [au]:                             -5.564906272148
 Total LMP2 energy [au]:                               -11962.136370748758
 
 Total MP2 correction for dropped NAFs [au]:                0.001810460260
 Total MP2 correction [au]:                                -0.016276163219
 
 CPU time for CCSD calculations [min]:                   2306.824
 Total CPU time for CCSD [min]:                          4097.345
 Wall time for CCSD calculations [min]:                    90.027
 Total wall time for CCSD [min]:                          145.456
 
 CCSD correlation energy [au]:                             -5.580758112891
 Total CCSD energy [au]:                               -11962.152222589502
 CCSD correlation energy + 0.5 MP2 corrections [au]:       -5.588896194501
 Total LNO-CCSD energy with MP2 corrections [au]:      -11962.160360671111
 
 CPU time for (T) corrections [min]:                     1814.037
 Total CPU time for CCSD(T) [min]:                       5911.381
 Wall time for (T) corrections [min]:                      53.050
 Total wall time for CCSD(T) [min]:                       198.506
 
 Total (T) correlation energy contribution [au]:           -0.163911326811
 Total (T) correlation energy+0.5 MP2 correction [au]:     -0.172049408420
 CCSD(T) correlation energy [au]:                          -5.744669439702
 Total CCSD(T) energy [au]:                            -11962.316133916313
 CCSD(T) correlation energy + MP2 corrections [au]:        -5.760945602921
 Total LNO-CCSD(T) energy with MP2 corrections [au]:   -11962.332410079531
 
 ======================================================================
 ======================================================================
 
 ************************ 2023-02-07 19:32:48 *************************
                      Normal termination of mrcc.
 **********************************************************************
