 **********************************************************************
                          MRCC program system
 **********************************************************************
 
                              Written by
     Mihaly Kallay, Peter R. Nagy, David Mester, Laszlo Gyevi-Nagy,
        Jozsef Csoka, P. Bernat Szabo, Zoltan Rolik, Gyula Samu,
     Jozsef Csontos, Bence Hegely, Adam Ganyecz, Istvan Ladjanszki,
       Lorant Szegedy, Bence Ladoczki, Klara Petrov, Mate Farkas,
                    Pal D. Mezei, and Reka A. Horvath
 
        Department of Physical Chemistry and Materials Science
            Budapest University of Technology and Economics
                  Budapest P.O.Box 91, H-1521 Hungary
 
                              www.mrcc.hu
 
                      Release date: March 18, 2022

 ************************ 2023-02-28 15:39:22 *************************
 Executing minp...

 Reading input from MINP...
 
 Input file:
 
calc=LNO-CCSD(T)
scftype=rhf
verbosity=3
mem=220GB
symm=off
unit=angs
scfiguess=small
scfmaxit=1000
scfalg=locfit1


lcorthr=tight
bpedo=0.99999
ccmaxit=400
usedisk=0
ccsdalg=dfdirect
ccsdthreads=4
ccsdmkl=thr
ptthreads=4

charge=0
core=3

basis=special
aug-cc-pVDZ
aug-cc-pVDZ
aug-cc-pVDZ
bse_CVDZ
aug-cc-pVDZ
aug-cc-pVDZ
aug-cc-pVDZ
aug-cc-pVDZ
aug-cc-pVDZ
bse_CVDZ
bse_CVDZ
bse_CVDZ
aug-cc-pVDZ
aug-cc-pVDZ
aug-cc-pVDZ
bse_CVDZ
bse_CVDZ
aug-cc-pVDZ
aug-cc-pVDZ
aug-cc-pVDZ
aug-cc-pVDZ
aug-cc-pVDZ
aug-cc-pVDZ
aug-cc-pVDZ
aug-cc-pVDZ
aug-cc-pVDZ
aug-cc-pVDZ

basis_sm=special
def2-SVP
def2-SVP
def2-SVP
def2-SVP
def2-SVP
def2-SVP
def2-SVP
def2-SVP
def2-SVP
def2-SVP
def2-SVP
def2-SVP
def2-SVP
def2-SVP
def2-SVP
def2-SVP
def2-SVP
def2-SVP
def2-SVP
def2-SVP
def2-SVP
def2-SVP
def2-SVP
def2-SVP
def2-SVP
def2-SVP
def2-SVP

dfbasis_scf=special
def2-QZVPP-RI-JK
def2-QZVPP-RI-JK
def2-QZVPP-RI-JK
def2-QZVPP-RI-JK
def2-QZVPP-RI-JK
def2-QZVPP-RI-JK
def2-QZVPP-RI-JK
def2-QZVPP-RI-JK
def2-QZVPP-RI-JK
def2-QZVPP-RI-JK
def2-QZVPP-RI-JK
def2-QZVPP-RI-JK
def2-QZVPP-RI-JK
def2-QZVPP-RI-JK
def2-QZVPP-RI-JK
def2-QZVPP-RI-JK
def2-QZVPP-RI-JK
def2-QZVPP-RI-JK
def2-QZVPP-RI-JK
def2-QZVPP-RI-JK
def2-QZVPP-RI-JK
def2-QZVPP-RI-JK
def2-QZVPP-RI-JK
def2-QZVPP-RI-JK
def2-QZVPP-RI-JK
def2-QZVPP-RI-JK
def2-QZVPP-RI-JK

dfbasis_cor=special
aug-cc-pVDZ-RI
aug-cc-pVDZ-RI
aug-cc-pVDZ-RI
bse_CVDZ_mp2fit
aug-cc-pVDZ-RI
aug-cc-pVDZ-RI
aug-cc-pVDZ-RI
aug-cc-pVDZ-RI
aug-cc-pVDZ-RI
bse_CVDZ_mp2fit
bse_CVDZ_mp2fit
bse_CVDZ_mp2fit
aug-cc-pVDZ-RI
aug-cc-pVDZ-RI
aug-cc-pVDZ-RI
bse_CVDZ_mp2fit
bse_CVDZ_mp2fit
aug-cc-pVDZ-RI
aug-cc-pVDZ-RI
aug-cc-pVDZ-RI
aug-cc-pVDZ-RI
aug-cc-pVDZ-RI
aug-cc-pVDZ-RI
aug-cc-pVDZ-RI
aug-cc-pVDZ-RI
aug-cc-pVDZ-RI
aug-cc-pVDZ-RI

ecp=special
none
none
none
none
none
none
none
none
none
none
none
none
none
none
none
none
none
none
none
none
none
none
none
none
none
none
none

unit=angs
geom=xyz
27
N2 O1 Mg6 O18 ECP56
N     0.21938998798    0.40711977304    2.97219464994
N     1.05356774415    1.17304794437    2.80999671970
O     1.92808598532    1.97633711084    2.62078476033
Mg    0.00000000000    0.00000000000   -0.06414637471
O     0.00879312303    0.00842352091   -2.16734401299
O    -2.10365172079    0.00761122469   -0.01597712917
O     0.00778395620   -2.10382756004   -0.01463473797
O     2.11515428806    0.00800445658    0.00000000000
O     0.00810805587    2.11629766541   -0.00126230397
Mg   -2.10215918382    2.11757634283   -0.05857971338
Mg    2.11809648320   -2.10229967536   -0.05857210618
Mg    2.12796920687    2.12721324578   -0.04032291113
O    -2.09930351015    2.11904071425   -2.16803153327
O     2.11924277587   -2.09956218720   -2.16794134341
O     2.11856833703    2.11812882663   -2.16308822988
Mg    4.22945987783    0.00998626723   -0.05743045094
Mg    0.01042449524    4.22958987528   -0.05874866953
O    -4.20733064831    2.11960444750   -0.01704913316
O     2.11997259781   -4.20744671144   -0.01762926941
O     4.22756375500    0.00792116316   -2.16698246721
O     0.00827861593    4.22763163985   -2.16729557194
O    -2.10037212195    4.22887703545   -0.00807978831
O     4.22921196793   -2.10069788129   -0.00834786329
O     4.23365640750    2.11960444750   -0.01704913316
O     2.11997259781    4.23354034437   -0.01762926941
O     0.00778395620    6.33715949577   -0.01463473797
O     6.33733533502    0.00761122469   -0.01597712917

ghost=serialno
4-27

 
 
 Checking keyword combinations...
 
 Keywords:
 
 active=none
--------------------Output has been truncated-------------------------


--------------------Output has been truncated-------------------------


--------------------Output has been truncated-------------------------


--------------------Output has been truncated-------------------------


--------------------Output has been truncated-------------------------


--------------------Output has been truncated-------------------------


--------------------Output has been truncated-------------------------


--------------------Output has been truncated-------------------------


--------------------Output has been truncated-------------------------


--------------------Output has been truncated-------------------------


 
 Final local CC results:
 
 Minimum number of correlated electrons:        16       (100.0%)
 Maximum number of correlated electrons:        16       (100.0%)
 Average number of correlated electrons:        16.0     (100.0%)
 Minimum number of correlated orbitals:         56       (  8.7%)
 Maximum number of correlated orbitals:         63       (  9.8%)
 Average number of correlated orbitals:         61.1     (  9.5%)
 
 CPU time for integral calculations [min]:                  2.831
 Wall time for integral calculations [min]:                 0.087
 
 CPU time for SCF calculation [min]:                       13.296
 Wall time for SCF calculation [min]:                       0.388
 
 CPU time for orbital localization [min]:                   0.138
 Wall time for orbital localization [min]:                  0.015
 
 CPU time for integral transformations [min]:              34.123
 Wall time for integral transformations [min]:              1.127
 
 Reference energy [au]:                                  -183.704794611772
 
 LMP2 correlation energy [au]:                             -0.555506196241
 Total LMP2 energy [au]:                                 -184.260300808014
 
 Total MP2 correction for dropped NAFs [au]:                0.000036022199
 Total MP2 correction [au]:                                -0.000092230791
 
 CPU time for CCSD calculations [min]:                      2.141
 Total CPU time for CCSD [min]:                            52.529
 Wall time for CCSD calculations [min]:                     0.062
 Total wall time for CCSD [min]:                            1.680
 
 CCSD correlation energy [au]:                             -0.540078500355
 Total CCSD energy [au]:                                 -184.244873112128
 CCSD correlation energy + 0.5 MP2 corrections [au]:       -0.540124615751
 Total LNO-CCSD energy with MP2 corrections [au]:        -184.244919227523
 
 CPU time for (T) corrections [min]:                        1.014
 Total CPU time for CCSD(T) [min]:                         53.543
 Wall time for (T) corrections [min]:                       0.030
 Total wall time for CCSD(T) [min]:                         1.710
 
 Total (T) correlation energy contribution [au]:           -0.028294736842
 Total (T) correlation energy+0.5 MP2 correction [au]:     -0.028340852238
 CCSD(T) correlation energy [au]:                          -0.568373237198
 Total CCSD(T) energy [au]:                              -184.273167848970
 CCSD(T) correlation energy + MP2 corrections [au]:        -0.568465467989
 Total LNO-CCSD(T) energy with MP2 corrections [au]:     -184.273260079761
 
 ======================================================================
 ======================================================================
 
 ************************ 2023-02-28 15:41:34 *************************
                      Normal termination of mrcc.
 **********************************************************************
