 **********************************************************************
                          MRCC program system
 **********************************************************************
 
                              Written by
     Mihaly Kallay, Peter R. Nagy, David Mester, Laszlo Gyevi-Nagy,
        Jozsef Csoka, P. Bernat Szabo, Zoltan Rolik, Gyula Samu,
     Jozsef Csontos, Bence Hegely, Adam Ganyecz, Istvan Ladjanszki,
       Lorant Szegedy, Bence Ladoczki, Klara Petrov, Mate Farkas,
                    Pal D. Mezei, and Reka A. Horvath
 
        Department of Physical Chemistry and Materials Science
            Budapest University of Technology and Economics
                  Budapest P.O.Box 91, H-1521 Hungary
 
                              www.mrcc.hu
 
                      Release date: March 18, 2022

 ************************ 2023-02-04 11:56:31 *************************
 Executing minp...

 Reading input from MINP...
 
 Input file:
 
calc=FNO-CCSD(T)
verbosity=3
mem=220GB
unit=angs
scfiguess=small
scfalg=locfit1
ccmaxit=400
ccsdalg=dfdirect
ccsdthreads=4
ccsdmkl=thr
ptthreads=4
lnoepsv=1e-5
naf_cor=1e-2
basis=aug-cc-pVQZ
basis_sm=def2-SVP
dfbasis_scf=def2-QZVPP-RI-JK
dfbasis_cor=aug-cc-pVQZ-RI
unit=angs
geom=xyz
10

C    29.54344629    29.54344629    16.97505516
H    29.54344670    30.44187631    17.60392580
H    29.54344662    28.64496649    17.60393442
H    30.44658454    29.54342777    16.34911135
H    28.64030918    29.54342779    16.34911130
C    16.88193863    21.10243009    16.97521401
H    15.98351896    21.10243029    17.60422237
H    16.88195742    22.00521795    16.34882774
H    16.88195741    20.19964331    16.34882693
H    17.78040884    21.10243027    17.60423123

--------------------Output has been truncated-------------------------


--------------------Output has been truncated-------------------------


--------------------Output has been truncated-------------------------


--------------------Output has been truncated-------------------------


--------------------Output has been truncated-------------------------


--------------------Output has been truncated-------------------------


--------------------Output has been truncated-------------------------


--------------------Output has been truncated-------------------------


--------------------Output has been truncated-------------------------


--------------------Output has been truncated-------------------------


 
 Reference energy [au]:                       -80.431231480876
 DF-MP2 singlet pair energy [au]:              -0.347505970967
 DF-MP2 triplet pair energy [au]:              -0.074996602569
 DF-SCS-MP2 correlation energy [au]:           -0.442006032684
 DF-SCS-MP2 energy [au]:                      -80.873237513560
 DF-SOS-MP2 correlation energy [au]:           -0.451757762257
 DF-SOS-MP2 energy [au]:                      -80.882989243134
 DF-MP2 correlation energy [au]:               -0.422502573536
 DF-MP2 energy [au]:                          -80.853734054412

 Results in FNO basis:
 
 
 Reference energy [au]:                       -80.431231480876
 DF-MP2 singlet pair energy [au]:              -0.341236598801
 DF-MP2 triplet pair energy [au]:              -0.074713989727
 DF-SCS-MP2 correlation energy [au]:           -0.434388581803
 DF-SCS-MP2 energy [au]:                      -80.865620062679
 DF-SOS-MP2 correlation energy [au]:           -0.443607578441
 DF-SOS-MP2 energy [au]:                      -80.874839059317
 DF-MP2 correlation energy [au]:               -0.415950588527
 DF-MP2 energy [au]:                          -80.847182069404

 Results in NAF basis:
 
 
 Reference energy [au]:                       -80.431231480876
 DF-MP2 singlet pair energy [au]:              -0.341201564351
 DF-MP2 triplet pair energy [au]:              -0.074727381070
 DF-SCS-MP2 correlation energy [au]:           -0.434351004245
 DF-SCS-MP2 energy [au]:                      -80.865582485121
 DF-SOS-MP2 correlation energy [au]:           -0.443562033656
 DF-SOS-MP2 energy [au]:                      -80.874793514533
 DF-MP2 correlation energy [au]:               -0.415928945421
 DF-MP2 energy [au]:                          -80.847160426297

 ************************ 2023-02-04 11:57:08 *************************
 Executing ccsd...

 Allocation of 220.0 Gbytes of memory...

 Direct DF-CCSD(T) calculation
 
 Convergence criterion:  1.0E-06
 
 Number of occupied/virtual/auxiliary orbitals:     8   202   640
   1312.15 MB is the minimal memory requirement for (T)
    293.11 MB is the minimal memory requirement for CCSD
 
 Reference energy [au]:             -80.431231480876
 T1 contribution [au]:                0.000000000000
 Same spin MP2 energy [au]:          -0.074720676507
 Opposite spin MP2 energy [au]:      -0.341219062037
 MP2 correlation energy [au]:        -0.415939738544
 Total MP2 energy [au]:             -80.847171219420
 MP2 correction [au]:                -0.006562834992
 
 
 CPU time [min]:     0.499                   Wall time [min]:     0.057
 
 Starting CCSD iterations...
 
                     Residual norm          Energy
 Iteration  1        0.196125215345      -80.873061257007
 Iteration  2        0.050029804209      -80.884108507549
 Iteration  3        0.013819619826      -80.885273991240
 Iteration  4        0.002858077991      -80.885282989097
 Iteration  5        0.000530198815      -80.885296011748
 Iteration  6        0.000119925960      -80.885295765243
 Iteration  7        0.000028601593      -80.885297145406
 Iteration  8        0.000005287565      -80.885297259334
 Iteration  9        0.000001125746      -80.885297235377
 
 CCSD iteration has converged in  9 steps.
     6687.81 MB memory was utilized by CCSD
 
 T1 diagnostic:      7.996E-03            D1 diagnostic:      1.292E-02
 
 T1 contribution [au]:                                  0.000000000000
 PPL energy contribution [au]:                          0.121205086324
 Scaled PPL energy contribution [au]:                   0.123118657630

 OS-PPL energy contribution [au]:                       0.107548115238
 Scaled OS-PPL energy contribution [au]:                0.109534211623
 SS-PPL energy contribution [au]:                       0.013656971086
 Scaled SS-PPL energy contribution [au]:                0.013705569282

 Opposite spin CCSD energy [au]:                       -0.382007364368
 Same spin CCSD energy [au]:                           -0.072071839763
 CCSD correlation energy [au]:                         -0.454079204132
 CCSD correlation energy + MP2 correction [au]:        -0.460642039123
 CCSD correlation energy + MP2 + PPL corr. [au]:       -0.458728467818
 Total CCSD energy [au]:                              -80.885310685008
 Total CCSD energy + MP2 correction [au]:             -80.891873520000
 Total CCSD energy + MP2 + PPL corr. [au]:            -80.889959948694
 
 CPU time [min]:    12.958                   Wall time [min]:     0.413
 
 Calculation of (T) correction...
 
 
     1275.43 MB memory is utilized for (T)

 0%       25%       50%       75%       100%
 |---------|---------|---------|---------| 
 
 (T) correction [au]:                                    -0.013883583706
 (T*) correction [au]:                                   -0.014102643490
 (T+) correction [au]:                                   -0.014101828174
 CCSD(T) correlation energy [au]:                        -0.467962787838
 CCSD(T) correlation energy + MP2 correction [au]:       -0.474525622830
 CCSD(T+) correlation en. + MP2 + PPL corr. [au]:        -0.472830295992
 Total CCSD(T) energy [au]:                             -80.899194268714
 Total CCSD(T) energy + MP2 correction [au]:            -80.905757103706
 Total CCSD(T+) energy + MP2 + PPL corr. [au]:          -80.904061776868
 
 CPU time [min]:    16.970                   Wall time [min]:     0.545
 
 ************************ 2023-02-04 11:57:41 *************************
                      Normal termination of mrcc.
 **********************************************************************
