 vasp.6.3.0 20Jan22 (build Apr  1 2022 16:44:48) gamma-only                      
 executed on        HPECrayEX_GCC date 2023.02.21  00:18:42
 running  128 mpi-ranks, with    1 threads/rank
 distrk:  each k-point on  128 cores,    1 groups
 distr:  one band on NCORE=   8 cores,   16 groups


--------------------------------------------------------------------------------------------------------


 INCAR:
   SYSTEM = MgO-rocksalt
   ISMEAR = 0
   SIGMA = 0.05
   EDIFF = 1E-7
   ALGO = ALL
   ISTART = 0
   IBRION = 2
   NSW = 200
   EDIFFG = -0.01
   ISIF = 2
   ISYM = 0
   DIPOL = 0.5 0.5 0.5
   IDIPOL = 4
   LDIPOL = .TRUE.
   GGA = RE
   IVDW = 13
   VDW_S8 = 1.7468
   VDW_A1 = 0.5363
   VDW_A2 = 3.0726
   ENCUT = 520
   PREC = Accurate
   LASPH = .TRUE.
   LREAL = Auto
   ISPIN = 1
   NELM = 200
   NELMIN = 8
   NCORE = 8
   KPAR = 1
   LWAVE = .FALSE.
   LCHARG = .FALSE.

 POTCAR:    PAW_PBE C 08Apr2002                   
 POTCAR:    PAW_PBE H 15Jun2001                   
 POTCAR:    PAW_PBE C 08Apr2002                   
   SHA256 =  253f7b50bb8d59471dbedb8285d89021f4a42ed1a2c5d38a03a736e69125dd95 C/POTCAR              
   COPYR  = (c) Copyright 08Apr2002 Georg Kresse                                                    
   COPYR  = This file is part of the software VASP. Any use, copying, and all other rights are regul
   COPYR  = If you do not have a valid VASP license, you may not use, copy or distribute this file. 
   VRHFIN =C: s2p2                                                                                  
   LEXCH  = PE                                                                                      
   EATOM  =   147.1560 eV,   10.8157 Ry                                                             
                                                                                                    
   TITEL  = PAW_PBE C 08Apr2002                                                                     
   LULTRA =        F    use ultrasoft PP ?                                                          
   IUNSCR =        1    unscreen: 0-lin 1-nonlin 2-no                                               
   RPACOR =    1.200    partial core radius                                                         
   POMASS =   12.011; ZVAL   =    4.000    mass and valenz                                          
   RCORE  =    1.500    outmost cutoff radius                                                       
   RWIGS  =    1.630; RWIGS  =    0.863    wigner-seitz radius (au A)                               
   ENMAX  =  400.000; ENMIN  =  300.000 eV                                                          
   ICORE  =        2    local potential                                                             
   LCOR   =        T    correct aug charges                                                         
   LPAW   =        T    paw PP                                                                      
   EAUG   =  644.873                                                                                
   DEXC   =    0.000                                                                                
   RMAX   =    1.529    core radius for proj-oper                                                   
   RAUG   =    1.300    factor for augmentation sphere                                              
   RDEP   =    1.501    radius for radial grids                                                     
   RDEPT  =    1.300    core radius for aug-charge                                                  
                                                                                                    
   Atomic configuration                                                                             
    4 entries                                                                                       
     n  l   j            E        occ.                                                              
     1  0  0.50      -273.3789   2.0000                                                             
     2  0  0.50       -13.7508   2.0000                                                             
     2  1  0.50        -5.2854   2.0000                                                             
     3  2  1.50        -5.4423   0.0000                                                             
   Description                                                                                      
     l       E           TYP  RCUT    TYP  RCUT                                                     
     0    -13.7508458     23  1.200                                                                 
     0     -8.2022199     23  1.200                                                                 
     1     -5.2854383     23  1.500                                                                 
     1     34.0145650     23  1.500                                                                 
     2     -5.4423304      7  1.500                                                                 
  local pseudopotential read in
  partial core-charges read in
  partial kinetic energy density read in
  atomic valenz-charges read in
  non local Contribution for L=           0  read in
    real space projection operators read in
  non local Contribution for L=           0  read in
    real space projection operators read in
  non local Contribution for L=           1  read in
    real space projection operators read in
  non local Contribution for L=           1  read in
    real space projection operators read in
    PAW grid and wavefunctions read in

   number of l-projection  operators is LMAX  =           4
   number of lm-projection operators is LMMAX =           8

 POTCAR:    PAW_PBE H 15Jun2001                   
   SHA256 =  030f79b5d3ab3cf0e668861823c8fb652ff669f3e15e46930bd03bfd63a607b6 H/POTCAR              
   COPYR  = (c) Copyright 15Jun2001 Georg Kresse                                                    
   COPYR  = This file is part of the software VASP. Any use, copying, and all other rights are regul
   COPYR  = If you do not have a valid VASP license, you may not use, copy or distribute this file. 
   VRHFIN =H: ultrasoft test                                                                        
   LEXCH  = PE                                                                                      
   EATOM  =    12.4884 eV,    0.9179 Ry                                                             
                                                                                                    
   TITEL  = PAW_PBE H 15Jun2001                                                                     
   LULTRA =        F    use ultrasoft PP ?                                                          
   IUNSCR =        0    unscreen: 0-lin 1-nonlin 2-no                                               
   RPACOR =    0.000    partial core radius                                                         
   POMASS =    1.000; ZVAL   =    1.000    mass and valenz                                          
   RCORE  =    1.100    outmost cutoff radius                                                       
   RWIGS  =    0.700; RWIGS  =    0.370    wigner-seitz radius (au A)                               
   ENMAX  =  250.000; ENMIN  =  200.000 eV                                                          
   RCLOC  =    0.701    cutoff for local pot                                                        
   LCOR   =        T    correct aug charges                                                         
   LPAW   =        T    paw PP                                                                      
   EAUG   =  400.000                                                                                
   RMAX   =    1.123    core radius for proj-oper                                                   
   RAUG   =    1.200    factor for augmentation sphere                                              
   RDEP   =    1.112    radius for radial grids                                                     
   RDEPT  =    0.926    core radius for aug-charge                                                  
                                                                                                    
   Atomic configuration                                                                             
    2 entries                                                                                       
     n  l   j            E        occ.                                                              
     1  0  0.50        -6.4927   1.0000                                                             
     2  1  0.50        -3.4015   0.0000                                                             
   Description                                                                                      
     l       E           TYP  RCUT    TYP  RCUT                                                     
     0     -6.4927494     23  1.100                                                                 
     0      6.8029130     23  1.100                                                                 
     1     -4.0817478     23  1.100                                                                 
  local pseudopotential read in
  atomic valenz-charges read in
  non local Contribution for L=           0  read in
    real space projection operators read in
  non local Contribution for L=           0  read in
    real space projection operators read in
  non local Contribution for L=           1  read in
    real space projection operators read in
    PAW grid and wavefunctions read in

   number of l-projection  operators is LMAX  =           3
   number of lm-projection operators is LMMAX =           5

 Optimization of the real space projectors (new method)

 maximal supplied QI-value         = 25.13
 optimisation between [QCUT,QGAM] = [ 11.56, 23.12] = [ 37.43,149.72] Ry 
 Optimized for a Real-space Cutoff    1.04 Angstroem

   l    n(q)    QCUT    max X(q) W(low)/X(q) W(high)/X(q)  e(spline) 
   0      7    11.561   115.676    0.20E-03    0.60E-03    0.21E-06
   0      7    11.561    87.132    0.20E-03    0.59E-03    0.21E-06
   1      7    11.561     4.429    0.23E-03    0.35E-03    0.15E-06
   1      7    11.561     2.733    0.18E-03    0.25E-03    0.12E-06
 Optimization of the real space projectors (new method)

 maximal supplied QI-value         = 34.20
 optimisation between [QCUT,QGAM] = [ 11.63, 23.26] = [ 37.87,151.49] Ry 
 Optimized for a Real-space Cutoff    1.21 Angstroem

   l    n(q)    QCUT    max X(q) W(low)/X(q) W(high)/X(q)  e(spline) 
   0      8    11.629    19.460    0.17E-03    0.34E-03    0.21E-06
   0      8    11.629    12.209    0.16E-03    0.33E-03    0.21E-06
   1      8    11.629     4.655    0.18E-03    0.16E-03    0.26E-06
 -----------------------------------------------------------------------------
|                                                                             |
|               ----> ADVICE to this user running VASP <----                  |
|                                                                             |
|     You enforced a specific xc type in the INCAR file but a different       |
|     type was found in the POTCAR file.                                      |
|     I HOPE YOU KNOW WHAT YOU ARE DOING!                                     |
|                                                                             |
 -----------------------------------------------------------------------------

  PAW_PBE C 08Apr2002                   :
 energy of atom  1       EATOM= -147.1560
 kinetic energy error for atom=    0.0071 (will be added to EATOM!!)
  PAW_PBE H 15Jun2001                   :
 energy of atom  2       EATOM=  -12.4884
 kinetic energy error for atom=    0.0014 (will be added to EATOM!!)


 POSCAR:  C  H
  positions in direct lattice
  velocities in cartesian coordinates
 -----------------------------------------------------------------------------
|                                                                             |
|           W    W    AA    RRRRR   N    N  II  N    N   GGGG   !!!           |
|           W    W   A  A   R    R  NN   N  II  NN   N  G    G  !!!           |
|           W    W  A    A  R    R  N N  N  II  N N  N  G       !!!           |
|           W WW W  AAAAAA  RRRRR   N  N N  II  N  N N  G  GGG   !            |
|           WW  WW  A    A  R   R   N   NN  II  N   NN  G    G                |
|           W    W  A    A  R    R  N    N  II  N    N   GGGG   !!!           |
|                                                                             |
|     Specifying the vdW parameters                                           |
|     VDW_S8 = 1.747                                                          |
|     VDW_A1 = 0.536                                                          |
|     VDW_A2 = 3.073                                                          |
|     in the INCAR file will overwrite the defaults for revpbe. Please        |
|     make sure that is what you intended.                                    |
|                                                                             |
 -----------------------------------------------------------------------------

 exchange correlation table for  LEXCH =       40
   RHO(1)=    0.500       N(1)  =     2000
   RHO(2)=  100.500       N(2)  =     4000



--------------------------------------------------------------------------------------------------------


 ion  position               nearest neighbor table
   1  0.500  0.556  0.500-   7 1.09   6 1.40   2 1.40
   2  0.550  0.528  0.500-   8 1.09   3 1.40   1 1.40
   3  0.550  0.472  0.500-   9 1.09   2 1.40   4 1.40
   4  0.500  0.444  0.500-  10 1.09   3 1.40   5 1.40
   5  0.450  0.472  0.500-  11 1.09   6 1.40   4 1.40
   6  0.450  0.528  0.500-  12 1.09   5 1.40   1 1.40
   7  0.500  0.600  0.500-   1 1.09
   8  0.589  0.550  0.500-   2 1.09
   9  0.589  0.450  0.500-   3 1.09
  10  0.500  0.400  0.500-   4 1.09
  11  0.411  0.450  0.500-   5 1.09
  12  0.411  0.550  0.500-   6 1.09


IMPORTANT INFORMATION: All symmetrisations will be switched off!
NOSYMM: (Re-)initialisation of all symmetry stuff for point group C_1.


----------------------------------------------------------------------------------------

                                     Primitive cell                                     

  volume of cell :   12132.6412

  direct lattice vectors                    reciprocal lattice vectors
    24.299574000  0.000000000  0.000000000     0.041152985  0.000000000  0.000000000
     0.000000000 24.964720000  0.000000000     0.000000000  0.040056528  0.000000000
     0.000000000  0.000000000 20.000000000     0.000000000  0.000000000  0.050000000

  length of vectors
    24.299574000 24.964720000 20.000000000     0.041152985  0.040056528  0.050000000

  position of ions in fractional coordinates (direct lattice)
     0.499999998  0.556091235  0.500000001
     0.549906311  0.528045621  0.499999995
     0.549906318  0.471954376  0.499999999
     0.500000003  0.443908766  0.500000005
     0.450093689  0.471954381  0.499999999
     0.450093683  0.528045626  0.499999997
     0.500000000  0.599794761  0.500000002
     0.588790403  0.549897409  0.499999997
     0.588790405  0.450102588  0.500000001
     0.500000000  0.400205237  0.500000004
     0.411209596  0.450102590  0.500000002
     0.411209593  0.549897411  0.499999999

  ion indices of the primitive-cell ions
   primitive index   ion index
                 1           1
                 2           2
                 3           3
                 4           4
                 5           5
                 6           6
                 7           7
                 8           8
                 9           9
                10          10
                11          11
                12          12

----------------------------------------------------------------------------------------



 KPOINTS: pymatgen v2020.8.13 with grid density = 

Automatic generation of k-mesh.
 Grid dimensions read from file:
 generate k-points for:    1    1    1

 Generating k-lattice:

  Cartesian coordinates                     Fractional coordinates (reciprocal lattice)
     0.041152985  0.000000000  0.000000000     1.000000000  0.000000000  0.000000000
     0.000000000  0.040056528  0.000000000     0.000000000  1.000000000  0.000000000
     0.000000000  0.000000000  0.050000000     0.000000000  0.000000000  1.000000000

  Length of vectors
     0.041152985  0.040056528  0.050000000

  Shift w.r.t. Gamma in fractional coordinates (k-lattice)
     0.000000000  0.000000000  0.000000000

 
 Subroutine IBZKPT returns following result:
 ===========================================
 
 Found      1 irreducible k-points:
 
 Following reciprocal coordinates:
            Coordinates               Weight
  0.000000  0.000000  0.000000      1.000000
 
 Following cartesian coordinates:
            Coordinates               Weight
  0.000000  0.000000  0.000000      1.000000
 


--------------------------------------------------------------------------------------------------------




 Dimension of arrays:
   k-points           NKPTS =      1   k-points in BZ     NKDIM =      1   number of bands    NBANDS=     32
   number of dos      NEDOS =    301   number of ions     NIONS =     12
   non local maximal  LDIM  =      4   non local SUM 2l+1 LMDIM =      8
   total plane-waves  NPLWV = ******
   max r-space proj   IRMAX =   3438   max aug-charges    IRDMAX=   5577
   dimension x,y,z NGX =   192 NGY =  192 NGZ =  150
   dimension x,y,z NGXF=   384 NGYF=  384 NGZF=  300
   support grid    NGXF=   384 NGYF=  384 NGZF=  300
   ions per type =               6   6
   NGX,Y,Z   is equivalent  to a cutoff of  13.14, 12.79, 12.47 a.u.
   NGXF,Y,Z  is equivalent  to a cutoff of  26.27, 25.57, 24.94 a.u.

 SYSTEM =  MgO-rocksalt                            
 POSCAR =   C  H                                   

--------------------------------------------------------------------------------------------------------


  energy-cutoff  :      520.00
  volume of cell :    12132.64
      direct lattice vectors                 reciprocal lattice vectors
    24.299574000  0.000000000  0.000000000     0.041152985  0.000000000  0.000000000
     0.000000000 24.964720000  0.000000000     0.000000000  0.040056528  0.000000000
     0.000000000  0.000000000 20.000000000     0.000000000  0.000000000  0.050000000

  length of vectors
    24.299574000 24.964720000 20.000000000     0.041152985  0.040056528  0.050000000



 k-points in units of 2pi/SCALE and weight: pymatgen v2020.8.13 with grid density = 
   0.00000000  0.00000000  0.00000000       1.000

 k-points in reciprocal lattice and weights: pymatgen v2020.8.13 with grid density = 
   0.00000000  0.00000000  0.00000000       1.000

 position of ions in fractional coordinates (direct lattice) 
   0.50000000  0.55609123  0.50000000
   0.54990631  0.52804562  0.49999999
   0.54990632  0.47195438  0.50000000
   0.50000000  0.44390877  0.50000000
   0.45009369  0.47195438  0.50000000
   0.45009368  0.52804563  0.50000000
   0.50000000  0.59979476  0.50000000
   0.58879040  0.54989741  0.50000000
   0.58879041  0.45010259  0.50000000
   0.50000000  0.40020524  0.50000000
   0.41120960  0.45010259  0.50000000
   0.41120959  0.54989741  0.50000000

 position of ions in cartesian coordinates  (Angst):
  12.14978695 13.88266197 10.00000002
  13.36248910 13.18251106  9.99999990
  13.36248927 11.78220884  9.99999998
  12.14978708 11.08205805 10.00000009
  10.93708490 11.78220897  9.99999999
  10.93708476 13.18251121  9.99999993
  12.14978700 14.97370828 10.00000005
  14.30735597 13.72803485  9.99999993
  14.30735603 11.23668507 10.00000003
  12.14978699  9.99101169 10.00000007
   9.99221800 11.23668512 10.00000003
   9.99221795 13.72803489  9.99999998



--------------------------------------------------------------------------------------------------------


--------------------------------------- Iteration      FINAL  ---------------------------------------


--------------------OUTCAR has been truncated-------------------------


--------------------OUTCAR has been truncated-------------------------


--------------------OUTCAR has been truncated-------------------------


--------------------OUTCAR has been truncated-------------------------


--------------------OUTCAR has been truncated-------------------------


--------------------OUTCAR has been truncated-------------------------


--------------------OUTCAR has been truncated-------------------------


--------------------OUTCAR has been truncated-------------------------


--------------------OUTCAR has been truncated-------------------------


--------------------OUTCAR has been truncated-------------------------



  FORCE on cell =-STRESS in cart. coord.  units (eV):
  Direction    XX          YY          ZZ          XY          YZ          ZX
  --------------------------------------------------------------------------------------
  Alpha Z     0.34083     0.34083     0.34083
  Ewald    1095.11449  1072.07571  -156.28699    -0.00006    -0.00003    -0.00004
  Hartree  1154.85910  1132.01695   491.80586    -0.00003    -0.00002    -0.00003
  E(xc)    -106.92951  -106.92981  -111.16754    -0.00000    -0.00000    -0.00000
  Local   -2516.54606 -2470.68520  -660.19479     0.00008     0.00005     0.00006
  n-local   -36.80120   -36.79483   -32.95386    -0.00000    -0.00000     0.00000
  augment    -1.48430    -1.48358    -1.23563     0.00000     0.00000     0.00000
  Kinetic   411.81127   411.82311   469.56544     0.00001     0.00000    -0.00000
  Fock        0.00000     0.00000     0.00000     0.00000     0.00000     0.00000
  vdW        -0.48900    -0.48897    -0.00002     0.00000     0.00000     0.00000
  -------------------------------------------------------------------------------------
  Total      -0.12439    -0.12578    -0.12670     0.00000     0.00000    -0.00000
  in kB      -0.01643    -0.01661    -0.01673     0.00000     0.00000    -0.00000
  external pressure =       -0.02 kB  Pullay stress =        0.00 kB


 VOLUME and BASIS-vectors are now :
 -----------------------------------------------------------------------------
  energy-cutoff  :      520.00
  volume of cell :    12132.64
      direct lattice vectors                 reciprocal lattice vectors
    24.299574000  0.000000000  0.000000000     0.041152985  0.000000000  0.000000000
     0.000000000 24.964720000  0.000000000     0.000000000  0.040056528  0.000000000
     0.000000000  0.000000000 20.000000000     0.000000000  0.000000000  0.050000000

  length of vectors
    24.299574000 24.964720000 20.000000000     0.041152985  0.040056528  0.050000000


 FORCES acting on ions:
    Electron-Ion                     Ewald-Force                    Non-Local-Force
 -----------------------------------------------------------------------------------------------
   -.816E-05 -.178E+03 -.275E-04   0.824E-05 0.179E+03 0.285E-04   0.667E-06 -.833E+00 -.256E-05
   -.154E+03 -.891E+02 0.573E-04   0.155E+03 0.895E+02 -.580E-04   -.718E+00 -.414E+00 0.279E-05
   -.154E+03 0.891E+02 -.277E-05   0.155E+03 -.895E+02 0.306E-05   -.718E+00 0.414E+00 -.112E-05
   0.417E-05 0.178E+03 -.186E-04   -.371E-05 -.179E+03 0.190E-04   -.491E-06 0.833E+00 -.649E-06
   0.154E+03 0.891E+02 0.509E-05   -.155E+03 -.895E+02 -.541E-05   0.718E+00 0.414E+00 0.489E-06
   0.154E+03 -.891E+02 0.424E-05   -.155E+03 0.895E+02 -.432E-05   0.718E+00 -.414E+00 0.766E-06
   -.310E-05 -.800E+02 -.325E-05   0.357E-05 0.858E+02 0.342E-05   -.263E-06 -.574E+01 -.104E-06
   -.693E+02 -.400E+02 -.350E-05   0.743E+02 0.429E+02 0.381E-05   -.497E+01 -.287E+01 -.789E-06
   -.693E+02 0.400E+02 -.497E-05   0.743E+02 -.429E+02 0.522E-05   -.497E+01 0.287E+01 -.464E-06
   0.278E-05 0.800E+02 -.253E-05   -.320E-05 -.858E+02 0.281E-05   0.236E-06 0.574E+01 -.518E-07
   0.693E+02 0.400E+02 -.270E-05   -.743E+02 -.429E+02 0.281E-05   0.497E+01 0.287E+01 -.294E-06
   0.693E+02 -.400E+02 0.100E-05   -.743E+02 0.429E+02 -.915E-06   0.497E+01 -.287E+01 0.939E-07
 -----------------------------------------------------------------------------------------------
   0.134E-07 0.335E-05 0.179E-05   0.235E-13 0.142E-12 0.353E-16   0.703E-08 -.321E-05 -.190E-05


 POSITION                                       TOTAL-FORCE (eV/Angst)
 -----------------------------------------------------------------------------------
     12.14979     13.88255     10.00000         0.000001      0.000206     -0.000001
     13.36244     13.18251     10.00000         0.001619     -0.000702      0.000002
     13.36244     11.78221     10.00000         0.001617      0.000703     -0.000001
     12.14979     11.08217     10.00000        -0.000000     -0.000205     -0.000000
     10.93713     11.78221     10.00000        -0.001622      0.000701      0.000000
     10.93713     13.18251     10.00000        -0.001615     -0.000705      0.000001
     12.14979     14.97376     10.00000         0.000000     -0.000722      0.000000
     14.30740     13.72806     10.00000         0.001234      0.000942     -0.000000
     14.30740     11.23666     10.00000         0.001234     -0.000941     -0.000000
     12.14979      9.99096     10.00000        -0.000000      0.000723      0.000000
      9.99217     11.23666     10.00000        -0.001232     -0.000941     -0.000000
      9.99217     13.72806     10.00000        -0.001236      0.000943      0.000000
 -----------------------------------------------------------------------------------
    total drift:                                0.000000      0.000000     -0.000000


--------------------------------------------------------------------------------------------------------



  FREE ENERGIE OF THE ION-ELECTRON SYSTEM (eV)
  ---------------------------------------------------
  free  energy   TOTEN  =       -75.61761907 eV

  energy  without entropy=      -75.61761907  energy(sigma->0) =      -75.61761907

 d Force = 0.2676115E-04[ 0.303E-06, 0.532E-04]  d Energy = 0.2619469E-04 0.566E-06
 d Force = 0.1376375E+00[ 0.138E+00, 0.138E+00]  d Ewald  = 0.1376370E+00 0.541E-06


--------------------------------------------------------------------------------------------------------


    POTLOK:  cpu time      0.3899: real time      0.3900


--------------------------------------------------------------------------------------------------------




--------------------------------------------------------------------------------------------------------


  
 reached required accuracy - stopping structural energy minimisation
     LOOP+:  cpu time     10.7185: real time     10.8031
    4ORBIT:  cpu time      0.0000: real time      0.0000

 total amount of memory used by VASP MPI-rank0   105560. kBytes
=======================================================================

   base      :      30000. kBytes
   nonlr-proj:        230. kBytes
   fftplans  :      26198. kBytes
   grid      :      47167. kBytes
   one-center:          3. kBytes
   wavefun   :       1962. kBytes

  
  
 General timing and accounting informations for this job:
 ========================================================
  
                  Total CPU time used (sec):       62.001
                            User time (sec):       59.419
                          System time (sec):        2.582
                         Elapsed time (sec):       65.092
  
                   Maximum memory used (kb):      212716.
                   Average memory used (kb):          N/A
  
                          Minor page faults:        28289
                          Major page faults:           49
                 Voluntary context switches:         4973
