 vasp.6.3.0 20Jan22 (build Apr  1 2022 16:44:48) gamma-only                      
 executed on        HPECrayEX_GCC date 2023.02.21  01:39:48
 running  512 mpi-ranks, with    1 threads/rank
 distrk:  each k-point on  512 cores,    1 groups
 distr:  one band on NCORE=   8 cores,   64 groups


--------------------------------------------------------------------------------------------------------


 INCAR:
   SYSTEM = MgO-rocksalt
   ISMEAR = 0
   SIGMA = 0.05
   EDIFF = 1E-6
   ALGO = ALL
   ISTART = 0
   IBRION = -1
   NSW = 0
   ISYM = 0
   DIPOL = 0.5 0.5 0.5
   IDIPOL = 3
   LDIPOL = .TRUE.
   GGA = PE
   IVDW = 1
   VDW_C6 = 1.75 0.70 0.14 0.63 0.70
   VDW_R0 = 1.452 1.342 1.001 1.243 1.342
   ENCUT = 520
   PREC = Accurate
   LASPH = .TRUE.
   LREAL = Auto
   ISPIN = 1
   NELM = 200
   NELMIN = 8
   NCORE = 8
   KPAR = 1
   LWAVE = .FALSE.
   LCHARG = .FALSE.

 POTCAR:    PAW_PBE C 08Apr2002                   
 POTCAR:    PAW_PBE O 08Apr2002                   
 POTCAR:    PAW_PBE H 15Jun2001                   
 POTCAR:    PAW_PBE Mg_pv 13Apr2007               
 POTCAR:    PAW_PBE O 08Apr2002                   
 POTCAR:    PAW_PBE C 08Apr2002                   
   SHA256 =  253f7b50bb8d59471dbedb8285d89021f4a42ed1a2c5d38a03a736e69125dd95 C/POTCAR              
   COPYR  = (c) Copyright 08Apr2002 Georg Kresse                                                    
   COPYR  = This file is part of the software VASP. Any use, copying, and all other rights are regul
   COPYR  = If you do not have a valid VASP license, you may not use, copy or distribute this file. 
   VRHFIN =C: s2p2                                                                                  
   LEXCH  = PE                                                                                      
   EATOM  =   147.1560 eV,   10.8157 Ry                                                             
                                                                                                    
   TITEL  = PAW_PBE C 08Apr2002                                                                     
   LULTRA =        F    use ultrasoft PP ?                                                          
   IUNSCR =        1    unscreen: 0-lin 1-nonlin 2-no                                               
   RPACOR =    1.200    partial core radius                                                         
   POMASS =   12.011; ZVAL   =    4.000    mass and valenz                                          
   RCORE  =    1.500    outmost cutoff radius                                                       
   RWIGS  =    1.630; RWIGS  =    0.863    wigner-seitz radius (au A)                               
   ENMAX  =  400.000; ENMIN  =  300.000 eV                                                          
   ICORE  =        2    local potential                                                             
   LCOR   =        T    correct aug charges                                                         
   LPAW   =        T    paw PP                                                                      
   EAUG   =  644.873                                                                                
   DEXC   =    0.000                                                                                
   RMAX   =    1.529    core radius for proj-oper                                                   
   RAUG   =    1.300    factor for augmentation sphere                                              
   RDEP   =    1.501    radius for radial grids                                                     
   RDEPT  =    1.300    core radius for aug-charge                                                  
                                                                                                    
   Atomic configuration                                                                             
    4 entries                                                                                       
     n  l   j            E        occ.                                                              
     1  0  0.50      -273.3789   2.0000                                                             
     2  0  0.50       -13.7508   2.0000                                                             
     2  1  0.50        -5.2854   2.0000                                                             
     3  2  1.50        -5.4423   0.0000                                                             
   Description                                                                                      
     l       E           TYP  RCUT    TYP  RCUT                                                     
     0    -13.7508458     23  1.200                                                                 
     0     -8.2022199     23  1.200                                                                 
     1     -5.2854383     23  1.500                                                                 
     1     34.0145650     23  1.500                                                                 
     2     -5.4423304      7  1.500                                                                 
  local pseudopotential read in
  partial core-charges read in
  partial kinetic energy density read in
  atomic valenz-charges read in
  non local Contribution for L=           0  read in
    real space projection operators read in
  non local Contribution for L=           0  read in
    real space projection operators read in
  non local Contribution for L=           1  read in
    real space projection operators read in
  non local Contribution for L=           1  read in
    real space projection operators read in
    PAW grid and wavefunctions read in

   number of l-projection  operators is LMAX  =           4
   number of lm-projection operators is LMMAX =           8

 POTCAR:    PAW_PBE O 08Apr2002                   
   SHA256 =  818f92134a0a090dccd8ba1447fa70422a3b330e708bb4f08108d8ae51209ddf O/POTCAR              
   COPYR  = (c) Copyright 08Apr2002 Georg Kresse                                                    
   COPYR  = This file is part of the software VASP. Any use, copying, and all other rights are regul
   COPYR  = If you do not have a valid VASP license, you may not use, copy or distribute this file. 
   VRHFIN =O: s2p4                                                                                  
   LEXCH  = PE                                                                                      
   EATOM  =   432.3788 eV,   31.7789 Ry                                                             
                                                                                                    
   TITEL  = PAW_PBE O 08Apr2002                                                                     
   LULTRA =        F    use ultrasoft PP ?                                                          
   IUNSCR =        1    unscreen: 0-lin 1-nonlin 2-no                                               
   RPACOR =    1.200    partial core radius                                                         
   POMASS =   16.000; ZVAL   =    6.000    mass and valenz                                          
   RCORE  =    1.520    outmost cutoff radius                                                       
   RWIGS  =    1.550; RWIGS  =    0.820    wigner-seitz radius (au A)                               
   ENMAX  =  400.000; ENMIN  =  300.000 eV                                                          
   ICORE  =        2    local potential                                                             
   LCOR   =        T    correct aug charges                                                         
   LPAW   =        T    paw PP                                                                      
   EAUG   =  605.392                                                                                
   DEXC   =    0.000                                                                                
   RMAX   =    1.553    core radius for proj-oper                                                   
   RAUG   =    1.300    factor for augmentation sphere                                              
   RDEP   =    1.550    radius for radial grids                                                     
   RDEPT  =    1.329    core radius for aug-charge                                                  
                                                                                                    
   Atomic configuration                                                                             
    4 entries                                                                                       
     n  l   j            E        occ.                                                              
     1  0  0.50      -514.6923   2.0000                                                             
     2  0  0.50       -23.9615   2.0000                                                             
     2  1  0.50        -9.0305   4.0000                                                             
     3  2  1.50        -9.5241   0.0000                                                             
   Description                                                                                      
     l       E           TYP  RCUT    TYP  RCUT                                                     
     0    -23.9615318     23  1.200                                                                 
     0     -9.5240782     23  1.200                                                                 
     1     -9.0304911     23  1.520                                                                 
     1      8.1634956     23  1.520                                                                 
     2     -9.5240782      7  1.500                                                                 
  local pseudopotential read in
  partial core-charges read in
  partial kinetic energy density read in
  kinetic energy density of atom read in
  atomic valenz-charges read in
  non local Contribution for L=           0  read in
    real space projection operators read in
  non local Contribution for L=           0  read in
    real space projection operators read in
  non local Contribution for L=           1  read in
    real space projection operators read in
  non local Contribution for L=           1  read in
    real space projection operators read in
    PAW grid and wavefunctions read in

   number of l-projection  operators is LMAX  =           4
   number of lm-projection operators is LMMAX =           8

 POTCAR:    PAW_PBE H 15Jun2001                   
   SHA256 =  030f79b5d3ab3cf0e668861823c8fb652ff669f3e15e46930bd03bfd63a607b6 H/POTCAR              
   COPYR  = (c) Copyright 15Jun2001 Georg Kresse                                                    
   COPYR  = This file is part of the software VASP. Any use, copying, and all other rights are regul
   COPYR  = If you do not have a valid VASP license, you may not use, copy or distribute this file. 
   VRHFIN =H: ultrasoft test                                                                        
   LEXCH  = PE                                                                                      
   EATOM  =    12.4884 eV,    0.9179 Ry                                                             
                                                                                                    
   TITEL  = PAW_PBE H 15Jun2001                                                                     
   LULTRA =        F    use ultrasoft PP ?                                                          
   IUNSCR =        0    unscreen: 0-lin 1-nonlin 2-no                                               
   RPACOR =    0.000    partial core radius                                                         
   POMASS =    1.000; ZVAL   =    1.000    mass and valenz                                          
   RCORE  =    1.100    outmost cutoff radius                                                       
   RWIGS  =    0.700; RWIGS  =    0.370    wigner-seitz radius (au A)                               
   ENMAX  =  250.000; ENMIN  =  200.000 eV                                                          
   RCLOC  =    0.701    cutoff for local pot                                                        
   LCOR   =        T    correct aug charges                                                         
   LPAW   =        T    paw PP                                                                      
   EAUG   =  400.000                                                                                
   RMAX   =    1.123    core radius for proj-oper                                                   
   RAUG   =    1.200    factor for augmentation sphere                                              
   RDEP   =    1.112    radius for radial grids                                                     
   RDEPT  =    0.926    core radius for aug-charge                                                  
                                                                                                    
   Atomic configuration                                                                             
    2 entries                                                                                       
     n  l   j            E        occ.                                                              
     1  0  0.50        -6.4927   1.0000                                                             
     2  1  0.50        -3.4015   0.0000                                                             
   Description                                                                                      
     l       E           TYP  RCUT    TYP  RCUT                                                     
     0     -6.4927494     23  1.100                                                                 
     0      6.8029130     23  1.100                                                                 
     1     -4.0817478     23  1.100                                                                 
  local pseudopotential read in
  atomic valenz-charges read in
  non local Contribution for L=           0  read in
    real space projection operators read in
  non local Contribution for L=           0  read in
    real space projection operators read in
  non local Contribution for L=           1  read in
    real space projection operators read in
    PAW grid and wavefunctions read in

   number of l-projection  operators is LMAX  =           3
   number of lm-projection operators is LMMAX =           5

 POTCAR:    PAW_PBE Mg_pv 13Apr2007               
   SHA256 =  f474ac0dd33840b9ae76c01d57fea79fdf77cdfbb07d5ade72c65f83c709b62b Mg_pv/POTCAR          
   COPYR  = (c) Copyright 13Apr2007 Georg Kresse                                                    
   COPYR  = This file is part of the software VASP. Any use, copying, and all other rights are regul
   COPYR  = If you do not have a valid VASP license, you may not use, copy or distribute this file. 
   VRHFIN =Mg: p6s2                                                                                 
   LEXCH  = PE                                                                                      
   EATOM  =  1056.7344 eV,   77.6678 Ry                                                             
                                                                                                    
   TITEL  = PAW_PBE Mg_pv 13Apr2007                                                                 
   LULTRA =        F    use ultrasoft PP ?                                                          
   IUNSCR =        1    unscreen: 0-lin 1-nonlin 2-no                                               
   RPACOR =    1.500    partial core radius                                                         
   POMASS =   24.305; ZVAL   =    8.000    mass and valenz                                          
   RCORE  =    2.000    outmost cutoff radius                                                       
   RWIGS  =    2.000; RWIGS  =    1.058    wigner-seitz radius (au A)                               
   ENMAX  =  403.929; ENMIN  =  302.947 eV                                                          
   RCLOC  =    1.506    cutoff for local pot                                                        
   LCOR   =        T    correct aug charges                                                         
   LPAW   =        T    paw PP                                                                      
   EAUG   =  758.780                                                                                
   DEXC   =    0.000                                                                                
   RMAX   =    2.045    core radius for proj-oper                                                   
   RAUG   =    1.300    factor for augmentation sphere                                              
   RDEP   =    2.025    radius for radial grids                                                     
   RDEPT  =    1.557    core radius for aug-charge                                                  
                                                                                                    
   Atomic configuration                                                                             
    5 entries                                                                                       
     n  l   j            E        occ.                                                              
     1  0  0.50     -1259.6230   2.0000                                                             
     2  0  0.50       -79.8442   2.0000                                                             
     2  1  1.50       -46.6121   6.0000                                                             
     3  0  0.50        -4.7055   2.0000                                                             
     3  2  1.50        -1.3606   0.0000                                                             
   Description                                                                                      
     l       E           TYP  RCUT    TYP  RCUT                                                     
     1    -46.6121073     23  1.600                                                                 
     1      2.7211652     23  1.600                                                                 
     0     -4.7054661     23  2.000                                                                 
     0     61.2262170     23  2.000                                                                 
     2     -1.3605826     23  2.000                                                                 
  local pseudopotential read in
  partial core-charges read in
  partial kinetic energy density read in
  atomic valenz-charges read in
  non local Contribution for L=           1  read in
    real space projection operators read in
  non local Contribution for L=           1  read in
    real space projection operators read in
  non local Contribution for L=           0  read in
    real space projection operators read in
  non local Contribution for L=           0  read in
    real space projection operators read in
  non local Contribution for L=           2  read in
    real space projection operators read in
    PAW grid and wavefunctions read in

   number of l-projection  operators is LMAX  =           5
   number of lm-projection operators is LMMAX =          13

 POTCAR:    PAW_PBE O 08Apr2002                   
   SHA256 =  818f92134a0a090dccd8ba1447fa70422a3b330e708bb4f08108d8ae51209ddf O/POTCAR              
   COPYR  = (c) Copyright 08Apr2002 Georg Kresse                                                    
   COPYR  = This file is part of the software VASP. Any use, copying, and all other rights are regul
   COPYR  = If you do not have a valid VASP license, you may not use, copy or distribute this file. 
   VRHFIN =O: s2p4                                                                                  
   LEXCH  = PE                                                                                      
   EATOM  =   432.3788 eV,   31.7789 Ry                                                             
                                                                                                    
   TITEL  = PAW_PBE O 08Apr2002                                                                     
   LULTRA =        F    use ultrasoft PP ?                                                          
   IUNSCR =        1    unscreen: 0-lin 1-nonlin 2-no                                               
   RPACOR =    1.200    partial core radius                                                         
   POMASS =   16.000; ZVAL   =    6.000    mass and valenz                                          
   RCORE  =    1.520    outmost cutoff radius                                                       
   RWIGS  =    1.550; RWIGS  =    0.820    wigner-seitz radius (au A)                               
   ENMAX  =  400.000; ENMIN  =  300.000 eV                                                          
   ICORE  =        2    local potential                                                             
   LCOR   =        T    correct aug charges                                                         
   LPAW   =        T    paw PP                                                                      
   EAUG   =  605.392                                                                                
   DEXC   =    0.000                                                                                
   RMAX   =    1.553    core radius for proj-oper                                                   
   RAUG   =    1.300    factor for augmentation sphere                                              
   RDEP   =    1.550    radius for radial grids                                                     
   RDEPT  =    1.329    core radius for aug-charge                                                  
                                                                                                    
   Atomic configuration                                                                             
    4 entries                                                                                       
     n  l   j            E        occ.                                                              
     1  0  0.50      -514.6923   2.0000                                                             
     2  0  0.50       -23.9615   2.0000                                                             
     2  1  0.50        -9.0305   4.0000                                                             
     3  2  1.50        -9.5241   0.0000                                                             
   Description                                                                                      
     l       E           TYP  RCUT    TYP  RCUT                                                     
     0    -23.9615318     23  1.200                                                                 
     0     -9.5240782     23  1.200                                                                 
     1     -9.0304911     23  1.520                                                                 
     1      8.1634956     23  1.520                                                                 
     2     -9.5240782      7  1.500                                                                 
  local pseudopotential read in
  partial core-charges read in
  partial kinetic energy density read in
  kinetic energy density of atom read in
  atomic valenz-charges read in
  non local Contribution for L=           0  read in
    real space projection operators read in
  non local Contribution for L=           0  read in
    real space projection operators read in
  non local Contribution for L=           1  read in
    real space projection operators read in
  non local Contribution for L=           1  read in
    real space projection operators read in
    PAW grid and wavefunctions read in

   number of l-projection  operators is LMAX  =           4
   number of lm-projection operators is LMMAX =           8

 Optimization of the real space projectors (new method)

 maximal supplied QI-value         = 25.13
 optimisation between [QCUT,QGAM] = [ 11.56, 23.12] = [ 37.43,149.72] Ry 
 Optimized for a Real-space Cutoff    1.04 Angstroem

   l    n(q)    QCUT    max X(q) W(low)/X(q) W(high)/X(q)  e(spline) 
   0      7    11.561   115.676    0.20E-03    0.60E-03    0.21E-06
   0      7    11.561    87.132    0.20E-03    0.59E-03    0.21E-06
   1      7    11.561     4.429    0.23E-03    0.35E-03    0.15E-06
   1      7    11.561     2.733    0.18E-03    0.25E-03    0.12E-06
 Optimization of the real space projectors (new method)

 maximal supplied QI-value         = 24.76
 optimisation between [QCUT,QGAM] = [ 11.64, 23.27] = [ 37.91,151.63] Ry 
 Optimized for a Real-space Cutoff    1.14 Angstroem

   l    n(q)    QCUT    max X(q) W(low)/X(q) W(high)/X(q)  e(spline) 
   0      8    11.635    20.381    0.10E-03    0.33E-03    0.24E-06
   0      8    11.635    15.268    0.11E-03    0.35E-03    0.26E-06
   1      7    11.635     5.964    0.24E-03    0.31E-03    0.30E-06
   1      7    11.635     5.382    0.22E-03    0.25E-03    0.26E-06
 Optimization of the real space projectors (new method)

 maximal supplied QI-value         = 34.20
 optimisation between [QCUT,QGAM] = [ 11.63, 23.26] = [ 37.87,151.49] Ry 
 Optimized for a Real-space Cutoff    1.21 Angstroem

   l    n(q)    QCUT    max X(q) W(low)/X(q) W(high)/X(q)  e(spline) 
   0      8    11.629    19.460    0.17E-03    0.34E-03    0.21E-06
   0      8    11.629    12.209    0.16E-03    0.33E-03    0.21E-06
   1      8    11.629     4.655    0.18E-03    0.16E-03    0.26E-06
 Optimization of the real space projectors (new method)

 maximal supplied QI-value         = 18.90
 optimisation between [QCUT,QGAM] = [ 11.53, 23.24] = [ 37.21,151.29] Ry 
 Optimized for a Real-space Cutoff    1.28 Angstroem

   l    n(q)    QCUT    max X(q) W(low)/X(q) W(high)/X(q)  e(spline) 
   1      8    11.527     2.974    0.44E-04    0.56E-04    0.12E-06
   1      8    11.527     4.279    0.12E-03    0.12E-03    0.26E-06
   0      9    11.527    16.381    0.46E-04    0.64E-04    0.78E-07
   0      9    11.527     5.611    0.26E-04    0.43E-04    0.55E-07
   2      8    11.527     4.652    0.22E-03    0.72E-04    0.47E-07
 Optimization of the real space projectors (new method)

 maximal supplied QI-value         = 24.76
 optimisation between [QCUT,QGAM] = [ 11.64, 23.27] = [ 37.91,151.63] Ry 
 Optimized for a Real-space Cutoff    1.14 Angstroem

   l    n(q)    QCUT    max X(q) W(low)/X(q) W(high)/X(q)  e(spline) 
   0      8    11.635    20.381    0.10E-03    0.33E-03    0.24E-06
   0      8    11.635    15.268    0.11E-03    0.35E-03    0.26E-06
   1      7    11.635     5.964    0.24E-03    0.31E-03    0.30E-06
   1      7    11.635     5.382    0.22E-03    0.25E-03    0.26E-06
  PAW_PBE C 08Apr2002                   :
 energy of atom  1       EATOM= -147.1560
 kinetic energy error for atom=    0.0071 (will be added to EATOM!!)
  PAW_PBE O 08Apr2002                   :
 energy of atom  2       EATOM= -432.3788
 kinetic energy error for atom=    0.0208 (will be added to EATOM!!)
  PAW_PBE H 15Jun2001                   :
 energy of atom  3       EATOM=  -12.4884
 kinetic energy error for atom=    0.0014 (will be added to EATOM!!)
  PAW_PBE Mg_pv 13Apr2007               :
 energy of atom  4       EATOM=-1056.7344
 kinetic energy error for atom=    0.0340 (will be added to EATOM!!)
  PAW_PBE O 08Apr2002                   :
 energy of atom  5       EATOM= -432.3788
 kinetic energy error for atom=    0.0208 (will be added to EATOM!!)


 POSCAR:  C  O  H Mg  O
  positions in direct lattice
  No initial velocities read in
 exchange correlation table for  LEXCH =        8
   RHO(1)=    0.500       N(1)  =     2000
   RHO(2)=  100.500       N(2)  =     4000



--------------------------------------------------------------------------------------------------------


 ion  position               nearest neighbor table
   1  0.528  0.555  0.794-  12 1.10  11 1.10   9 1.10   5 1.44
   2  0.321  0.401  0.795-  16 1.10  15 1.10  13 1.10   6 1.44
   3  0.474  0.195  0.795-  20 1.10  19 1.10  17 1.10   7 1.44
   4  0.680  0.347  0.794-  24 1.10  23 1.10  21 1.10   8 1.44
   5  0.508  0.487  0.756-  10 1.00   1 1.44
   6  0.388  0.382  0.756-  14 1.00   2 1.44
   7  0.492  0.263  0.756-  18 1.00   3 1.44
   8  0.612  0.367  0.756-  22 1.00   4 1.44
   9  0.519  0.542  0.844-   1 1.10
  10  0.552  0.448  0.759-   5 1.00
  11  0.590  0.572  0.786-   1 1.10
  12  0.489  0.603  0.779-   1 1.10
  13  0.334  0.392  0.845-   2 1.10
  14  0.427  0.427  0.759-   6 1.00
  15  0.303  0.463  0.787-   2 1.10
  16  0.272  0.362  0.780-   2 1.10
  17  0.483  0.209  0.845-   3 1.10
  18  0.448  0.302  0.759-   7 1.00
  19  0.412  0.177  0.787-   3 1.10
  20  0.513  0.147  0.780-   3 1.10
  21  0.667  0.355  0.844-   4 1.10
  22  0.573  0.323  0.758-   8 1.00
  23  0.696  0.285  0.786-   4 1.10
  24  0.729  0.384  0.779-   4 1.10
  25  0.125  0.000  0.351- 153 2.12 155 2.12 156 2.12 172 2.12 195 2.12
  26  0.250  0.125  0.351- 154 2.12 155 2.12 156 2.12 164 2.12 171 2.12
  27  0.125  0.125  0.450- 159 2.11 155 2.12 153 2.12 154 2.12 161 2.12 170 2.12
  28  0.250  0.000  0.450- 160 2.11 156 2.12 153 2.12 154 2.12 169 2.12 194 2.12
  29  0.125  1.000  0.550- 159 2.12 160 2.12 199 2.12 176 2.12 153 2.12 157 2.14
  30  0.250  0.125  0.550- 168 2.11 175 2.11 154 2.12 159 2.12 160 2.12 158 2.15
  31  0.125  0.125  0.647- 159 2.10 158 2.11 174 2.12 157 2.12 165 2.12
  32  0.250  1.000  0.647- 160 2.09 158 2.11 198 2.11 173 2.12 157 2.12
  33  0.125  0.250  0.351- 161 2.12 155 2.12 163 2.12 164 2.12 180 2.12
  34  0.250  0.375  0.351- 162 2.12 163 2.12 164 2.12 179 2.12 188 2.12
  35  0.125  0.375  0.450- 167 2.11 163 2.12 161 2.12 162 2.12 178 2.12 185 2.12
  36  0.250  0.250  0.450- 168 2.11 164 2.12 162 2.12 154 2.12 161 2.12 177 2.12
  37  0.125  0.250  0.550- 168 2.11 184 2.12 167 2.12 161 2.12 159 2.12 165 2.15
  38  0.250  0.375  0.550- 183 2.10 168 2.12 192 2.12 162 2.13 167 2.13 166 2.15
  39  0.125  0.375  0.647- 167 2.09 166 2.10 182 2.11 189 2.12 165 2.12
  40  0.250  0.250  0.647- 168 2.08 181 2.09 165 2.12 158 2.12 166 2.12
  41  0.375  0.000  0.351- 169 2.12 156 2.12 171 2.12 211 2.12 236 2.12
  42  0.000  0.125  0.351- 170 2.12 155 2.12 172 2.12 180 2.12 235 2.12
  43  0.375  0.125  0.450- 175 2.11 171 2.12 154 2.12 169 2.12 177 2.12 234 2.12
  44  0.000  0.000  0.450- 176 2.11 172 2.12 153 2.12 170 2.12 210 2.12 233 2.12
  45  0.375  1.000  0.550- 175 2.11 215 2.12 240 2.12 169 2.12 160 2.12 173 2.15
  46  0.000  0.125  0.550- 239 2.11 159 2.11 176 2.12 184 2.12 170 2.12 174 2.14
  47  0.375  0.125  0.647- 175 2.08 181 2.10 173 2.12 158 2.12 238 2.12
  48  0.000  1.000  0.648- 176 2.10 237 2.11 157 2.11 214 2.12 174 2.12
  49  0.375  0.250  0.351- 177 2.12 171 2.12 164 2.12 179 2.12 244 2.12
  50  0.000  0.375  0.351- 178 2.12 163 2.12 180 2.12 204 2.12 243 2.12
  51  0.375  0.375  0.450- 179 2.12 177 2.12 162 2.12 201 2.12 242 2.12 183 2.13
  52  0.000  0.250  0.450- 184 2.11 180 2.12 178 2.12 161 2.12 170 2.12 241 2.12
  53  0.376  0.251  0.550- 248 2.11 183 2.11 181 2.12 168 2.13 175 2.13 177 2.13
  54  0.000  0.375  0.550- 247 2.11 167 2.11 208 2.12 178 2.12 184 2.12 182 2.15
  55  0.375  0.375  0.651- 246 2.13 166 2.13 181 2.14 205 2.15 183 2.16
  56  0.000  0.250  0.647- 184 2.09 165 2.11 245 2.11 174 2.12 182 2.12
  57  0.125  0.500  0.351- 185 2.12 163 2.12 187 2.12 188 2.12 204 2.12
  58  0.250  0.625  0.351- 186 2.12 187 2.12 188 2.12 196 2.12 203 2.12
  59  0.125  0.625  0.450- 191 2.11 187 2.12 185 2.12 186 2.12 193 2.12 202 2.12
  60  0.250  0.500  0.450- 192 2.11 188 2.12 186 2.12 162 2.12 185 2.12 201 2.12
  61  0.125  0.500  0.550- 192 2.11 208 2.12 167 2.12 185 2.12 191 2.12 189 2.15
  62  0.250  0.625  0.550- 207 2.11 192 2.11 186 2.12 200 2.12 191 2.12 190 2.15
  63  0.125  0.625  0.647- 191 2.10 190 2.11 206 2.12 189 2.12 197 2.12
  64  0.250  0.500  0.647- 192 2.08 205 2.10 189 2.12 190 2.12 166 2.12
  65  0.125  0.750  0.351- 193 2.12 187 2.12 195 2.12 196 2.12 212 2.12
  66  0.250  0.875  0.351- 194 2.12 156 2.12 195 2.12 196 2.12 211 2.12
  67  0.125  0.875  0.450- 199 2.11 195 2.12 194 2.12 153 2.12 193 2.12 210 2.12
  68  0.250  0.750  0.450- 200 2.11 196 2.12 194 2.12 186 2.12 193 2.12 209 2.12
  69  0.125  0.750  0.550- 200 2.12 191 2.12 216 2.12 199 2.12 193 2.12 197 2.14
  70  0.250  0.875  0.550- 160 2.11 200 2.11 215 2.12 199 2.12 194 2.12 198 2.14
  71  0.125  0.875  0.648- 199 2.10 157 2.11 197 2.11 214 2.12 198 2.12
  72  0.250  0.750  0.648- 200 2.09 190 2.11 198 2.12 213 2.12 197 2.12
  73  0.375  0.500  0.351- 201 2.12 188 2.12 179 2.12 203 2.12 268 2.12
  74  0.000  0.625  0.351- 202 2.12 187 2.12 204 2.12 212 2.12 267 2.12
  75  0.375  0.625  0.450- 207 2.11 203 2.12 186 2.12 201 2.12 209 2.12 266 2.12
  76  0.000  0.500  0.450- 208 2.11 204 2.12 202 2.12 178 2.12 185 2.12 265 2.12
  77  0.376  0.499  0.550- 183 2.11 272 2.11 205 2.12 207 2.13 192 2.13 201 2.13
  78  0.000  0.625  0.550- 271 2.11 191 2.11 208 2.12 216 2.12 202 2.12 206 2.14
  79  0.375  0.625  0.647- 207 2.08 205 2.09 213 2.12 190 2.12 270 2.12
  80  0.000  0.500  0.647- 208 2.09 269 2.11 189 2.11 206 2.12 182 2.12
  81  0.375  0.750  0.351- 209 2.12 203 2.12 196 2.12 211 2.12 276 2.12
  82  0.000  0.875  0.351- 210 2.12 195 2.12 172 2.12 212 2.12 275 2.12
  83  0.375  0.875  0.450- 215 2.11 211 2.12 209 2.12 169 2.12 194 2.12 274 2.12
  84  0.000  0.750  0.450- 216 2.11 212 2.12 210 2.12 193 2.12 202 2.12 273 2.12
  85  0.375  0.750  0.550- 207 2.11 215 2.12 280 2.12 209 2.12 200 2.12 213 2.15
  86  0.000  0.875  0.550- 199 2.12 279 2.12 176 2.12 216 2.12 210 2.12 214 2.14
  87  0.375  0.875  0.647- 215 2.09 173 2.11 213 2.11 198 2.12 278 2.12
  88  0.000  0.750  0.648- 216 2.10 277 2.11 197 2.11 214 2.12 206 2.12
  89  0.625  0.000  0.351- 217 2.12 219 2.12 220 2.12 236 2.12 259 2.12
  90  0.750  0.125  0.351- 218 2.12 219 2.12 220 2.12 228 2.12 235 2.12
  91  0.625  0.125  0.450- 223 2.11 219 2.12 217 2.12 218 2.12 225 2.12 234 2.12
  92  0.750  0.000  0.450- 224 2.11 220 2.12 217 2.12 218 2.12 233 2.12 258 2.12
  93  0.625  1.000  0.550- 223 2.11 263 2.12 217 2.12 240 2.12 224 2.12 221 2.15
  94  0.750  0.125  0.550- 223 2.11 232 2.11 218 2.12 239 2.12 224 2.12 222 2.15
  95  0.625  0.125  0.647- 223 2.08 229 2.09 221 2.12 222 2.12 238 2.12
  96  0.750  1.000  0.647- 224 2.09 222 2.11 262 2.12 221 2.12 237 2.12
  97  0.625  0.250  0.351- 225 2.12 219 2.12 227 2.12 228 2.12 244 2.12
  98  0.750  0.375  0.351- 226 2.12 227 2.12 228 2.12 243 2.12 252 2.12
  99  0.625  0.375  0.450- 227 2.12 226 2.12 225 2.12 242 2.12 249 2.12 231 2.13
 100  0.750  0.250  0.450- 232 2.11 228 2.12 226 2.12 218 2.12 225 2.12 241 2.12
 101  0.624  0.250  0.550- 248 2.11 231 2.11 229 2.12 223 2.13 232 2.13 225 2.13
 102  0.750  0.375  0.550- 231 2.10 256 2.12 232 2.12 226 2.13 247 2.13 230 2.14
 103  0.626  0.375  0.651- 246 2.13 230 2.13 253 2.14 229 2.15 231 2.16
 104  0.750  0.250  0.647- 232 2.08 229 2.10 245 2.12 222 2.12 230 2.12
 105  0.875  0.000  0.351- 233 2.12 220 2.12 172 2.12 235 2.12 275 2.12
 106  0.500  0.125  0.351- 234 2.12 219 2.12 171 2.12 236 2.12 244 2.12
 107  0.875  0.125  0.450- 239 2.11 235 2.12 233 2.12 170 2.12 218 2.12 241 2.12
 108  0.500  0.000  0.450- 240 2.11 236 2.12 234 2.12 169 2.12 217 2.12 274 2.12
 109  0.875  1.000  0.550- 239 2.12 224 2.12 176 2.12 279 2.12 233 2.12 237 2.14
 110  0.500  0.125  0.550- 248 2.10 223 2.12 175 2.12 234 2.13 240 2.13 238 2.14
 111  0.875  0.125  0.647- 239 2.10 222 2.11 174 2.12 245 2.12 237 2.12
 112  0.500  1.000  0.647- 240 2.09 238 2.10 278 2.11 173 2.12 221 2.12
 113  0.875  0.250  0.351- 241 2.12 228 2.12 235 2.12 180 2.12 243 2.12
 114  0.500  0.375  0.351- 242 2.12 227 2.12 179 2.12 244 2.12 268 2.12
 115  0.875  0.375  0.450- 247 2.11 243 2.12 241 2.12 178 2.12 226 2.12 265 2.12
 116  0.500  0.250  0.450- 244 2.12 225 2.12 234 2.12 242 2.12 177 2.12 248 2.13
 117  0.875  0.250  0.550- 232 2.11 184 2.12 247 2.12 241 2.12 239 2.12 245 2.15
 118  0.500  0.375  0.551- 246 2.09 272 2.12 248 2.12 183 2.12 231 2.12 242 2.16
 119  0.875  0.375  0.647- 247 2.09 230 2.10 182 2.11 269 2.12 245 2.12
 120  0.500  0.249  0.651- 246 2.13 238 2.13 229 2.14 181 2.15 248 2.16
 121  0.625  0.500  0.351- 249 2.12 227 2.12 251 2.12 252 2.12 268 2.12
 122  0.750  0.625  0.351- 250 2.12 251 2.12 252 2.12 260 2.12 267 2.12
 123  0.625  0.625  0.450- 255 2.11 251 2.12 249 2.12 250 2.12 257 2.12 266 2.12
 124  0.750  0.500  0.450- 256 2.11 252 2.12 250 2.12 226 2.12 249 2.12 265 2.12
 125  0.625  0.499  0.550- 272 2.11 231 2.11 253 2.12 256 2.13 255 2.13 249 2.13
 126  0.750  0.625  0.550- 256 2.11 255 2.11 250 2.12 271 2.12 264 2.12 254 2.15
 127  0.625  0.625  0.647- 255 2.08 253 2.10 261 2.12 254 2.12 270 2.12
 128  0.750  0.500  0.647- 256 2.08 253 2.09 269 2.12 254 2.12 230 2.12
 129  0.625  0.750  0.351- 257 2.12 251 2.12 259 2.12 260 2.12 276 2.12
 130  0.750  0.875  0.351- 258 2.12 220 2.12 259 2.12 260 2.12 275 2.12
 131  0.625  0.875  0.450- 263 2.11 259 2.12 258 2.12 217 2.12 257 2.12 274 2.12
 132  0.750  0.750  0.450- 264 2.11 260 2.12 258 2.12 250 2.12 257 2.12 273 2.12
 133  0.625  0.750  0.550- 255 2.11 263 2.12 280 2.12 257 2.12 264 2.12 261 2.15
 134  0.750  0.875  0.550- 224 2.11 264 2.11 263 2.12 279 2.12 258 2.12 262 2.14
 135  0.625  0.875  0.647- 263 2.09 221 2.11 261 2.11 262 2.12 278 2.12
 136  0.750  0.750  0.647- 264 2.09 254 2.11 262 2.12 261 2.12 277 2.12
 137  0.875  0.500  0.351- 265 2.12 243 2.12 252 2.12 204 2.12 267 2.12
 138  0.500  0.625  0.351- 266 2.12 251 2.12 203 2.12 268 2.12 276 2.12
 139  0.875  0.625  0.450- 271 2.11 267 2.12 265 2.12 202 2.12 250 2.12 273 2.12
 140  0.500  0.500  0.450- 268 2.12 242 2.12 249 2.12 266 2.12 201 2.12 272 2.13
 141  0.875  0.500  0.550- 256 2.11 208 2.12 247 2.12 265 2.12 271 2.12 269 2.15
 142  0.500  0.625  0.550- 272 2.10 207 2.12 255 2.12 266 2.13 280 2.13 270 2.14
 143  0.875  0.625  0.648- 271 2.10 254 2.11 206 2.12 269 2.12 277 2.12
 144  0.500  0.500  0.651- 246 2.13 270 2.13 205 2.14 253 2.15 272 2.16
 145  0.875  0.750  0.351- 273 2.12 260 2.12 267 2.12 212 2.12 275 2.12
 146  0.500  0.875  0.351- 274 2.12 236 2.12 259 2.12 211 2.12 276 2.12
 147  0.875  0.875  0.450- 279 2.11 275 2.12 258 2.12 273 2.12 210 2.12 233 2.12
 148  0.500  0.750  0.450- 280 2.11 276 2.12 266 2.12 274 2.12 209 2.12 257 2.12
 149  0.875  0.750  0.550- 271 2.12 264 2.12 216 2.12 279 2.12 273 2.12 277 2.14
 150  0.500  0.875  0.550- 240 2.11 280 2.11 274 2.12 215 2.12 263 2.12 278 2.15
 151  0.875  0.875  0.648- 279 2.10 237 2.11 277 2.11 214 2.12 262 2.12
 152  0.500  0.750  0.647- 280 2.09 270 2.10 278 2.11 261 2.12 213 2.12
 153  0.125  0.000  0.450-  25 2.12  27 2.12  28 2.12  44 2.12  67 2.12  29 2.12
 154  0.250  0.125  0.450-  30 2.12  26 2.12  28 2.12  27 2.12  36 2.12  43 2.12
 155  0.125  0.125  0.351-  27 2.12  26 2.12  25 2.12  33 2.12  42 2.12
 156  0.250  0.000  0.351-  28 2.12  26 2.12  25 2.12  41 2.12  66 2.12
 157  0.125  1.000  0.650-  71 2.11  48 2.11  31 2.12  32 2.12  29 2.14
 158  0.249  0.124  0.650-  32 2.11  31 2.11  47 2.12  40 2.12  30 2.15
 159  0.125  0.125  0.549-  31 2.10  27 2.11  46 2.11  29 2.12  30 2.12  37 2.12
 160  0.250  1.000  0.549-  32 2.09  28 2.11  70 2.11  29 2.12  30 2.12  45 2.12
 161  0.125  0.250  0.450-  33 2.12  27 2.12  35 2.12  36 2.12  52 2.12  37 2.12
 162  0.250  0.375  0.450-  34 2.12  35 2.12  36 2.12  51 2.12  60 2.12  38 2.13
 163  0.125  0.375  0.351-  35 2.12  34 2.12  33 2.12  50 2.12  57 2.12
 164  0.250  0.250  0.351-  36 2.12  33 2.12  34 2.12  26 2.12  49 2.12
 165  0.125  0.250  0.650-  56 2.11  31 2.12  40 2.12  39 2.12  37 2.15
 166  0.249  0.375  0.650-  39 2.10  40 2.12  64 2.12  55 2.13  38 2.15
 167  0.125  0.375  0.549-  39 2.09  35 2.11  54 2.11  61 2.12  37 2.12  38 2.13
 168  0.250  0.250  0.549-  40 2.08  36 2.11  37 2.11  30 2.11  38 2.12  53 2.13
 169  0.375  0.000  0.450-  41 2.12  28 2.12  43 2.12  83 2.12 108 2.12  45 2.12
 170  0.000  0.125  0.450-  42 2.12  27 2.12  44 2.12  52 2.12 107 2.12  46 2.12
 171  0.375  0.125  0.351-  43 2.12  41 2.12  26 2.12  49 2.12 106 2.12
 172  0.000  0.000  0.351-  44 2.12  42 2.12  25 2.12  82 2.12 105 2.12
 173  0.375  1.000  0.650-  87 2.11  32 2.12  47 2.12 112 2.12  45 2.15
 174  0.000  0.125  0.650- 111 2.12  31 2.12  48 2.12  56 2.12  46 2.14
 175  0.375  0.125  0.549-  47 2.08  43 2.11  45 2.11  30 2.11 110 2.12  53 2.13
 176  0.000  1.000  0.549-  48 2.10  44 2.11  86 2.12 109 2.12  29 2.12  46 2.12
 177  0.375  0.250  0.450-  49 2.12  43 2.12  36 2.12  51 2.12 116 2.12  53 2.13
 178  0.000  0.375  0.450-  50 2.12  35 2.12  52 2.12  76 2.12 115 2.12  54 2.12
 179  0.375  0.375  0.351-  51 2.12  49 2.12  34 2.12  73 2.12 114 2.12
 180  0.000  0.250  0.351-  52 2.12  42 2.12  50 2.12  33 2.12 113 2.12
 181  0.373  0.249  0.650-  40 2.09  47 2.10  53 2.12  55 2.14 120 2.15
 182  0.000  0.375  0.650- 119 2.11  39 2.11  80 2.12  56 2.12  54 2.15
 183  0.375  0.375  0.550-  38 2.10  77 2.11  53 2.11 118 2.12  51 2.13  55 2.16
 184  0.000  0.250  0.549-  56 2.09  52 2.11  37 2.12 117 2.12  46 2.12  54 2.12
 185  0.125  0.500  0.450-  57 2.12  35 2.12  59 2.12  60 2.12  76 2.12  61 2.12
 186  0.250  0.625  0.450-  62 2.12  58 2.12  60 2.12  59 2.12  68 2.12  75 2.12
 187  0.125  0.625  0.351-  59 2.12  58 2.12  57 2.12  65 2.12  74 2.12
 188  0.250  0.500  0.351-  60 2.12  57 2.12  58 2.12  34 2.12  73 2.12
 189  0.125  0.500  0.650-  80 2.11  63 2.12  64 2.12  39 2.12  61 2.15
 190  0.249  0.626  0.650-  63 2.11  72 2.11  64 2.12  79 2.12  62 2.15
 191  0.125  0.625  0.549-  63 2.10  59 2.11  78 2.11  69 2.12  62 2.12  61 2.12
 192  0.250  0.500  0.549-  64 2.08  60 2.11  61 2.11  62 2.11  38 2.12  77 2.13
 193  0.125  0.750  0.450-  65 2.12  59 2.12  67 2.12  68 2.12  84 2.12  69 2.12
 194  0.250  0.875  0.450-  66 2.12  28 2.12  67 2.12  68 2.12  83 2.12  70 2.12
 195  0.125  0.875  0.351-  67 2.12  65 2.12  66 2.12  25 2.12  82 2.12
 196  0.250  0.750  0.351-  68 2.12  65 2.12  66 2.12  58 2.12  81 2.12
 197  0.125  0.750  0.650-  88 2.11  71 2.11  63 2.12  72 2.12  69 2.14
 198  0.250  0.875  0.650-  32 2.11  72 2.12  71 2.12  87 2.12  70 2.14
 199  0.125  0.875  0.549-  71 2.10  67 2.11  86 2.12  29 2.12  69 2.12  70 2.12
 200  0.250  0.750  0.549-  72 2.09  68 2.11  70 2.11  69 2.12  62 2.12  85 2.12
 201  0.375  0.500  0.450-  73 2.12  60 2.12  51 2.12  75 2.12 140 2.12  77 2.13
 202  0.000  0.625  0.450-  74 2.12  59 2.12  76 2.12  84 2.12 139 2.12  78 2.12
 203  0.375  0.625  0.351-  75 2.12  73 2.12  58 2.12  81 2.12 138 2.12
 204  0.000  0.500  0.351-  76 2.12  57 2.12  74 2.12  50 2.12 137 2.12
 205  0.374  0.502  0.650-  79 2.09  64 2.10  77 2.12 144 2.14  55 2.15
 206  0.000  0.625  0.650-  63 2.12 143 2.12  88 2.12  80 2.12  78 2.14
 207  0.375  0.625  0.549-  79 2.08  75 2.11  85 2.11  62 2.11 142 2.12  77 2.13
 208  0.000  0.500  0.549-  80 2.09  76 2.11  61 2.12 141 2.12  78 2.12  54 2.12
 209  0.375  0.750  0.450-  81 2.12  75 2.12  68 2.12  83 2.12 148 2.12  85 2.12
 210  0.000  0.875  0.450-  82 2.12  67 2.12  44 2.12  84 2.12 147 2.12  86 2.12
 211  0.375  0.875  0.351-  83 2.12  66 2.12  81 2.12  41 2.12 146 2.12
 212  0.000  0.750  0.351-  84 2.12  74 2.12  82 2.12  65 2.12 145 2.12
 213  0.375  0.750  0.650-  87 2.11  72 2.12  79 2.12 152 2.12  85 2.15
 214  0.000  0.875  0.650- 151 2.12  71 2.12  88 2.12  48 2.12  86 2.14
 215  0.375  0.875  0.549-  87 2.09  83 2.11  85 2.12  45 2.12  70 2.12 150 2.12
 216  0.000  0.750  0.549-  88 2.10  84 2.11  86 2.12  69 2.12 149 2.12  78 2.12
 217  0.625  0.000  0.450-  93 2.12  89 2.12  92 2.12  91 2.12 108 2.12 131 2.12
 218  0.750  0.125  0.450-  94 2.12  90 2.12  92 2.12  91 2.12 100 2.12 107 2.12
 219  0.625  0.125  0.351-  91 2.12  90 2.12  89 2.12  97 2.12 106 2.12
 220  0.750  0.000  0.351-  92 2.12  90 2.12  89 2.12 105 2.12 130 2.12
 221  0.625  1.000  0.650- 135 2.11  96 2.12  95 2.12 112 2.12  93 2.15
 222  0.751  0.124  0.650- 111 2.11  96 2.11 104 2.12  95 2.12  94 2.15
 223  0.625  0.125  0.549-  95 2.08  91 2.11  93 2.11  94 2.11 110 2.12 101 2.13
 224  0.750  1.000  0.549-  96 2.09  92 2.11 134 2.11 109 2.12  94 2.12  93 2.12
 225  0.625  0.250  0.450-  97 2.12  91 2.12  99 2.12 100 2.12 116 2.12 101 2.13
 226  0.750  0.375  0.450-  98 2.12  99 2.12 100 2.12 115 2.12 124 2.12 102 2.13
 227  0.625  0.375  0.351-  99 2.12  98 2.12  97 2.12 114 2.12 121 2.12
 228  0.750  0.250  0.351- 100 2.12  97 2.12  98 2.12  90 2.12 113 2.12
 229  0.626  0.248  0.650-  95 2.09 104 2.10 101 2.12 120 2.14 103 2.15
 230  0.751  0.375  0.650- 119 2.10 128 2.12 104 2.12 103 2.13 102 2.14
 231  0.625  0.375  0.550- 102 2.10 125 2.11 101 2.11 118 2.12  99 2.13 103 2.16
 232  0.750  0.250  0.549- 104 2.08 100 2.11 117 2.11  94 2.11 102 2.12 101 2.13
 233  0.875  0.000  0.450- 105 2.12  92 2.12  44 2.12 107 2.12 147 2.12 109 2.12
 234  0.500  0.125  0.450- 106 2.12  91 2.12  43 2.12 108 2.12 116 2.12 110 2.13
 235  0.875  0.125  0.351- 107 2.12  90 2.12 105 2.12  42 2.12 113 2.12
 236  0.500  0.000  0.351- 108 2.12  89 2.12 106 2.12  41 2.12 146 2.12
 237  0.875  1.000  0.650- 151 2.11  48 2.11 111 2.12  96 2.12 109 2.14
 238  0.500  0.124  0.650- 112 2.10  95 2.12  47 2.12 120 2.13 110 2.14
 239  0.875  0.125  0.549- 111 2.10 107 2.11  46 2.11 109 2.12  94 2.12 117 2.12
 240  0.500  1.000  0.549- 112 2.09 108 2.11 150 2.11  45 2.12  93 2.12 110 2.13
 241  0.875  0.250  0.450- 113 2.12 100 2.12 107 2.12  52 2.12 115 2.12 117 2.12
 242  0.500  0.375  0.450- 114 2.12  99 2.12  51 2.12 116 2.12 140 2.12 118 2.16
 243  0.875  0.375  0.351- 115 2.12  98 2.12 113 2.12  50 2.12 137 2.12
 244  0.500  0.250  0.351- 116 2.12  97 2.12 106 2.12 114 2.12  49 2.12
 245  0.875  0.250  0.650-  56 2.11 111 2.12 104 2.12 119 2.12 117 2.15
 246  0.500  0.375  0.649- 118 2.09 103 2.13  55 2.13 120 2.13 144 2.13
 247  0.875  0.375  0.549- 119 2.09 115 2.11  54 2.11 141 2.12 117 2.12 102 2.13
 248  0.500  0.250  0.550- 110 2.10  53 2.11 101 2.11 118 2.12 116 2.13 120 2.16
 249  0.625  0.500  0.450- 121 2.12  99 2.12 123 2.12 124 2.12 140 2.12 125 2.13
 250  0.750  0.625  0.450- 126 2.12 122 2.12 124 2.12 123 2.12 132 2.12 139 2.12
 251  0.625  0.625  0.351- 123 2.12 122 2.12 121 2.12 129 2.12 138 2.12
 252  0.750  0.500  0.351- 124 2.12 121 2.12 122 2.12  98 2.12 137 2.12
 253  0.627  0.501  0.650- 128 2.09 127 2.10 125 2.12 103 2.14 144 2.15
 254  0.751  0.626  0.650- 136 2.11 143 2.11 127 2.12 128 2.12 126 2.15
 255  0.625  0.625  0.549- 127 2.08 123 2.11 133 2.11 126 2.11 142 2.12 125 2.13
 256  0.750  0.500  0.549- 128 2.08 124 2.11 141 2.11 126 2.11 102 2.12 125 2.13
 257  0.625  0.750  0.450- 129 2.12 123 2.12 131 2.12 132 2.12 148 2.12 133 2.12
 258  0.750  0.875  0.450- 130 2.12  92 2.12 131 2.12 132 2.12 147 2.12 134 2.12
 259  0.625  0.875  0.351- 131 2.12 129 2.12 130 2.12  89 2.12 146 2.12
 260  0.750  0.750  0.351- 132 2.12 129 2.12 130 2.12 122 2.12 145 2.12
 261  0.625  0.750  0.650- 135 2.11 136 2.12 127 2.12 152 2.12 133 2.15
 262  0.750  0.875  0.650-  96 2.12 136 2.12 151 2.12 135 2.12 134 2.14
 263  0.625  0.875  0.549- 135 2.09 131 2.11  93 2.12 133 2.12 134 2.12 150 2.12
 264  0.750  0.750  0.549- 136 2.09 132 2.11 134 2.11 149 2.12 126 2.12 133 2.12
 265  0.875  0.500  0.450- 137 2.12 115 2.12 124 2.12  76 2.12 139 2.12 141 2.12
 266  0.500  0.625  0.450- 138 2.12 123 2.12  75 2.12 140 2.12 148 2.12 142 2.13
 267  0.875  0.625  0.351- 139 2.12 122 2.12 137 2.12  74 2.12 145 2.12
 268  0.500  0.500  0.351- 140 2.12 114 2.12 121 2.12 138 2.12  73 2.12
 269  0.875  0.500  0.650-  80 2.11 143 2.12 128 2.12 119 2.12 141 2.15
 270  0.500  0.626  0.650- 152 2.10  79 2.12 127 2.12 144 2.13 142 2.14
 271  0.875  0.625  0.549- 143 2.10 139 2.11  78 2.11 149 2.12 126 2.12 141 2.12
 272  0.500  0.500  0.550- 142 2.10 125 2.11  77 2.11 118 2.12 140 2.13 144 2.16
 273  0.875  0.750  0.450- 145 2.12 132 2.12 139 2.12  84 2.12 147 2.12 149 2.12
 274  0.500  0.875  0.450- 146 2.12 108 2.12 131 2.12  83 2.12 148 2.12 150 2.12
 275  0.875  0.875  0.351- 147 2.12 105 2.12 130 2.12 145 2.12  82 2.12
 276  0.500  0.750  0.351- 148 2.12 129 2.12 138 2.12 146 2.12  81 2.12
 277  0.875  0.750  0.650-  88 2.11 151 2.11 143 2.12 136 2.12 149 2.14
 278  0.500  0.875  0.650- 152 2.11 112 2.11 135 2.12  87 2.12 150 2.15
 279  0.875  0.875  0.549- 151 2.10 147 2.11  86 2.12 109 2.12 149 2.12 134 2.12
 280  0.500  0.750  0.549- 152 2.09 148 2.11 150 2.11 133 2.12  85 2.12 142 2.13


IMPORTANT INFORMATION: All symmetrisations will be switched off!
NOSYMM: (Re-)initialisation of all symmetry stuff for point group C_1.


----------------------------------------------------------------------------------------

                                     Primitive cell                                     

  volume of cell :    6122.6422

  direct lattice vectors                    reciprocal lattice vectors
    16.934285261  0.000000000  0.000000000     0.059051798  0.000000000  0.000000000
     0.000000000 16.934285261  0.000000000     0.000000000  0.059051798  0.000000000
     0.000000000  0.000000000 21.350356973     0.000000000  0.000000000  0.046837624

  length of vectors
    16.934285261 16.934285261 21.350356973     0.059051798  0.059051798  0.046837624

  position of ions in fractional coordinates (direct lattice)
     0.527697817  0.554917398  0.793855915
     0.320743285  0.401023348  0.794525226
     0.473900184  0.195109725  0.794567180
     0.679838993  0.346598032  0.793859388
     0.508155801  0.487029642  0.756249271
     0.388337104  0.382453515  0.756302694
     0.492348468  0.262579403  0.756168770
     0.612200349  0.366804741  0.756201248
     0.519004007  0.542257809  0.844005403
     0.552315633  0.447850318  0.758695887
     0.589511506  0.572185211  0.785555578
     0.489273453  0.603463142  0.778871865
     0.334026370  0.391850155  0.844521562
     0.427366719  0.426739399  0.758858400
     0.302853723  0.462768635  0.786793976
     0.272350605  0.362353950  0.779612259
     0.483293388  0.208558700  0.844518117
     0.448127493  0.301720371  0.758789701
     0.412118886  0.177179305  0.787036137
     0.512525746  0.146671172  0.779673154
     0.667211098  0.355460994  0.843993279
     0.572733810  0.322854287  0.758497488
     0.696444743  0.284596584  0.785609300
     0.728806066  0.384494568  0.778903471
     0.125000000  0.000000000  0.351282183
     0.250000000  0.125000000  0.351282183
     0.125000000  0.125000000  0.450427394
     0.250000000  0.000000000  0.450427394
     0.124961126  0.999958047  0.549684610
     0.249976803  0.124972072  0.549552161
     0.124889510  0.124785179  0.647495998
     0.249805217  0.999854149  0.647465063
     0.125000000  0.250000000  0.351282183
     0.250000000  0.375000000  0.351282183
     0.125000000  0.375000000  0.450427394
     0.250000000  0.250000000  0.450427394
     0.124957007  0.250003723  0.549594080
     0.250468305  0.374988454  0.549977695
     0.124845454  0.375017262  0.647294198
     0.249768083  0.249646609  0.646861069
     0.375000000  0.000000000  0.351282183
     0.000000000  0.125000000  0.351282183
     0.375000000  0.125000000  0.450427394
     0.000000000  0.000000000  0.450427394
     0.375012780  0.999937819  0.549575986
     0.000007582  0.124920898  0.549659781
     0.374649623  0.124724989  0.646801648
     0.000010119  0.999902407  0.647579627
     0.375000000  0.250000000  0.351282183
     0.000000000  0.375000000  0.351282183
     0.375000000  0.375000000  0.450427394
     0.000000000  0.250000000  0.450427394
     0.375502411  0.250548203  0.550409836
     0.000014142  0.375026677  0.549617211
     0.374547243  0.374968114  0.651177674
     0.000018692  0.249854689  0.647473603
     0.125000000  0.500000000  0.351282183
     0.250000000  0.625000000  0.351282183
     0.125000000  0.625000000  0.450427394
     0.250000000  0.500000000  0.450427394
     0.124964233  0.500003590  0.549593501
     0.249995459  0.625035882  0.549559172
     0.124883733  0.625215439  0.647496937
     0.249790245  0.500354079  0.646825669
     0.125000000  0.750000000  0.351282183
     0.250000000  0.875000000  0.351282183
     0.125000000  0.875000000  0.450427394
     0.250000000  0.750000000  0.450427394
     0.124962748  0.750036135  0.549699248
     0.249936557  0.874995410  0.549678083
     0.124880080  0.875010410  0.647586724
     0.249791137  0.750140324  0.647504264
     0.375000000  0.500000000  0.351282183
     0.000000000  0.625000000  0.351282183
     0.375000000  0.625000000  0.450427394
     0.000000000  0.500000000  0.450427394
     0.375578032  0.499494494  0.550414613
     0.000009503  0.625057485  0.549669235
     0.374670906  0.625259754  0.646865008
     0.000013956  0.500163743  0.647494717
     0.375000000  0.750000000  0.351282183
     0.000000000  0.875000000  0.351282183
     0.375000000  0.875000000  0.450427394
     0.000000000  0.750000000  0.450427394
     0.375007541  0.750041441  0.549598718
     0.000010509  0.875009374  0.549716073
     0.374844491  0.874999395  0.647487211
     0.000011946  0.750118471  0.647558434
     0.625000000  0.000000000  0.351282183
     0.750000000  0.125000000  0.351282183
     0.625000000  0.125000000  0.450427394
     0.750000000  0.000000000  0.450427394
     0.624999868  0.999939618  0.549570902
     0.750036737  0.124951846  0.549543914
     0.625371083  0.124705602  0.646825034
     0.750225692  0.999858822  0.647478256
     0.625000000  0.250000000  0.351282183
     0.750000000  0.375000000  0.351282183
     0.625000000  0.375000000  0.450427394
     0.750000000  0.250000000  0.450427394
     0.624443766  0.250465568  0.550396212
     0.749558494  0.375022971  0.549958723
     0.625533937  0.374957298  0.651142024
     0.750270032  0.249627197  0.646778393
     0.875000000  0.000000000  0.351282183
     0.500000000  0.125000000  0.351282183
     0.875000000  0.125000000  0.450427394
     0.500000000  0.000000000  0.450427394
     0.875060413  0.999953773  0.549684429
     0.500020523  0.125420414  0.549958017
     0.875155133  0.124786877  0.647479943
     0.500000636  0.999823248  0.647270139
     0.875000000  0.250000000  0.351282183
     0.500000000  0.375000000  0.351282183
     0.875000000  0.375000000  0.450427394
     0.500000000  0.250000000  0.450427394
     0.875075437  0.249999445  0.549586686
     0.500014626  0.374971216  0.551409576
     0.875192046  0.375002333  0.647272391
     0.500014185  0.249404590  0.651151495
     0.625000000  0.500000000  0.351282183
     0.750000000  0.625000000  0.351282183
     0.625000000  0.625000000  0.450427394
     0.750000000  0.500000000  0.450427394
     0.624512534  0.499431387  0.550404165
     0.750038928  0.625026007  0.549553764
     0.625367858  0.625266959  0.646782990
     0.750252182  0.500352423  0.646854425
     0.625000000  0.750000000  0.351282183
     0.750000000  0.875000000  0.351282183
     0.625000000  0.875000000  0.450427394
     0.750000000  0.750000000  0.450427394
     0.625022039  0.750049191  0.549586081
     0.750083990  0.874995127  0.549676826
     0.625181430  0.875002289  0.647484925
     0.750234451  0.750144697  0.647494295
     0.875000000  0.500000000  0.351282183
     0.500000000  0.625000000  0.351282183
     0.875000000  0.625000000  0.450427394
     0.500000000  0.500000000  0.450427394
     0.875050043  0.500002785  0.549587707
     0.499990019  0.624540773  0.549960497
     0.875141206  0.625212224  0.647506059
     0.500042005  0.500479390  0.651160897
     0.875000000  0.750000000  0.351282183
     0.500000000  0.875000000  0.351282183
     0.875000000  0.875000000  0.450427394
     0.500000000  0.750000000  0.450427394
     0.875058109  0.750033889  0.549696889
     0.500004999  0.875002458  0.549607741
     0.875142495  0.875010571  0.647591078
     0.500026337  0.750189835  0.647260698
     0.125000000  0.000000000  0.450427394
     0.250000000  0.125000000  0.450427394
     0.125000000  0.125000000  0.351282183
     0.250000000  0.000000000  0.351282183
     0.124835394  0.999827856  0.650121499
     0.249471279  0.124406715  0.650133749
     0.124876481  0.124858473  0.549364179
     0.249886480  0.999861860  0.549345662
     0.125000000  0.250000000  0.450427394
     0.250000000  0.375000000  0.450427394
     0.125000000  0.375000000  0.351282183
     0.250000000  0.250000000  0.351282183
     0.124730618  0.249750436  0.650193088
     0.248688586  0.374986067  0.650467997
     0.124815947  0.375020882  0.549356130
     0.249576716  0.249821244  0.549249274
     0.375000000  0.000000000  0.450427394
     0.000000000  0.125000000  0.450427394
     0.375000000  0.125000000  0.351282183
     0.000000000  0.000000000  0.351282183
     0.374718165  0.999727421  0.650160822
     0.000014363  0.124834939  0.650105091
     0.374855905  0.124587229  0.549256748
     0.000007451  0.999939740  0.549433963
     0.375000000  0.250000000  0.450427394
     0.000000000  0.375000000  0.450427394
     0.375000000  0.375000000  0.351282183
     0.000000000  0.250000000  0.351282183
     0.373224732  0.248517817  0.649801687
     0.000013227  0.375010516  0.650133524
     0.374561766  0.375031322  0.550086024
     0.000020148  0.249929761  0.549386449
     0.125000000  0.500000000  0.450427394
     0.250000000  0.625000000  0.450427394
     0.125000000  0.625000000  0.351282183
     0.250000000  0.500000000  0.351282183
     0.124783140  0.500255838  0.650180892
     0.249454294  0.625543583  0.650140866
     0.124888560  0.625120062  0.549370884
     0.249641418  0.500177271  0.549266290
     0.125000000  0.750000000  0.450427394
     0.250000000  0.875000000  0.450427394
     0.125000000  0.875000000  0.351282183
     0.250000000  0.750000000  0.351282183
     0.124798407  0.750188909  0.650135757
     0.249793762  0.875013058  0.650127394
     0.124928192  0.875013125  0.549382578
     0.249877645  0.750124176  0.549395708
     0.375000000  0.500000000  0.450427394
     0.000000000  0.625000000  0.450427394
     0.375000000  0.625000000  0.351282183
     0.000000000  0.500000000  0.351282183
     0.373613229  0.501748288  0.649830483
     0.000016190  0.625222884  0.650110534
     0.374831940  0.625413241  0.549255351
     0.000007550  0.500076341  0.549462822
     0.375000000  0.750000000  0.450427394
     0.000000000  0.875000000  0.450427394
     0.375000000  0.875000000  0.351282183
     0.000000000  0.750000000  0.351282183
     0.374758152  0.750272326  0.650198735
     0.000008016  0.875001878  0.650160262
     0.374925705  0.874982625  0.549399293
     0.000016014  0.750063026  0.549359923
     0.625000000  0.000000000  0.450427394
     0.750000000  0.125000000  0.450427394
     0.625000000  0.125000000  0.351282183
     0.750000000  0.000000000  0.351282183
     0.625298485  0.999725565  0.650173604
     0.750596588  0.124433250  0.650118021
     0.625181368  0.124528964  0.549203811
     0.750139759  0.999844827  0.549354840
     0.625000000  0.250000000  0.450427394
     0.750000000  0.375000000  0.450427394
     0.625000000  0.375000000  0.351282183
     0.750000000  0.250000000  0.351282183
     0.626470952  0.248137336  0.649756308
     0.751364937  0.375015915  0.650413585
     0.625468802  0.374948567  0.550068595
     0.750404524  0.249821383  0.549262353
     0.875000000  0.000000000  0.450427394
     0.500000000  0.125000000  0.450427394
     0.875000000  0.125000000  0.351282183
     0.500000000  0.000000000  0.351282183
     0.875189429  0.999824002  0.650125112
     0.500040675  0.123595988  0.650389091
     0.875140457  0.124858159  0.549352044
     0.500000334  0.999783489  0.549379725
     0.875000000  0.250000000  0.450427394
     0.500000000  0.375000000  0.450427394
     0.875000000  0.375000000  0.351282183
     0.500000000  0.250000000  0.351282183
     0.875292545  0.249741204  0.650157058
     0.500048637  0.374929352  0.649490489
     0.875216598  0.375008967  0.549349590
     0.499961330  0.249521416  0.550073612
     0.625000000  0.500000000  0.450427394
     0.750000000  0.625000000  0.450427394
     0.625000000  0.625000000  0.351282183
     0.750000000  0.500000000  0.351282183
     0.626804899  0.501408833  0.649789136
     0.750540493  0.625579627  0.650130565
     0.625170603  0.625371680  0.549273327
     0.750428392  0.500193193  0.549221978
     0.625000000  0.750000000  0.450427394
     0.750000000  0.875000000  0.450427394
     0.625000000  0.875000000  0.351282183
     0.750000000  0.750000000  0.351282183
     0.625271192  0.750264984  0.650168019
     0.750219870  0.875004263  0.650135167
     0.625093764  0.874997545  0.549398704
     0.750136208  0.750122154  0.549390240
     0.875000000  0.500000000  0.450427394
     0.500000000  0.625000000  0.450427394
     0.875000000  0.625000000  0.351282183
     0.500000000  0.500000000  0.351282183
     0.875254964  0.500254960  0.650190413
     0.499993147  0.626403539  0.650370890
     0.875132949  0.625127926  0.549374300
     0.500045742  0.500399891  0.550069414
     0.875000000  0.750000000  0.450427394
     0.500000000  0.875000000  0.450427394
     0.875000000  0.875000000  0.351282183
     0.500000000  0.750000000  0.351282183
     0.875226562  0.750186651  0.650138457
     0.500013624  0.874999918  0.650129259
     0.875091690  0.875004748  0.549379750
     0.500017231  0.750207165  0.549341019

  ion indices of the primitive-cell ions
   primitive index   ion index
                 1           1
                 2           2
                 3           3
                 4           4
                 5           5
                 6           6
                 7           7
                 8           8
                 9           9
                10          10
                11          11
                12          12
                13          13
                14          14
                15          15
                16          16
                17          17
                18          18
                19          19
                20          20
                21          21
                22          22
                23          23
                24          24
                25          25
                26          26
                27          27
                28          28
                29          29
                30          30
                31          31
                32          32
                33          33
                34          34
                35          35
                36          36
                37          37
                38          38
                39          39
                40          40
                41          41
                42          42
                43          43
                44          44
                45          45
                46          46
                47          47
                48          48
                49          49
                50          50
                51          51
                52          52
                53          53
                54          54
                55          55
                56          56
                57          57
                58          58
                59          59
                60          60
                61          61
                62          62
                63          63
                64          64
                65          65
                66          66
                67          67
                68          68
                69          69
                70          70
                71          71
                72          72
                73          73
                74          74
                75          75
                76          76
                77          77
                78          78
                79          79
                80          80
                81          81
                82          82
                83          83
                84          84
                85          85
                86          86
                87          87
                88          88
                89          89
                90          90
                91          91
                92          92
                93          93
                94          94
                95          95
                96          96
                97          97
                98          98
                99          99
               100         100
               101         101
               102         102
               103         103
               104         104
               105         105
               106         106
               107         107
               108         108
               109         109
               110         110
               111         111
               112         112
               113         113
               114         114
               115         115
               116         116
               117         117
               118         118
               119         119
               120         120
               121         121
               122         122
               123         123
               124         124
               125         125
               126         126
               127         127
               128         128
               129         129
               130         130
               131         131
               132         132
               133         133
               134         134
               135         135
               136         136
               137         137
               138         138
               139         139
               140         140
               141         141
               142         142
               143         143
               144         144
               145         145
               146         146
               147         147
               148         148
               149         149
               150         150
               151         151
               152         152
               153         153
               154         154
               155         155
               156         156
               157         157
               158         158
               159         159
               160         160
               161         161
               162         162
               163         163
               164         164
               165         165
               166         166
               167         167
               168         168
               169         169
               170         170
               171         171
               172         172
               173         173
               174         174
               175         175
               176         176
               177         177
               178         178
               179         179
               180         180
               181         181
               182         182
               183         183
               184         184
               185         185
               186         186
               187         187
               188         188
               189         189
               190         190
               191         191
               192         192
               193         193
               194         194
               195         195
               196         196
               197         197
               198         198
               199         199
               200         200
               201         201
               202         202
               203         203
               204         204
               205         205
               206         206
               207         207
               208         208
               209         209
               210         210
               211         211
               212         212
               213         213
               214         214
               215         215
               216         216
               217         217
               218         218
               219         219
               220         220
               221         221
               222         222
               223         223
               224         224
               225         225
               226         226
               227         227
               228         228
               229         229
               230         230
               231         231
               232         232
               233         233
               234         234
               235         235
               236         236
               237         237
               238         238
               239         239
               240         240
               241         241
               242         242
               243         243
               244         244
               245         245
               246         246
               247         247
               248         248
               249         249
               250         250
               251         251
               252         252
               253         253
               254         254
               255         255
               256         256
               257         257
               258         258
               259         259
               260         260
               261         261
               262         262
               263         263
               264         264
               265         265
               266         266
               267         267
               268         268
               269         269
               270         270
               271         271
               272         272
               273         273
               274         274
               275         275
               276         276
               277         277
               278         278
               279         279
               280         280

----------------------------------------------------------------------------------------



 KPOINTS: pymatgen v2020.8.13 with grid density = 

Automatic generation of k-mesh.
 Grid dimensions read from file:
 generate k-points for:    1    1    1

 Generating k-lattice:

  Cartesian coordinates                     Fractional coordinates (reciprocal lattice)
     0.059051798  0.000000000  0.000000000     1.000000000  0.000000000  0.000000000
     0.000000000  0.059051798  0.000000000     0.000000000  1.000000000  0.000000000
     0.000000000  0.000000000  0.046837624     0.000000000  0.000000000  1.000000000

  Length of vectors
     0.059051798  0.059051798  0.046837624

  Shift w.r.t. Gamma in fractional coordinates (k-lattice)
     0.000000000  0.000000000  0.000000000

 
 Subroutine IBZKPT returns following result:
 ===========================================
 
 Found      1 irreducible k-points:
 
 Following reciprocal coordinates:
            Coordinates               Weight
  0.000000  0.000000  0.000000      1.000000
 
 Following cartesian coordinates:
            Coordinates               Weight
  0.000000  0.000000  0.000000      1.000000
 


--------------------------------------------------------------------------------------------------------




 Dimension of arrays:
   k-points           NKPTS =      1   k-points in BZ     NKDIM =      1   number of bands    NBANDS=   1152
   number of dos      NEDOS =    301   number of ions     NIONS =    280
   non local maximal  LDIM  =      5   non local SUM 2l+1 LMDIM =     13
   total plane-waves  NPLWV = ******
   max r-space proj   IRMAX =   3733   max aug-charges    IRDMAX=   8375
   dimension x,y,z NGX =   126 NGY =  126 NGZ =  160
   dimension x,y,z NGXF=   252 NGYF=  252 NGZF=  320
   support grid    NGXF=   252 NGYF=  252 NGZF=  320
   ions per type =               4   4  16 128 128
   NGX,Y,Z   is equivalent  to a cutoff of  12.37, 12.37, 12.46 a.u.
   NGXF,Y,Z  is equivalent  to a cutoff of  24.74, 24.74, 24.92 a.u.

 SYSTEM =  MgO-rocksalt                            
 POSCAR =   C  O  H Mg  O                          

--------------------------------------------------------------------------------------------------------


  energy-cutoff  :      520.00
  volume of cell :     6122.64
      direct lattice vectors                 reciprocal lattice vectors
    16.934285261  0.000000000  0.000000000     0.059051798  0.000000000  0.000000000
     0.000000000 16.934285261  0.000000000     0.000000000  0.059051798  0.000000000
     0.000000000  0.000000000 21.350356973     0.000000000  0.000000000  0.046837624

  length of vectors
    16.934285261 16.934285261 21.350356973     0.059051798  0.059051798  0.046837624



 k-points in units of 2pi/SCALE and weight: pymatgen v2020.8.13 with grid density = 
   0.00000000  0.00000000  0.00000000       1.000

 k-points in reciprocal lattice and weights: pymatgen v2020.8.13 with grid density = 
   0.00000000  0.00000000  0.00000000       1.000

 position of ions in fractional coordinates (direct lattice) 
   0.52769782  0.55491740  0.79385591
   0.32074329  0.40102335  0.79452523
   0.47390018  0.19510973  0.79456718
   0.67983899  0.34659803  0.79385939
   0.50815580  0.48702964  0.75624927
   0.38833710  0.38245351  0.75630269
   0.49234847  0.26257940  0.75616877
   0.61220035  0.36680474  0.75620125
   0.51900401  0.54225781  0.84400540
   0.55231563  0.44785032  0.75869589
   0.58951151  0.57218521  0.78555558
   0.48927345  0.60346314  0.77887186
   0.33402637  0.39185015  0.84452156
   0.42736672  0.42673940  0.75885840
   0.30285372  0.46276863  0.78679398
   0.27235061  0.36235395  0.77961226
   0.48329339  0.20855870  0.84451812
   0.44812749  0.30172037  0.75878970
   0.41211889  0.17717930  0.78703614
   0.51252575  0.14667117  0.77967315
   0.66721110  0.35546099  0.84399328
   0.57273381  0.32285429  0.75849749
   0.69644474  0.28459658  0.78560930
   0.72880607  0.38449457  0.77890347
   0.12500000  0.00000000  0.35128218
   0.25000000  0.12500000  0.35128218
   0.12500000  0.12500000  0.45042739
   0.25000000  0.00000000  0.45042739
   0.12496113  0.99995805  0.54968461
   0.24997680  0.12497207  0.54955216
   0.12488951  0.12478518  0.64749600
   0.24980522  0.99985415  0.64746506
   0.12500000  0.25000000  0.35128218
   0.25000000  0.37500000  0.35128218
   0.12500000  0.37500000  0.45042739
   0.25000000  0.25000000  0.45042739
   0.12495701  0.25000372  0.54959408
   0.25046831  0.37498845  0.54997770
   0.12484545  0.37501726  0.64729420
   0.24976808  0.24964661  0.64686107
   0.37500000  0.00000000  0.35128218
   0.00000000  0.12500000  0.35128218
   0.37500000  0.12500000  0.45042739
   0.00000000  0.00000000  0.45042739
   0.37501278  0.99993782  0.54957599
   0.00000758  0.12492090  0.54965978
   0.37464962  0.12472499  0.64680165
   0.00001012  0.99990241  0.64757963
   0.37500000  0.25000000  0.35128218
   0.00000000  0.37500000  0.35128218
   0.37500000  0.37500000  0.45042739
   0.00000000  0.25000000  0.45042739
   0.37550241  0.25054820  0.55040984
   0.00001414  0.37502668  0.54961721
   0.37454724  0.37496811  0.65117767
   0.00001869  0.24985469  0.64747360
   0.12500000  0.50000000  0.35128218
   0.25000000  0.62500000  0.35128218
   0.12500000  0.62500000  0.45042739
   0.25000000  0.50000000  0.45042739
   0.12496423  0.50000359  0.54959350
   0.24999546  0.62503588  0.54955917
   0.12488373  0.62521544  0.64749694
   0.24979024  0.50035408  0.64682567
   0.12500000  0.75000000  0.35128218
   0.25000000  0.87500000  0.35128218
   0.12500000  0.87500000  0.45042739
   0.25000000  0.75000000  0.45042739
   0.12496275  0.75003614  0.54969925
   0.24993656  0.87499541  0.54967808
   0.12488008  0.87501041  0.64758672
   0.24979114  0.75014032  0.64750426
   0.37500000  0.50000000  0.35128218
   0.00000000  0.62500000  0.35128218
   0.37500000  0.62500000  0.45042739
   0.00000000  0.50000000  0.45042739
   0.37557803  0.49949449  0.55041461
   0.00000950  0.62505749  0.54966924
   0.37467091  0.62525975  0.64686501
   0.00001396  0.50016374  0.64749472
   0.37500000  0.75000000  0.35128218
   0.00000000  0.87500000  0.35128218
   0.37500000  0.87500000  0.45042739
   0.00000000  0.75000000  0.45042739
   0.37500754  0.75004144  0.54959872
   0.00001051  0.87500937  0.54971607
   0.37484449  0.87499939  0.64748721
   0.00001195  0.75011847  0.64755843
   0.62500000  0.00000000  0.35128218
   0.75000000  0.12500000  0.35128218
   0.62500000  0.12500000  0.45042739
   0.75000000  0.00000000  0.45042739
   0.62499987  0.99993962  0.54957090
   0.75003674  0.12495185  0.54954391
   0.62537108  0.12470560  0.64682503
   0.75022569  0.99985882  0.64747826
   0.62500000  0.25000000  0.35128218
   0.75000000  0.37500000  0.35128218
   0.62500000  0.37500000  0.45042739
   0.75000000  0.25000000  0.45042739
   0.62444377  0.25046557  0.55039621
   0.74955849  0.37502297  0.54995872
   0.62553394  0.37495730  0.65114202
   0.75027003  0.24962720  0.64677839
   0.87500000  0.00000000  0.35128218
   0.50000000  0.12500000  0.35128218
   0.87500000  0.12500000  0.45042739
   0.50000000  0.00000000  0.45042739
   0.87506041  0.99995377  0.54968443
   0.50002052  0.12542041  0.54995802
   0.87515513  0.12478688  0.64747994
   0.50000064  0.99982325  0.64727014
   0.87500000  0.25000000  0.35128218
   0.50000000  0.37500000  0.35128218
   0.87500000  0.37500000  0.45042739
   0.50000000  0.25000000  0.45042739
   0.87507544  0.24999945  0.54958669
   0.50001463  0.37497122  0.55140958
   0.87519205  0.37500233  0.64727239
   0.50001418  0.24940459  0.65115150
   0.62500000  0.50000000  0.35128218
   0.75000000  0.62500000  0.35128218
   0.62500000  0.62500000  0.45042739
   0.75000000  0.50000000  0.45042739
   0.62451253  0.49943139  0.55040417
   0.75003893  0.62502601  0.54955376
   0.62536786  0.62526696  0.64678299
   0.75025218  0.50035242  0.64685442
   0.62500000  0.75000000  0.35128218
   0.75000000  0.87500000  0.35128218
   0.62500000  0.87500000  0.45042739
   0.75000000  0.75000000  0.45042739
   0.62502204  0.75004919  0.54958608
   0.75008399  0.87499513  0.54967683
   0.62518143  0.87500229  0.64748492
   0.75023445  0.75014470  0.64749429
   0.87500000  0.50000000  0.35128218
   0.50000000  0.62500000  0.35128218
   0.87500000  0.62500000  0.45042739
   0.50000000  0.50000000  0.45042739
   0.87505004  0.50000278  0.54958771
   0.49999002  0.62454077  0.54996050
   0.87514121  0.62521222  0.64750606
   0.50004200  0.50047939  0.65116090
   0.87500000  0.75000000  0.35128218
   0.50000000  0.87500000  0.35128218
   0.87500000  0.87500000  0.45042739
   0.50000000  0.75000000  0.45042739
   0.87505811  0.75003389  0.54969689
   0.50000500  0.87500246  0.54960774
   0.87514250  0.87501057  0.64759108
   0.50002634  0.75018983  0.64726070
   0.12500000  0.00000000  0.45042739
   0.25000000  0.12500000  0.45042739
   0.12500000  0.12500000  0.35128218
   0.25000000  0.00000000  0.35128218
   0.12483539  0.99982786  0.65012150
   0.24947128  0.12440671  0.65013375
   0.12487648  0.12485847  0.54936418
   0.24988648  0.99986186  0.54934566
[...]
      2.11615     12.70133     11.73628        -0.000783      0.001775     -0.001807
      4.23250     14.81742     11.73582        -0.001845      0.000315      0.001232
      2.11475     14.81768     13.82621         0.001306      0.000502      0.053341
      4.23003     12.70309     13.82445         0.001498      0.000561      0.056581
      6.35036      8.46714      7.50000         0.008093     -0.007756      0.406527
      0.00000     10.58393      7.50000        -0.000062     -0.001460      0.383568
      6.35036     10.58393      9.61679         0.015958     -0.034619      0.000753
      0.00000      8.46714      9.61679        -0.000229      0.000694     -0.031876
      6.36015      8.45858     11.75155        -0.001926      0.003795     -0.001498
      0.00016     10.58490     11.73563        -0.000154      0.003110      0.004351
      6.34478     10.58833     13.81080        -0.001196      0.004821      0.052747
      0.00024      8.46992     13.82424         0.000024     -0.001769      0.060444
      6.35036     12.70071      7.50000         0.001964     -0.005449      0.387500
      0.00000     14.81750      7.50000        -0.000042      0.000250      0.382811
      6.35036     14.81750      9.61679        -0.001011     -0.001026     -0.032162
      0.00000     12.70071      9.61679         0.000390      0.001229     -0.029862
      6.35048     12.70142     11.73413         0.000573     -0.001484      0.003338
      0.00018     14.81766     11.73663        -0.000361     -0.000955     -0.002850
      6.34772     14.81749     13.82408         0.002648      0.000496      0.058417
      0.00020     12.70272     13.82560        -0.000127     -0.001513      0.058013
     10.58393      0.00000      7.50000        -0.002398      0.005840      0.387784
     12.70071      2.11679      7.50000        -0.005928      0.006293      0.388832
     10.58393      2.11679      9.61679        -0.015818      0.033714     -0.001314
     12.70071      0.00000      9.61679        -0.001803      0.002716     -0.030150
     10.58393     16.93326     11.73353         0.002346      0.001354      0.005652
     12.70134      2.11597     11.73296        -0.001356      0.000608      0.000411
     10.59021      2.11180     13.80995         0.002167     -0.004992      0.052497
     12.70454     16.93189     13.82389        -0.000005     -0.000296      0.057489
     10.58393      4.23357      7.50000        -0.007722      0.008022      0.406222
     12.70071      6.35036      7.50000        -0.011319     -0.000119      0.399113
     10.58393      6.35036      9.61679        -0.042505     -0.001255      0.069028
     12.70071      4.23357      9.61679        -0.035438      0.016625      0.001394
     10.57451      4.24146     11.75116         0.003134     -0.003246     -0.001182
     12.69324      6.35075     11.74182         0.003295     -0.001143      0.001657
     10.59297      6.34963     13.90211         0.002650     -0.000080      0.029241
     12.70529      4.22726     13.80895         0.003983      0.000719      0.053925
     14.81750      0.00000      7.50000        -0.001693      0.001814      0.383635
      8.46714      2.11679      7.50000         0.000116      0.011402      0.399400
     14.81750      2.11679      9.61679        -0.003360      0.001892     -0.029820
      8.46714      0.00000      9.61679         0.000648      0.026050     -0.017274
     14.81852     16.93350     11.73596        -0.001036     -0.000503      0.001139
      8.46749      2.12391     11.74180         0.000206      0.000419      0.000457
     14.82013      2.11318     13.82393         0.001379      0.001210      0.053879
      8.46715     16.93129     13.81945        -0.000197     -0.004743      0.054609
     14.81750      4.23357      7.50000        -0.006013      0.002536      0.387282
      8.46714      6.35036      7.50000        -0.000010      0.000147      0.418858
     14.81750      6.35036      9.61679        -0.025691      0.000234     -0.015662
      8.46714      4.23357      9.61679        -0.001446      0.042077      0.068004
     14.81878      4.23356     11.73387        -0.002523     -0.000001      0.003360
      8.46739      6.34987     11.77279         0.000060      0.000194     -0.004908
     14.82075      6.35040     13.81950         0.002262     -0.000939      0.053574
      8.46738      4.22349     13.90232         0.001376     -0.000981      0.026383
     10.58393      8.46714      7.50000        -0.007976     -0.007931      0.406522
     12.70071     10.58393      7.50000        -0.005863     -0.005325      0.388601
     10.58393     10.58393      9.61679        -0.016417     -0.036563      0.001182
     12.70071      8.46714      9.61679        -0.034635     -0.015580     -0.001111
     10.57567      8.45751     11.75133         0.002506      0.002834     -0.002178
     12.70137     10.58437     11.73317        -0.000557     -0.002126      0.000906
     10.59016     10.58845     13.80905         0.000886      0.003325      0.054198
     12.70498      8.47311     13.81057         0.004552     -0.001909      0.053244
     10.58393     12.70071      7.50000        -0.002019     -0.005399      0.386992
     12.70071     14.81750      7.50000        -0.001649     -0.000087      0.383810
     10.58393     14.81750      9.61679         0.001398      0.000475     -0.032259
     12.70071     12.70071      9.61679        -0.000792     -0.002687     -0.029117
     10.58430     12.70155     11.73386        -0.002291     -0.000772      0.004683
     12.70214     14.81742     11.73580         0.001190      0.000978      0.001679
     10.58700     14.81754     13.82403        -0.003051      0.000489      0.057947
     12.70468     12.70316     13.82423        -0.001998      0.000719      0.056261
     14.81750      8.46714      7.50000        -0.005720     -0.002252      0.387457
      8.46714     10.58393      7.50000        -0.000127     -0.011183      0.399048
     14.81750     10.58393      9.61679        -0.003409     -0.001509     -0.029013
      8.46714      8.46714      9.61679         0.001346     -0.043893      0.067843
     14.81835      8.46719     11.73389        -0.002464      0.000728      0.005657
      8.46697     10.57615     11.74185        -0.000289      0.002100      0.001292
     14.81989     10.58752     13.82449         0.001897     -0.000601      0.053969
      8.46785      8.47526     13.90252        -0.001545      0.000265      0.026729
     14.81750     12.70071      7.50000        -0.002042     -0.001362      0.383483
      8.46714     14.81750      7.50000         0.000002      0.000272      0.384927
     14.81750     14.81750      9.61679         0.000791     -0.000109     -0.028801
      8.46714     12.70071      9.61679        -0.000380     -0.025509     -0.016178
     14.81848     12.70129     11.73622         0.000787      0.002088     -0.001235
      8.46723     14.81754     11.73432         0.000638     -0.001622      0.008725
     14.81991     14.81768     13.82630        -0.001587     -0.000159      0.052733
      8.46759     12.70393     13.81925        -0.000095      0.003751      0.054076
      2.11679      0.00000      9.61679        -0.003659     -0.004671      0.026994
      4.23357      2.11679      9.61679        -0.018222     -0.021198      0.018628
      2.11679      2.11679      7.50000        -0.006502     -0.005945     -0.469348
      4.23357      0.00000      7.50000        -0.003611     -0.003936     -0.471250
      2.11400     16.93137     13.88033        -0.001008     -0.000390      0.009007
      4.22462      2.10674     13.88059         0.001915      0.002047      0.010066
      2.11469      2.11439     11.72912        -0.000951      0.001921     -0.001122
      4.23165     16.93195     11.72873         0.001133     -0.000606      0.000241
      2.11679      4.23357      9.61679        -0.023784     -0.007468      0.019405
      4.23357      6.35036      9.61679        -0.020019      0.002548      0.027447
      2.11679      6.35036      7.50000        -0.010809      0.002826     -0.473377
      4.23357      4.23357      7.50000        -0.011944     -0.006692     -0.483297
      2.11222      4.22935     13.88185         0.003085      0.001584      0.010261
      4.21136      6.35012     13.88772         0.005405      0.000095      0.010983
      2.11367      6.35071     11.72895         0.000223      0.000404     -0.002926
      4.22640      4.23054     11.72667         0.001942      0.001391     -0.003346
      6.35036      0.00000      9.61679        -0.009163     -0.021657      0.017055
      0.00000      2.11679      9.61679         0.000401     -0.002973      0.026629
      6.35036      2.11679      7.50000        -0.004578     -0.014228     -0.479310
      0.00000      0.00000      7.50000         0.000017     -0.001130     -0.468801
      6.34558     16.92967     13.88117         0.000956      0.003074      0.009584
      0.00024      2.11399     13.87998        -0.000547     -0.001342      0.011835
      6.34792      2.10980     11.72683         0.000691      0.001946     -0.001605
      0.00013     16.93326     11.73061        -0.000253     -0.000736      0.001872
      6.35036      4.23357      9.61679        -0.008001     -0.007758      0.045228
      0.00000      6.35036      9.61679         0.000702     -0.000151      0.023962
      6.35036      6.35036      7.50000        -0.009587      0.002567     -0.493849
      0.00000      4.23357      7.50000        -0.000145     -0.001607     -0.471649
      6.32029      4.20847     13.87350         0.006550      0.005831      0.015628
      0.00022      6.35054     13.88058         0.000280     -0.001574      0.011952
      6.34294      6.35089     11.74453         0.003262      0.000205      0.003245
      0.00034      4.23238     11.72960        -0.000022      0.002097     -0.003835
      2.11679      8.46714      9.61679        -0.019356      0.008449      0.019043
      4.23357     10.58393      9.61679        -0.019385      0.017627      0.019290
      2.11679     10.58393      7.50000        -0.006615      0.001303     -0.469175
      4.23357      8.46714      7.50000        -0.012201      0.007115     -0.481189
      2.11311      8.47148     13.88159         0.001439     -0.000645      0.009830
      4.22433     10.59313     13.88074         0.002004     -0.002207      0.009519
      2.11490     10.58596     11.72926        -0.000819     -0.001842     -0.001297
      4.22750      8.47014     11.72703         0.001794     -0.001502     -0.001251
      2.11679     12.70071      9.61679        -0.005512      0.004841      0.030739
      4.23357     14.81750      9.61679        -0.004367      0.000938      0.030222
      2.11679     14.81750      7.50000        -0.003779      0.002572     -0.467010
      4.23357     12.70071      7.50000        -0.003716      0.004206     -0.473120
      2.11337     12.70391     13.88063         0.000338      0.001288      0.009216
      4.23008     14.81772     13.88045         0.000639     -0.000908      0.010507
      2.11557     14.81772     11.72951        -0.000288     -0.000935      0.002897
      4.23150     12.70282     11.72979         0.000466      0.000981     -0.002193
      6.35036      8.46714      9.61679        -0.009901      0.009732      0.041842
      0.00000     10.58393      9.61679         0.000289      0.005008      0.027812
      6.35036     10.58393      7.50000        -0.004477      0.009803     -0.479462
      0.00000      8.46714      7.50000         0.000182      0.002087     -0.471369
      6.32687      8.49675     13.87411         0.004021     -0.005867      0.017727
      0.00027     10.58770     13.88009        -0.000093     -0.001316      0.011561
      6.34751     10.59093     11.72680         0.001397     -0.002452     -0.003560
      0.00013      8.46844     11.73123        -0.000085     -0.001079     -0.004454
      6.35036     12.70071      9.61679        -0.006599      0.021840      0.020157
      0.00000     14.81750      9.61679         0.000345     -0.000664      0.028929
      6.35036     14.81750      7.50000         0.000581      0.002680     -0.469657
      0.00000     12.70071      7.50000        -0.000000      0.001397     -0.468829
      6.34626     12.70533     13.88198         0.000854     -0.001523      0.010860
      0.00014     14.81753     13.88115         0.000349     -0.000277      0.003513
      6.34910     14.81721     11.72987         0.001326      0.001767     -0.002534
      0.00027     12.70178     11.72903        -0.000372      0.001122      0.004654
     10.58393      0.00000      9.61679         0.009554     -0.023897      0.014683
     12.70071      2.11679      9.61679         0.020616     -0.020707      0.017527
     10.58393      2.11679      7.50000         0.004500     -0.014136     -0.479636
     12.70071      0.00000      7.50000         0.003743     -0.003972     -0.471341
     10.58898     16.92964     13.88144        -0.000695      0.002506      0.009801
     12.71082      2.10719     13.88025        -0.002346      0.002368      0.010509
     10.58700      2.10881     11.72570        -0.001625      0.001552     -0.000602
     12.70308     16.93166     11.72892        -0.001830      0.000746     -0.000347
     10.58393      4.23357      9.61679         0.006043     -0.009802      0.044378
     12.70071      6.35036      9.61679         0.021223      0.001632      0.026095
     10.58393      6.35036      7.50000         0.009585      0.002465     -0.493810
     12.70071      4.23357      7.50000         0.011972     -0.006618     -0.482995
     10.60884      4.20203     13.87253        -0.005285      0.006504      0.016840
     12.72383      6.35063     13.88656        -0.003997     -0.000109      0.011569
     10.59187      6.34949     11.74416        -0.004210      0.000643      0.002778
     12.70756      4.23055     11.72695        -0.002084      0.002080     -0.003252
     14.81750      0.00000      9.61679         0.004168     -0.005017      0.026844
      8.46714      2.11679      9.61679        -0.000655     -0.019295      0.022517
     14.81750      2.11679      7.50000         0.006607     -0.005794     -0.469355
      8.46714      0.00000      7.50000        -0.000189     -0.008275     -0.475344
     14.82071     16.93130     13.88040         0.000906     -0.000126      0.008854
      8.46783      2.09301     13.88604        -0.000181      0.004793      0.012544
     14.81988      2.11438     11.72886         0.001360      0.001732     -0.000700
      8.46715     16.93062     11.72945        -0.000226      0.000272     -0.001774
     14.81750      4.23357      9.61679         0.023526     -0.007562      0.020366
      8.46714      6.35036      9.61679         0.000141     -0.003834      0.075227
     14.81750      6.35036      7.50000         0.010813      0.002569     -0.473350
      8.46714      4.23357      7.50000        -0.000082     -0.011793     -0.495782
     14.82245      4.22919     13.88109        -0.001780      0.001242      0.010676
      8.46797      6.34916     13.86685        -0.000828     -0.000095      0.018546
     14.82117      6.35051     11.72881        -0.001280      0.001032     -0.004163
      8.46649      4.22547     11.74427         0.000322      0.003892      0.002610
     10.58393      8.46714      9.61679         0.012030      0.008156      0.041159
     12.70071     10.58393      9.61679         0.018708      0.019447      0.018781
     10.58393     10.58393      7.50000         0.004424      0.009905     -0.479142
     12.70071      8.46714      7.50000         0.012100      0.007152     -0.481421
     10.61449      8.49100     13.87323        -0.005643     -0.005099      0.017311
     12.70987     10.59374     13.88052        -0.001638     -0.002413      0.009919
     10.58682     10.59022     11.72718        -0.001945     -0.001532     -0.003252
     12.70797      8.47041     11.72609        -0.001635     -0.001460     -0.002880
     10.58393     12.70071      9.61679         0.007394      0.020492      0.021190
     12.70071     14.81750      9.61679         0.004893      0.000606      0.029936
     10.58393     14.81750      7.50000        -0.000636      0.002218     -0.469675
     12.70071     12.70071      7.50000         0.003543      0.004213     -0.473041
     10.58852     12.70520     13.88132        -0.000729     -0.001340      0.010850
     12.70444     14.81757     13.88062         0.000735     -0.000038      0.010148
     10.58552     14.81746     11.72986        -0.002287      0.000240     -0.002404
     12.70302     12.70278     11.72968        -0.000665      0.001102     -0.003306
     14.81750      8.46714      9.61679         0.022010      0.008585      0.016876
      8.46714     10.58393      9.61679         0.000565      0.022633      0.024236
     14.81750     10.58393      7.50000         0.006564      0.001447     -0.469181
      8.46714      8.46714      7.50000         0.000053      0.012177     -0.495764
     14.82182      8.47146     13.88180        -0.002126     -0.000977      0.009876
      8.46703     10.60770     13.88565         0.000653     -0.006301      0.011502
     14.81975     10.58609     11.72934         0.000664     -0.002330     -0.000753
      8.46792      8.47391     11.74418         0.000008     -0.003253      0.004200
     14.81750     12.70071      9.61679         0.006308      0.004613      0.030674
      8.46714     14.81750      9.61679         0.000214     -0.001465      0.023028
     14.81750     14.81750      7.50000         0.003795      0.002498     -0.467020
      8.46714     12.70071      7.50000         0.000173      0.008492     -0.475214
     14.82134     12.70387     13.88069         0.000119      0.000971      0.008492
      8.46737     14.81750     13.88049        -0.000300     -0.000267      0.011293
     14.81905     14.81758     11.72945         0.000325     -0.000590      0.003472
      8.46743     12.70422     11.72863        -0.000098     -0.001960     -0.004436
 -----------------------------------------------------------------------------------
    total drift:                                0.005968     -0.051043      0.050840


--------------------------------------------------------------------------------------------------------



  FREE ENERGIE OF THE ION-ELECTRON SYSTEM (eV)
  ---------------------------------------------------
  free  energy   TOTEN  =     -1626.19404446 eV

  energy  without entropy=    -1626.19404446  energy(sigma->0) =    -1626.19404446



--------------------------------------------------------------------------------------------------------


    POTLOK:  cpu time      0.3158: real time      0.3158


--------------------------------------------------------------------------------------------------------


     LOOP+:  cpu time     99.2139: real time     99.3947
    4ORBIT:  cpu time      0.0000: real time      0.0000

 total amount of memory used by VASP MPI-rank0    78577. kBytes
=======================================================================

   base      :      30000. kBytes
   nonlr-proj:      10554. kBytes
   fftplans  :       9341. kBytes
   grid      :      19418. kBytes
   one-center:        141. kBytes
   wavefun   :       9123. kBytes

  
  
 General timing and accounting informations for this job:
 ========================================================
  
                  Total CPU time used (sec):      137.341
                            User time (sec):      133.829
                          System time (sec):        3.513
                         Elapsed time (sec):      150.934
  
                   Maximum memory used (kb):      243344.
                   Average memory used (kb):          N/A
  
                          Minor page faults:       289453
                          Major page faults:           47
                 Voluntary context switches:        12806
