 vasp.6.3.0 20Jan22 (build Apr  1 2022 16:44:48) complex                         
 executed on        HPECrayEX_GCC date 2022.11.13  00:35:06
 running  512 mpi-ranks, with    1 threads/rank
 distrk:  each k-point on  512 cores,    1 groups
 distr:  one band on NCORE=   8 cores,   64 groups


--------------------------------------------------------------------------------------------------------


 INCAR:
   SYSTEM = MgO-rocksalt
   ISMEAR = 0
   SIGMA = 0.05
   EDIFF = 1E-6
   ALGO = ALL
   ISTART = 0
   IBRION = -1
   NSW = 0
   ISYM = 0
   DIPOL = 0.5 0.5 0.5
   IDIPOL = 3
   LDIPOL = .TRUE.
   GGA = RE
   IVDW = 13
   VDW_S8 = 1.7468
   VDW_A1 = 0.5363
   VDW_A2 = 3.0726
   ENCUT = 600
   PREC = Accurate
   LASPH = .TRUE.
   LREAL = .FALSE.
   ISPIN = 1
   NELM = 200
   NELMIN = 8
   NCORE = 8
   KPAR = 1
   LWAVE = .FALSE.
   LCHARG = .FALSE.

 POTCAR:    PAW_PBE C 08Apr2002                   
 POTCAR:    PAW_PBE O 08Apr2002                   
 POTCAR:    PAW_PBE H 15Jun2001                   
 POTCAR:    PAW_PBE Mg_pv 13Apr2007               
 POTCAR:    PAW_PBE O 08Apr2002                   
 POTCAR:    PAW_PBE C 08Apr2002                   
   SHA256 =  253f7b50bb8d59471dbedb8285d89021f4a42ed1a2c5d38a03a736e69125dd95 C/POTCAR              
   COPYR  = (c) Copyright 08Apr2002 Georg Kresse                                                    
   COPYR  = This file is part of the software VASP. Any use, copying, and all other rights are regul
   COPYR  = If you do not have a valid VASP license, you may not use, copy or distribute this file. 
   VRHFIN =C: s2p2                                                                                  
   LEXCH  = PE                                                                                      
   EATOM  =   147.1560 eV,   10.8157 Ry                                                             
                                                                                                    
   TITEL  = PAW_PBE C 08Apr2002                                                                     
   LULTRA =        F    use ultrasoft PP ?                                                          
   IUNSCR =        1    unscreen: 0-lin 1-nonlin 2-no                                               
   RPACOR =    1.200    partial core radius                                                         
   POMASS =   12.011; ZVAL   =    4.000    mass and valenz                                          
   RCORE  =    1.500    outmost cutoff radius                                                       
   RWIGS  =    1.630; RWIGS  =    0.863    wigner-seitz radius (au A)                               
   ENMAX  =  400.000; ENMIN  =  300.000 eV                                                          
   ICORE  =        2    local potential                                                             
   LCOR   =        T    correct aug charges                                                         
   LPAW   =        T    paw PP                                                                      
   EAUG   =  644.873                                                                                
   DEXC   =    0.000                                                                                
   RMAX   =    1.529    core radius for proj-oper                                                   
   RAUG   =    1.300    factor for augmentation sphere                                              
   RDEP   =    1.501    radius for radial grids                                                     
   RDEPT  =    1.300    core radius for aug-charge                                                  
                                                                                                    
   Atomic configuration                                                                             
    4 entries                                                                                       
     n  l   j            E        occ.                                                              
     1  0  0.50      -273.3789   2.0000                                                             
     2  0  0.50       -13.7508   2.0000                                                             
     2  1  0.50        -5.2854   2.0000                                                             
     3  2  1.50        -5.4423   0.0000                                                             
   Description                                                                                      
     l       E           TYP  RCUT    TYP  RCUT                                                     
     0    -13.7508458     23  1.200                                                                 
     0     -8.2022199     23  1.200                                                                 
     1     -5.2854383     23  1.500                                                                 
     1     34.0145650     23  1.500                                                                 
     2     -5.4423304      7  1.500                                                                 
  local pseudopotential read in
  partial core-charges read in
  partial kinetic energy density read in
  atomic valenz-charges read in
  non local Contribution for L=           0  read in
    real space projection operators read in
  non local Contribution for L=           0  read in
    real space projection operators read in
  non local Contribution for L=           1  read in
    real space projection operators read in
  non local Contribution for L=           1  read in
    real space projection operators read in
    PAW grid and wavefunctions read in

   number of l-projection  operators is LMAX  =           4
   number of lm-projection operators is LMMAX =           8

 POTCAR:    PAW_PBE O 08Apr2002                   
   SHA256 =  818f92134a0a090dccd8ba1447fa70422a3b330e708bb4f08108d8ae51209ddf O/POTCAR              
   COPYR  = (c) Copyright 08Apr2002 Georg Kresse                                                    
   COPYR  = This file is part of the software VASP. Any use, copying, and all other rights are regul
   COPYR  = If you do not have a valid VASP license, you may not use, copy or distribute this file. 
   VRHFIN =O: s2p4                                                                                  
   LEXCH  = PE                                                                                      
   EATOM  =   432.3788 eV,   31.7789 Ry                                                             
                                                                                                    
   TITEL  = PAW_PBE O 08Apr2002                                                                     
   LULTRA =        F    use ultrasoft PP ?                                                          
   IUNSCR =        1    unscreen: 0-lin 1-nonlin 2-no                                               
   RPACOR =    1.200    partial core radius                                                         
   POMASS =   16.000; ZVAL   =    6.000    mass and valenz                                          
   RCORE  =    1.520    outmost cutoff radius                                                       
   RWIGS  =    1.550; RWIGS  =    0.820    wigner-seitz radius (au A)                               
   ENMAX  =  400.000; ENMIN  =  300.000 eV                                                          
   ICORE  =        2    local potential                                                             
   LCOR   =        T    correct aug charges                                                         
   LPAW   =        T    paw PP                                                                      
   EAUG   =  605.392                                                                                
   DEXC   =    0.000                                                                                
   RMAX   =    1.553    core radius for proj-oper                                                   
   RAUG   =    1.300    factor for augmentation sphere                                              
   RDEP   =    1.550    radius for radial grids                                                     
   RDEPT  =    1.329    core radius for aug-charge                                                  
                                                                                                    
   Atomic configuration                                                                             
    4 entries                                                                                       
     n  l   j            E        occ.                                                              
     1  0  0.50      -514.6923   2.0000                                                             
     2  0  0.50       -23.9615   2.0000                                                             
     2  1  0.50        -9.0305   4.0000                                                             
     3  2  1.50        -9.5241   0.0000                                                             
   Description                                                                                      
     l       E           TYP  RCUT    TYP  RCUT                                                     
     0    -23.9615318     23  1.200                                                                 
     0     -9.5240782     23  1.200                                                                 
     1     -9.0304911     23  1.520                                                                 
     1      8.1634956     23  1.520                                                                 
     2     -9.5240782      7  1.500                                                                 
  local pseudopotential read in
  partial core-charges read in
  partial kinetic energy density read in
  kinetic energy density of atom read in
  atomic valenz-charges read in
  non local Contribution for L=           0  read in
    real space projection operators read in
  non local Contribution for L=           0  read in
    real space projection operators read in
  non local Contribution for L=           1  read in
    real space projection operators read in
  non local Contribution for L=           1  read in
    real space projection operators read in
    PAW grid and wavefunctions read in

   number of l-projection  operators is LMAX  =           4
   number of lm-projection operators is LMMAX =           8

 POTCAR:    PAW_PBE H 15Jun2001                   
   SHA256 =  030f79b5d3ab3cf0e668861823c8fb652ff669f3e15e46930bd03bfd63a607b6 H/POTCAR              
   COPYR  = (c) Copyright 15Jun2001 Georg Kresse                                                    
   COPYR  = This file is part of the software VASP. Any use, copying, and all other rights are regul
   COPYR  = If you do not have a valid VASP license, you may not use, copy or distribute this file. 
   VRHFIN =H: ultrasoft test                                                                        
   LEXCH  = PE                                                                                      
   EATOM  =    12.4884 eV,    0.9179 Ry                                                             
                                                                                                    
   TITEL  = PAW_PBE H 15Jun2001                                                                     
   LULTRA =        F    use ultrasoft PP ?                                                          
   IUNSCR =        0    unscreen: 0-lin 1-nonlin 2-no                                               
   RPACOR =    0.000    partial core radius                                                         
   POMASS =    1.000; ZVAL   =    1.000    mass and valenz                                          
   RCORE  =    1.100    outmost cutoff radius                                                       
   RWIGS  =    0.700; RWIGS  =    0.370    wigner-seitz radius (au A)                               
   ENMAX  =  250.000; ENMIN  =  200.000 eV                                                          
   RCLOC  =    0.701    cutoff for local pot                                                        
   LCOR   =        T    correct aug charges                                                         
   LPAW   =        T    paw PP                                                                      
   EAUG   =  400.000                                                                                
   RMAX   =    1.123    core radius for proj-oper                                                   
   RAUG   =    1.200    factor for augmentation sphere                                              
   RDEP   =    1.112    radius for radial grids                                                     
   RDEPT  =    0.926    core radius for aug-charge                                                  
                                                                                                    
   Atomic configuration                                                                             
    2 entries                                                                                       
     n  l   j            E        occ.                                                              
     1  0  0.50        -6.4927   1.0000                                                             
     2  1  0.50        -3.4015   0.0000                                                             
   Description                                                                                      
     l       E           TYP  RCUT    TYP  RCUT                                                     
     0     -6.4927494     23  1.100                                                                 
     0      6.8029130     23  1.100                                                                 
     1     -4.0817478     23  1.100                                                                 
  local pseudopotential read in
  atomic valenz-charges read in
  non local Contribution for L=           0  read in
    real space projection operators read in
  non local Contribution for L=           0  read in
    real space projection operators read in
  non local Contribution for L=           1  read in
    real space projection operators read in
    PAW grid and wavefunctions read in

   number of l-projection  operators is LMAX  =           3
   number of lm-projection operators is LMMAX =           5

 POTCAR:    PAW_PBE Mg_pv 13Apr2007               
   SHA256 =  f474ac0dd33840b9ae76c01d57fea79fdf77cdfbb07d5ade72c65f83c709b62b Mg_pv/POTCAR          
   COPYR  = (c) Copyright 13Apr2007 Georg Kresse                                                    
   COPYR  = This file is part of the software VASP. Any use, copying, and all other rights are regul
   COPYR  = If you do not have a valid VASP license, you may not use, copy or distribute this file. 
   VRHFIN =Mg: p6s2                                                                                 
   LEXCH  = PE                                                                                      
   EATOM  =  1056.7344 eV,   77.6678 Ry                                                             
                                                                                                    
   TITEL  = PAW_PBE Mg_pv 13Apr2007                                                                 
   LULTRA =        F    use ultrasoft PP ?                                                          
   IUNSCR =        1    unscreen: 0-lin 1-nonlin 2-no                                               
   RPACOR =    1.500    partial core radius                                                         
   POMASS =   24.305; ZVAL   =    8.000    mass and valenz                                          
   RCORE  =    2.000    outmost cutoff radius                                                       
   RWIGS  =    2.000; RWIGS  =    1.058    wigner-seitz radius (au A)                               
   ENMAX  =  403.929; ENMIN  =  302.947 eV                                                          
   RCLOC  =    1.506    cutoff for local pot                                                        
   LCOR   =        T    correct aug charges                                                         
   LPAW   =        T    paw PP                                                                      
   EAUG   =  758.780                                                                                
   DEXC   =    0.000                                                                                
   RMAX   =    2.045    core radius for proj-oper                                                   
   RAUG   =    1.300    factor for augmentation sphere                                              
   RDEP   =    2.025    radius for radial grids                                                     
   RDEPT  =    1.557    core radius for aug-charge                                                  
                                                                                                    
   Atomic configuration                                                                             
    5 entries                                                                                       
     n  l   j            E        occ.                                                              
     1  0  0.50     -1259.6230   2.0000                                                             
     2  0  0.50       -79.8442   2.0000                                                             
     2  1  1.50       -46.6121   6.0000                                                             
     3  0  0.50        -4.7055   2.0000                                                             
     3  2  1.50        -1.3606   0.0000                                                             
   Description                                                                                      
     l       E           TYP  RCUT    TYP  RCUT                                                     
     1    -46.6121073     23  1.600                                                                 
     1      2.7211652     23  1.600                                                                 
     0     -4.7054661     23  2.000                                                                 
     0     61.2262170     23  2.000                                                                 
     2     -1.3605826     23  2.000                                                                 
  local pseudopotential read in
  partial core-charges read in
  partial kinetic energy density read in
  atomic valenz-charges read in
  non local Contribution for L=           1  read in
    real space projection operators read in
  non local Contribution for L=           1  read in
    real space projection operators read in
  non local Contribution for L=           0  read in
    real space projection operators read in
  non local Contribution for L=           0  read in
    real space projection operators read in
  non local Contribution for L=           2  read in
    real space projection operators read in
    PAW grid and wavefunctions read in

   number of l-projection  operators is LMAX  =           5
   number of lm-projection operators is LMMAX =          13

 POTCAR:    PAW_PBE O 08Apr2002                   
   SHA256 =  818f92134a0a090dccd8ba1447fa70422a3b330e708bb4f08108d8ae51209ddf O/POTCAR              
   COPYR  = (c) Copyright 08Apr2002 Georg Kresse                                                    
   COPYR  = This file is part of the software VASP. Any use, copying, and all other rights are regul
   COPYR  = If you do not have a valid VASP license, you may not use, copy or distribute this file. 
   VRHFIN =O: s2p4                                                                                  
   LEXCH  = PE                                                                                      
   EATOM  =   432.3788 eV,   31.7789 Ry                                                             
                                                                                                    
   TITEL  = PAW_PBE O 08Apr2002                                                                     
   LULTRA =        F    use ultrasoft PP ?                                                          
   IUNSCR =        1    unscreen: 0-lin 1-nonlin 2-no                                               
   RPACOR =    1.200    partial core radius                                                         
   POMASS =   16.000; ZVAL   =    6.000    mass and valenz                                          
   RCORE  =    1.520    outmost cutoff radius                                                       
   RWIGS  =    1.550; RWIGS  =    0.820    wigner-seitz radius (au A)                               
   ENMAX  =  400.000; ENMIN  =  300.000 eV                                                          
   ICORE  =        2    local potential                                                             
   LCOR   =        T    correct aug charges                                                         
   LPAW   =        T    paw PP                                                                      
   EAUG   =  605.392                                                                                
   DEXC   =    0.000                                                                                
   RMAX   =    1.553    core radius for proj-oper                                                   
   RAUG   =    1.300    factor for augmentation sphere                                              
   RDEP   =    1.550    radius for radial grids                                                     
   RDEPT  =    1.329    core radius for aug-charge                                                  
                                                                                                    
   Atomic configuration                                                                             
    4 entries                                                                                       
     n  l   j            E        occ.                                                              
     1  0  0.50      -514.6923   2.0000                                                             
     2  0  0.50       -23.9615   2.0000                                                             
     2  1  0.50        -9.0305   4.0000                                                             
     3  2  1.50        -9.5241   0.0000                                                             
   Description                                                                                      
     l       E           TYP  RCUT    TYP  RCUT                                                     
     0    -23.9615318     23  1.200                                                                 
     0     -9.5240782     23  1.200                                                                 
     1     -9.0304911     23  1.520                                                                 
     1      8.1634956     23  1.520                                                                 
     2     -9.5240782      7  1.500                                                                 
  local pseudopotential read in
  partial core-charges read in
  partial kinetic energy density read in
  kinetic energy density of atom read in
  atomic valenz-charges read in
  non local Contribution for L=           0  read in
    real space projection operators read in
  non local Contribution for L=           0  read in
    real space projection operators read in
  non local Contribution for L=           1  read in
    real space projection operators read in
  non local Contribution for L=           1  read in
    real space projection operators read in
    PAW grid and wavefunctions read in

   number of l-projection  operators is LMAX  =           4
   number of lm-projection operators is LMMAX =           8

 -----------------------------------------------------------------------------
|                                                                             |
|               ----> ADVICE to this user running VASP <----                  |
|                                                                             |
|     You have a (more or less) 'large supercell' and for larger cells it     |
|     might be more efficient to use real-space projection operators.         |
|     Therefore, try LREAL= Auto in the INCAR file.                           |
|     Mind: For very accurate calculation, you might also keep the            |
|     reciprocal projection scheme (i.e. LREAL=.FALSE.).                      |
|                                                                             |
 -----------------------------------------------------------------------------

 -----------------------------------------------------------------------------
|                                                                             |
|               ----> ADVICE to this user running VASP <----                  |
|                                                                             |
|     You enforced a specific xc type in the INCAR file but a different       |
|     type was found in the POTCAR file.                                      |
|     I HOPE YOU KNOW WHAT YOU ARE DOING!                                     |
|                                                                             |
 -----------------------------------------------------------------------------

  PAW_PBE C 08Apr2002                   :
 energy of atom  1       EATOM= -147.1560
 kinetic energy error for atom=    0.0057 (will be added to EATOM!!)
  PAW_PBE O 08Apr2002                   :
 energy of atom  2       EATOM= -432.3788
 kinetic energy error for atom=    0.0168 (will be added to EATOM!!)
  PAW_PBE H 15Jun2001                   :
 energy of atom  3       EATOM=  -12.4884
 kinetic energy error for atom=    0.0004 (will be added to EATOM!!)
  PAW_PBE Mg_pv 13Apr2007               :
 energy of atom  4       EATOM=-1056.7344
 kinetic energy error for atom=    0.0221 (will be added to EATOM!!)
  PAW_PBE O 08Apr2002                   :
 energy of atom  5       EATOM= -432.3788
 kinetic energy error for atom=    0.0168 (will be added to EATOM!!)


 POSCAR:  C  O  H Mg  O
  positions in direct lattice
  No initial velocities read in
 -----------------------------------------------------------------------------
|                                                                             |
|           W    W    AA    RRRRR   N    N  II  N    N   GGGG   !!!           |
|           W    W   A  A   R    R  NN   N  II  NN   N  G    G  !!!           |
|           W    W  A    A  R    R  N N  N  II  N N  N  G       !!!           |
|           W WW W  AAAAAA  RRRRR   N  N N  II  N  N N  G  GGG   !            |
|           WW  WW  A    A  R   R   N   NN  II  N   NN  G    G                |
|           W    W  A    A  R    R  N    N  II  N    N   GGGG   !!!           |
|                                                                             |
|     Specifying the vdW parameters                                           |
|     VDW_S8 = 1.747                                                          |
|     VDW_A1 = 0.536                                                          |
|     VDW_A2 = 3.073                                                          |
|     in the INCAR file will overwrite the defaults for revpbe. Please        |
|     make sure that is what you intended.                                    |
|                                                                             |
 -----------------------------------------------------------------------------

 exchange correlation table for  LEXCH =       40
   RHO(1)=    0.500       N(1)  =     2000
   RHO(2)=  100.500       N(2)  =     4000



--------------------------------------------------------------------------------------------------------


 ion  position               nearest neighbor table
   1  0.500  0.894  0.812-   3 1.09   6 1.10   5 1.10   2 1.44
   2  0.500  0.739  0.785-   4 0.99   1 1.44
   3  0.500  0.880  0.862-   1 1.09
   4  0.500  0.750  0.739-   2 0.99
   5  0.605  0.961  0.798-   1 1.10
   6  0.395  0.961  0.798-   1 1.10
   7  0.000  0.750  0.350-  39 2.14  41 2.14  42 2.14  49 2.14  58 2.14
   8  0.250  0.000  0.350-  40 2.14  41 2.14  42 2.14  50 2.14  57 2.14
   9  0.000  0.000  0.450-  41 2.14  40 2.14  39 2.14  47 2.14  56 2.14  45 2.14
  10  0.250  0.750  0.450-  42 2.14  40 2.14  39 2.14  48 2.14  55 2.14  46 2.14
  11  0.000  0.750  0.550-  53 2.14  45 2.14  46 2.14  62 2.14  39 2.15  43 2.16
  12  0.250  1.000  0.550-  45 2.13  46 2.14  54 2.14  61 2.14  40 2.15  44 2.16
  13  0.000  0.000  0.650-  45 2.13  51 2.13  44 2.14  60 2.14  43 2.14
  14  0.248  0.750  0.650-  43 2.12  46 2.13  52 2.13  44 2.14  59 2.16
  15  0.000  0.250  0.350-  47 2.14  41 2.14  49 2.14  50 2.14  66 2.14
  16  0.250  0.500  0.350-  48 2.14  42 2.14  49 2.14  50 2.14  65 2.14
  17  0.000  0.500  0.450-  49 2.14  47 2.14  48 2.14  39 2.14  64 2.14  53 2.14
  18  0.250  0.250  0.450-  50 2.14  47 2.14  48 2.14  40 2.14  63 2.14  54 2.14
  19  0.000  0.250  0.550-  53 2.14  54 2.14  70 2.14  45 2.14  47 2.15  51 2.16
  20  0.250  0.500  0.550-  53 2.14  69 2.14  46 2.14  54 2.14  48 2.15  52 2.15
  21  0.000  0.500  0.650-  51 2.13  53 2.14  68 2.14  52 2.14  43 2.14
  22  0.250  0.250  0.650-  51 2.13  54 2.13  52 2.14  44 2.14  67 2.14
  23  0.500  0.750  0.350-  55 2.14  42 2.14  57 2.14  58 2.14  65 2.14
  24  0.750  0.000  0.350-  56 2.14  41 2.14  57 2.14  58 2.14  66 2.14
  25  0.500  0.000  0.450-  57 2.14  55 2.14  56 2.14  40 2.14  63 2.14  61 2.14
  26  0.750  0.750  0.450-  58 2.14  55 2.14  56 2.14  39 2.14  64 2.14  62 2.14
  27  0.500  0.750  0.550-  69 2.13  46 2.13  62 2.13  61 2.13  55 2.15  59 2.19
  28  0.750  1.000  0.550-  45 2.13  62 2.14  70 2.14  61 2.14  56 2.15  60 2.16
  29  0.500  0.003  0.649-  67 2.11  61 2.12  44 2.14  60 2.14  59 2.16
  30  0.752  0.750  0.650-  43 2.12  62 2.13  68 2.13  60 2.14  59 2.16
  31  0.500  0.250  0.350-  63 2.14  57 2.14  50 2.14  65 2.14  66 2.14
  32  0.750  0.500  0.350-  64 2.14  58 2.14  49 2.14  65 2.14  66 2.14
  33  0.500  0.500  0.450-  65 2.14  55 2.14  63 2.14  64 2.14  48 2.14  69 2.14
  34  0.750  0.250  0.450-  66 2.14  56 2.14  63 2.14  64 2.14  47 2.14  70 2.14
  35  0.500  0.250  0.550-  54 2.14  70 2.14  69 2.14  61 2.14  63 2.14  67 2.16
  36  0.750  0.500  0.550-  53 2.14  69 2.14  62 2.14  70 2.14  64 2.15  68 2.15
  37  0.500  0.498  0.650-  67 2.12  69 2.13  52 2.14  68 2.14  59 2.16
  38  0.750  0.250  0.650-  51 2.13  70 2.13  68 2.14  60 2.14  67 2.14
  39  0.000  0.750  0.450-   7 2.14   9 2.14  10 2.14  17 2.14  26 2.14  11 2.15
  40  0.250  0.000  0.450-   8 2.14   9 2.14  10 2.14  18 2.14  25 2.14  12 2.15
  41  0.000  0.000  0.350-   9 2.14   8 2.14   7 2.14  15 2.14  24 2.14
  42  0.250  0.750  0.350-  10 2.14   8 2.14   7 2.14  16 2.14  23 2.14
  43  0.000  0.750  0.651-  30 2.12  14 2.12  13 2.14  21 2.14  11 2.16
  44  0.250  1.000  0.651-  29 2.14  13 2.14  14 2.14  22 2.14  12 2.16
  45  0.000  1.000  0.550-  13 2.13  28 2.13  12 2.13  11 2.14  19 2.14   9 2.14
  46  0.250  0.750  0.550-  14 2.13  27 2.13  12 2.14  20 2.14  11 2.14  10 2.14
  47  0.000  0.250  0.450-  15 2.14   9 2.14  17 2.14  18 2.14  34 2.14  19 2.15
  48  0.250  0.500  0.450-  16 2.14  10 2.14  17 2.14  18 2.14  33 2.14  20 2.15
  49  0.000  0.500  0.350-  17 2.14  15 2.14  16 2.14   7 2.14  32 2.14
  50  0.250  0.250  0.350-  18 2.14  15 2.14  16 2.14   8 2.14  31 2.14
  51  0.000  0.250  0.651-  38 2.13  22 2.13  21 2.13  13 2.13  19 2.16
  52  0.250  0.500  0.651-  14 2.13  22 2.14  37 2.14  21 2.14  20 2.15
  53  0.000  0.500  0.550-  11 2.14  21 2.14  19 2.14  36 2.14  20 2.14  17 2.14
  54  0.250  0.250  0.550-  22 2.13  12 2.14  35 2.14  19 2.14  20 2.14  18 2.14
  55  0.500  0.750  0.450-  23 2.14  10 2.14  25 2.14  26 2.14  33 2.14  27 2.15
  56  0.750  0.000  0.450-  24 2.14   9 2.14  25 2.14  26 2.14  34 2.14  28 2.15
  57  0.500  0.000  0.350-  25 2.14  23 2.14  24 2.14   8 2.14  31 2.14
  58  0.750  0.750  0.350-  26 2.14  23 2.14  24 2.14   7 2.14  32 2.14
  59  0.500  0.751  0.653-  29 2.16  30 2.16  14 2.16  37 2.16  27 2.19
  60  0.750  1.000  0.651-  29 2.14  13 2.14  30 2.14  38 2.14  28 2.16
  61  0.500  1.000  0.550-  29 2.12  27 2.13  28 2.14  12 2.14  25 2.14  35 2.14
  62  0.750  0.750  0.550-  30 2.13  27 2.13  28 2.14  36 2.14  11 2.14  26 2.14
  63  0.500  0.250  0.450-  31 2.14  25 2.14  18 2.14  33 2.14  34 2.14  35 2.14
  64  0.750  0.500  0.450-  32 2.14  26 2.14  17 2.14  33 2.14  34 2.14  36 2.15
  65  0.500  0.500  0.350-  33 2.14  23 2.14  31 2.14  32 2.14  16 2.14
  66  0.750  0.250  0.350-  34 2.14  24 2.14  31 2.14  32 2.14  15 2.14
  67  0.500  0.250  0.651-  29 2.11  37 2.12  38 2.14  22 2.14  35 2.16
  68  0.750  0.500  0.651-  30 2.13  38 2.14  37 2.14  21 2.14  36 2.15
  69  0.500  0.500  0.550-  27 2.13  37 2.13  36 2.14  20 2.14  35 2.14  33 2.14
  70  0.750  0.250  0.550-  38 2.13  28 2.14  35 2.14  19 2.14  36 2.14  34 2.14


IMPORTANT INFORMATION: All symmetrisations will be switched off!
NOSYMM: (Re-)initialisation of all symmetry stuff for point group C_1.


----------------------------------------------------------------------------------------

                                     Primitive cell                                     

  volume of cell :    1563.6717

  direct lattice vectors                    reciprocal lattice vectors
     8.546113626  0.000000000  0.000000000     0.117012252  0.000000000  0.000000000
     0.000000000  8.546113626  0.000000000     0.000000000  0.117012252  0.000000000
     0.000000000  0.000000000 21.409585219     0.000000000  0.000000000  0.046708051

  length of vectors
     8.546113626  8.546113626 21.409585219     0.117012252  0.117012252  0.046708051

  position of ions in fractional coordinates (direct lattice)
     0.499989942  0.894052976  0.811679464
     0.499997310  0.739228201  0.784741577
     0.499999916  0.880007229  0.862469816
     0.499998661  0.749794588  0.738652675
     0.605092039  0.961094170  0.798241094
     0.394918799  0.961093062  0.798241744
     0.000000000  0.750000000  0.350310383
     0.250000000  0.000000000  0.350310383
     0.000000000  0.000000000  0.450103461
     0.250000000  0.750000000  0.450103461
     0.000000096  0.749859378  0.550346459
     0.249781026  0.999919635  0.550389822
     0.000000153  0.000277636  0.649646860
     0.247883566  0.749604077  0.649781973
     0.000000000  0.250000000  0.350310383
     0.250000000  0.500000000  0.350310383
     0.000000000  0.500000000  0.450103461
     0.250000000  0.250000000  0.450103461
     0.000000133  0.250061453  0.550306886
     0.249949208  0.499944005  0.550459814
     0.000000068  0.499561362  0.649765794
     0.249550060  0.250135440  0.649652008
     0.500000000  0.750000000  0.350310383
     0.750000000  0.000000000  0.350310383
     0.500000000  0.000000000  0.450103461
     0.750000000  0.750000000  0.450103461
     0.499999979  0.749811169  0.550346285
     0.750219085  0.999919627  0.550389788
     0.499999980  0.002666948  0.648890348
     0.752116574  0.749603982  0.649781860
     0.500000000  0.250000000  0.350310383
     0.750000000  0.500000000  0.350310383
     0.500000000  0.500000000  0.450103461
     0.750000000  0.250000000  0.450103461
     0.499999997  0.250245766  0.550223914
     0.750050906  0.499943992  0.550459821
     0.500000071  0.497670550  0.649884902
     0.750450132  0.250135502  0.649651949
     0.000000000  0.750000000  0.450103461
     0.250000000  0.000000000  0.450103461
     0.000000000  0.000000000  0.350310383
     0.250000000  0.750000000  0.350310383
     0.000000038  0.749968265  0.651144797
     0.250218921  0.999822933  0.651310697
     0.000000013  0.999900651  0.550075621
     0.250436298  0.750046697  0.550226596
     0.000000000  0.250000000  0.450103461
     0.250000000  0.500000000  0.450103461
     0.000000000  0.500000000  0.350310383
     0.250000000  0.250000000  0.350310383
     0.000000076  0.249920671  0.651210707
     0.250136036  0.499948856  0.650958957
     0.000000027  0.500010241  0.550022968
     0.250018062  0.249835329  0.550011410
     0.500000000  0.750000000  0.450103461
     0.750000000  0.000000000  0.450103461
     0.500000000  0.000000000  0.350310383
     0.750000000  0.750000000  0.350310383
     0.500000153  0.750639251  0.652709606
     0.749781230  0.999822901  0.651310722
     0.500000100  0.999593868  0.550108019
     0.749563785  0.750046699  0.550226614
     0.500000000  0.250000000  0.450103461
     0.750000000  0.500000000  0.450103461
     0.500000000  0.500000000  0.350310383
     0.750000000  0.250000000  0.350310383
     0.500000135  0.249834923  0.651020306
     0.749864129  0.499948870  0.650958978
     0.500000093  0.500452677  0.550232196
     0.749982079  0.249835315  0.550011453

  ion indices of the primitive-cell ions
   primitive index   ion index
                 1           1
                 2           2
                 3           3
                 4           4
                 5           5
                 6           6
                 7           7
                 8           8
                 9           9
                10          10
                11          11
                12          12
                13          13
                14          14
                15          15
                16          16
                17          17
                18          18
                19          19
                20          20
                21          21
                22          22
                23          23
                24          24
                25          25
                26          26
                27          27
                28          28
                29          29
                30          30
                31          31
                32          32
                33          33
                34          34
                35          35
                36          36
                37          37
                38          38
                39          39
                40          40
                41          41
                42          42
                43          43
                44          44
                45          45
                46          46
                47          47
                48          48
                49          49
                50          50
                51          51
                52          52
                53          53
                54          54
                55          55
                56          56
                57          57
                58          58
                59          59
                60          60
                61          61
                62          62
                63          63
                64          64
                65          65
                66          66
                67          67
                68          68
                69          69
                70          70

----------------------------------------------------------------------------------------



 KPOINTS: pymatgen v2020.8.13 with grid density = 

Automatic generation of k-mesh.
 Grid dimensions read from file:
 generate k-points for:    2    2    1

 Generating k-lattice:

  Cartesian coordinates                     Fractional coordinates (reciprocal lattice)
     0.058506126  0.000000000  0.000000000     0.500000000  0.000000000  0.000000000
     0.000000000  0.058506126  0.000000000     0.000000000  0.500000000  0.000000000
     0.000000000  0.000000000  0.046708051     0.000000000  0.000000000  1.000000000

  Length of vectors
     0.058506126  0.058506126  0.046708051

  Shift w.r.t. Gamma in fractional coordinates (k-lattice)
     0.000000000  0.000000000  0.000000000

 
 Subroutine IBZKPT returns following result:
 ===========================================
 
 Found      4 irreducible k-points:
 
 Following reciprocal coordinates:
            Coordinates               Weight
  0.000000  0.000000  0.000000      1.000000
  0.500000  0.000000  0.000000      1.000000
  0.000000  0.500000  0.000000      1.000000
  0.500000  0.500000  0.000000      1.000000
 
 Following cartesian coordinates:
            Coordinates               Weight
  0.000000  0.000000  0.000000      1.000000
  0.058506  0.000000  0.000000      1.000000
  0.000000  0.058506  0.000000      1.000000
  0.058506  0.058506  0.000000      1.000000
 


--------------------------------------------------------------------------------------------------------




 Dimension of arrays:
   k-points           NKPTS =      4   k-points in BZ     NKDIM =      4   number of bands    NBANDS=    320
   number of dos      NEDOS =    301   number of ions     NIONS =     70
   non local maximal  LDIM  =      5   non local SUM 2l+1 LMDIM =     13
   total plane-waves  NPLWV = 882000
   max r-space proj   IRMAX =      1   max aug-charges    IRDMAX=  11315
   dimension x,y,z NGX =    70 NGY =   70 NGZ =  180
   dimension x,y,z NGXF=   140 NGYF=  140 NGZF=  360
   support grid    NGXF=   140 NGYF=  140 NGZF=  360
   ions per type =               1   1   4  32  32
   NGX,Y,Z   is equivalent  to a cutoff of  13.62, 13.62, 13.98 a.u.
   NGXF,Y,Z  is equivalent  to a cutoff of  27.23, 27.23, 27.95 a.u.

 SYSTEM =  MgO-rocksalt                            
 POSCAR =   C  O  H Mg  O                          

--------------------------------------------------------------------------------------------------------


  energy-cutoff  :      600.00
  volume of cell :     1563.67
      direct lattice vectors                 reciprocal lattice vectors
     8.546113626  0.000000000  0.000000000     0.117012252  0.000000000  0.000000000
     0.000000000  8.546113626  0.000000000     0.000000000  0.117012252  0.000000000
     0.000000000  0.000000000 21.409585219     0.000000000  0.000000000  0.046708051

  length of vectors
     8.546113626  8.546113626 21.409585219     0.117012252  0.117012252  0.046708051



 k-points in units of 2pi/SCALE and weight: pymatgen v2020.8.13 with grid density = 
   0.00000000  0.00000000  0.00000000       0.250
   0.05850613  0.00000000  0.00000000       0.250
   0.00000000  0.05850613  0.00000000       0.250
   0.05850613  0.05850613  0.00000000       0.250

 k-points in reciprocal lattice and weights: pymatgen v2020.8.13 with grid density = 
   0.00000000  0.00000000  0.00000000       0.250
   0.50000000  0.00000000  0.00000000       0.250
   0.00000000  0.50000000  0.00000000       0.250
   0.50000000  0.50000000  0.00000000       0.250

 position of ions in fractional coordinates (direct lattice) 
   0.49998994  0.89405298  0.81167946
   0.49999731  0.73922820  0.78474158
   0.49999992  0.88000723  0.86246982
   0.49999866  0.74979459  0.73865267
   0.60509204  0.96109417  0.79824109
   0.39491880  0.96109306  0.79824174
   0.00000000  0.75000000  0.35031038
   0.25000000  0.00000000  0.35031038
   0.00000000  0.00000000  0.45010346
   0.25000000  0.75000000  0.45010346
   0.00000010  0.74985938  0.55034646
   0.24978103  0.99991963  0.55038982
   0.00000015  0.00027764  0.64964686
   0.24788357  0.74960408  0.64978197
   0.00000000  0.25000000  0.35031038
   0.25000000  0.50000000  0.35031038
   0.00000000  0.50000000  0.45010346
   0.25000000  0.25000000  0.45010346
   0.00000013  0.25006145  0.55030689
   0.24994921  0.49994400  0.55045981
   0.00000007  0.49956136  0.64976579
   0.24955006  0.25013544  0.64965201
   0.50000000  0.75000000  0.35031038
   0.75000000  0.00000000  0.35031038
   0.50000000  0.00000000  0.45010346
   0.75000000  0.75000000  0.45010346
   0.49999998  0.74981117  0.55034629
   0.75021909  0.99991963  0.55038979
   0.49999998  0.00266695  0.64889035
   0.75211657  0.74960398  0.64978186
   0.50000000  0.25000000  0.35031038
   0.75000000  0.50000000  0.35031038
   0.50000000  0.50000000  0.45010346
   0.75000000  0.25000000  0.45010346
   0.50000000  0.25024577  0.55022391
   0.75005091  0.49994399  0.55045982
   0.50000007  0.49767055  0.64988490
   0.75045013  0.25013550  0.64965195
   0.00000000  0.75000000  0.45010346
   0.25000000  0.00000000  0.45010346
   0.00000000  0.00000000  0.35031038
   0.25000000  0.75000000  0.35031038
   0.00000004  0.74996827  0.65114480
   0.25021892  0.99982293  0.65131070
   0.00000001  0.99990065  0.55007562
   0.25043630  0.75004670  0.55022660
   0.00000000  0.25000000  0.45010346
   0.25000000  0.50000000  0.45010346
   0.00000000  0.50000000  0.35031038
   0.25000000  0.25000000  0.35031038
   0.00000008  0.24992067  0.65121071
   0.25013604  0.49994886  0.65095896
   0.00000003  0.50001024  0.55002297
   0.25001806  0.24983533  0.55001141
   0.50000000  0.75000000  0.45010346
   0.75000000  0.00000000  0.45010346
   0.50000000  0.00000000  0.35031038
   0.75000000  0.75000000  0.35031038
   0.50000015  0.75063925  0.65270961
   0.74978123  0.99982290  0.65131072
   0.50000010  0.99959387  0.55010802
   0.74956378  0.75004670  0.55022661
   0.50000000  0.25000000  0.45010346
   0.75000000  0.50000000  0.45010346
   0.50000000  0.50000000  0.35031038
   0.75000000  0.25000000  0.35031038
   0.50000014  0.24983492  0.65102031
   0.74986413  0.49994887  0.65095898
   0.50000009  0.50045268  0.55023220
   0.74998208  0.24983531  0.55001145

 position of ions in cartesian coordinates  (Angst):
   4.27297086  7.64067832 17.37772065
   4.27303382  6.31752820 16.80099167
   4.27305609  7.52064177 18.46512103
   4.27304537  6.40782974 15.81424738
   5.17118532  8.21361998 17.09001074
   3.37502093  8.21361051 17.09002465
   0.00000000  6.40958522  7.50000000
   2.13652841  0.00000000  7.50000000
   0.00000000  0.00000000  9.63652841
   2.13652841  6.40958522  9.63652841
   0.00000082  6.40838345 11.78268940
   2.13465703  8.54542682 11.78361780
   0.00000131  0.00237271 13.90866981
   2.11844112  6.40620161 13.91156252
   0.00000000  2.13652841  7.50000000
   2.13652841  4.27305681  7.50000000
   0.00000000  4.27305681  9.63652841
   2.13652841  2.13652841  9.63652841
   0.00000114  2.13705359 11.78184217
   2.13609433  4.27257827 11.78511630
   0.00000058  4.26930816 13.91121614
   2.13268317  2.13768589 13.90878003
   4.27305681  6.40958522  7.50000000
   6.40958522  0.00000000  7.50000000
   4.27305681  0.00000000  9.63652841
   6.40958522  6.40958522  9.63652841
   4.27305663  6.40797145 11.78268570
   6.41145755  8.54542675 11.78361707
   4.27305664  0.02279204 13.89247320
   6.42767370  6.40620080 13.91156010
   4.27305681  2.13652841  7.50000000
   6.40958522  4.27305681  7.50000000
   4.27305681  4.27305681  9.63652841
   6.40958522  2.13652841  9.63652841
   4.27305678  2.13862875 11.78006577
   6.41002027  4.27257817 11.78511644
   4.27305742  4.25314907 13.91376620
   6.41343210  2.13768643 13.90877876
   0.00000000  6.40958522  9.63652841
   2.13652841  0.00000000  9.63652841
   0.00000000  0.00000000  7.50000000
   2.13652841  6.40958522  7.50000000
   0.00000032  6.40931401 13.94074001
   2.13839933  8.54460039 13.94429188
   0.00000011  8.54526458 11.77689089
   2.14025706  6.40998430 11.78012319
   0.00000000  2.13652841  9.63652841
   2.13652841  4.27305681  9.63652841
   0.00000000  4.27305681  7.50000000
   2.13652841  2.13652841  7.50000000
   0.00000065  2.13585045 13.94215112
   2.13769099  4.27261973 13.93676126
   0.00000023  4.27314434 11.77576361
   2.13668277  2.13512111 11.77551616
   4.27305681  6.40958522  9.63652841
   6.40958522  0.00000000  9.63652841
   4.27305681  0.00000000  7.50000000
   6.40958522  6.40958522  7.50000000
   4.27305812  6.41504833 13.97424193
   6.40771559  8.54460012 13.94429241
   4.27305767  8.54264278 11.77758452
   6.40585728  6.40998432 11.78012358
   4.27305681  2.13652841  9.63652841
   6.40958522  4.27305681  9.63652841
   4.27305681  4.27305681  7.50000000
   6.40958522  2.13652841  7.50000000
   4.27305797  2.13511764 13.93807473
   6.40842405  4.27261985 13.93676172
   4.27305761  4.27692544 11.78024309
   6.40943206  2.13512099 11.77551706



--------------------------------------------------------------------------------------------------------

--------------------------------------- Iteration      FINAL  ---------------------------------------


--------------------OUTCAR has been truncated-------------------------


--------------------OUTCAR has been truncated-------------------------


--------------------OUTCAR has been truncated-------------------------


--------------------OUTCAR has been truncated-------------------------


--------------------OUTCAR has been truncated-------------------------


--------------------OUTCAR has been truncated-------------------------


--------------------OUTCAR has been truncated-------------------------


--------------------OUTCAR has been truncated-------------------------


--------------------OUTCAR has been truncated-------------------------


--------------------OUTCAR has been truncated-------------------------



  FORCE on cell =-STRESS in cart. coord.  units (eV):
  Direction    XX          YY          ZZ          XY          YZ          ZX
  --------------------------------------------------------------------------------------
  Alpha Z   893.08759   893.08759   893.08759
  Ewald  151725.91836151966.61461************    -0.01573   100.36285     0.00184
  Hartree162187.47574162334.01034************    -0.00266    60.30232    -0.00134
  E(xc)   -2519.44750 -2518.98664 -2526.34422    -0.00001     0.14890    -0.00001
  Local  ************************323200.85472     0.01430  -155.45200     0.00089
  n-local -2837.99675 -2835.05820 -2857.51673     0.00014     1.59201    -0.00022
  augment  1054.86183  1053.26397  1043.95625     0.00012    -0.52543     0.00004
  Kinetic  7536.93399  7517.74290  7553.82239     0.00137    -6.63815     0.00020
  Fock        0.00000     0.00000     0.00000     0.00000     0.00000     0.00000
  vdW       -20.58061   -20.62083   -16.21289     0.00001    -0.03471    -0.00000
  -------------------------------------------------------------------------------------
  Total     -46.22828   -46.52882   -15.95030    -0.00247    -0.24419     0.00139
  in kB     -47.36666   -47.67460   -16.34308    -0.00253    -0.25020     0.00142
  external pressure =      -37.13 kB  Pullay stress =        0.00 kB


 VOLUME and BASIS-vectors are now :
 -----------------------------------------------------------------------------
  energy-cutoff  :      600.00
  volume of cell :     1563.67
      direct lattice vectors                 reciprocal lattice vectors
     8.546113626  0.000000000  0.000000000     0.117012252  0.000000000  0.000000000
     0.000000000  8.546113626  0.000000000     0.000000000  0.117012252  0.000000000
     0.000000000  0.000000000 21.409585219     0.000000000  0.000000000  0.046708051

  length of vectors
     8.546113626  8.546113626 21.409585219     0.117012252  0.117012252  0.046708051


 FORCES acting on ions:
    Electron-Ion                     Ewald-Force                    Non-Local-Force
 -----------------------------------------------------------------------------------------------
   0.188E-02 -.109E+03 -.891E+03   0.897E-03 0.114E+03 0.893E+03   0.354E-02 -.460E+01 -.246E+01
   -.370E-02 0.162E+03 -.141E+04   0.547E-02 -.200E+03 0.143E+04   -.222E-02 0.374E+02 -.219E+02
   -.371E-02 -.389E+01 -.222E+03   0.394E-02 0.325E+01 0.228E+03   -.564E-03 0.634E+00 -.571E+01
   -.136E-02 0.493E+01 -.195E+03   0.145E-02 -.448E+01 0.187E+03   -.112E-03 -.410E+00 0.769E+01
   -.486E+02 -.408E+02 -.214E+03   0.532E+02 0.437E+02 0.212E+03   -.451E+01 -.286E+01 0.138E+01
   0.486E+02 -.408E+02 -.214E+03   -.532E+02 0.437E+02 0.212E+03   0.451E+01 -.286E+01 0.138E+01
   0.785E-05 0.102E+00 0.202E+04   -.105E-04 -.103E+00 -.201E+04   0.259E-05 0.882E-03 -.708E+01
   0.261E+00 -.152E+00 0.202E+04   -.264E+00 0.153E+00 -.201E+04   0.193E-02 -.224E-03 -.709E+01
   0.160E-04 -.523E+00 0.706E+03   -.143E-04 0.541E+00 -.707E+03   -.162E-05 -.127E-01 0.460E+00
   0.124E+01 0.457E+00 0.707E+03   -.122E+01 -.463E+00 -.708E+03   -.162E-01 0.369E-02 0.527E+00
   0.163E-03 0.110E+01 -.599E+03   -.168E-03 -.112E+01 0.600E+03   0.192E-05 0.282E-01 -.406E+00
   0.551E+01 -.381E+01 -.597E+03   -.558E+01 0.383E+01 0.598E+03   0.701E-01 -.876E-02 -.387E+00
   0.739E-03 -.111E+02 -.192E+04   -.826E-03 0.113E+02 0.191E+04   0.558E-04 -.110E+00 0.635E+01
   0.343E+02 0.744E+01 -.188E+04   -.352E+02 -.752E+01 0.187E+04   0.803E+00 0.794E-01 0.634E+01
   0.157E-04 -.101E+00 0.202E+04   -.134E-04 0.102E+00 -.201E+04   0.407E-05 -.737E-03 -.710E+01
   0.241E+00 0.151E+00 0.202E+04   -.243E+00 -.152E+00 -.201E+04   0.116E-02 0.487E-03 -.710E+01
   0.462E-04 0.505E+00 0.706E+03   -.492E-04 -.525E+00 -.706E+03   0.308E-05 0.147E-01 0.423E+00
   0.920E+00 -.452E+00 0.707E+03   -.950E+00 0.453E+00 -.707E+03   0.218E-01 -.163E-04 0.426E+00
   0.198E-03 -.103E+01 -.606E+03   -.207E-03 0.105E+01 0.606E+03   0.277E-05 -.300E-01 -.346E+00
   0.446E+01 0.376E+01 -.600E+03   -.449E+01 -.377E+01 0.600E+03   0.241E-01 0.937E-02 -.582E+00
   0.265E-03 0.108E+02 -.193E+04   -.269E-03 -.109E+02 0.192E+04   -.975E-08 0.123E+00 0.635E+01
   0.153E+02 -.660E+01 -.192E+04   -.155E+02 0.668E+01 0.192E+04   0.142E+00 -.803E-01 0.635E+01
   -.116E-04 0.123E+00 0.202E+04   0.107E-04 -.125E+00 -.202E+04   -.553E-06 0.144E-02 -.709E+01
   -.261E+00 -.152E+00 0.202E+04   0.264E+00 0.153E+00 -.201E+04   -.193E-02 -.223E-03 -.709E+01
   -.795E-05 -.832E+00 0.708E+03   0.110E-04 0.804E+00 -.709E+03   -.705E-06 0.216E-01 0.513E+00
   -.124E+01 0.457E+00 0.707E+03   0.122E+01 -.463E+00 -.708E+03   0.162E-01 0.369E-02 0.527E+00
   -.193E-03 0.230E+01 -.592E+03   0.198E-03 -.235E+01 0.592E+03   -.609E-07 0.578E-01 0.558E+00
   -.551E+01 -.381E+01 -.597E+03   0.558E+01 0.383E+01 0.598E+03   -.701E-01 -.876E-02 -.387E+00
   -.976E-03 -.299E+02 -.185E+04   0.109E-02 0.308E+02 0.185E+04   -.638E-04 -.880E+00 0.641E+01
   -.343E+02 0.744E+01 -.188E+04   0.352E+02 -.752E+01 0.187E+04   -.803E+00 0.794E-01 0.634E+01
   -.100E-04 -.122E+00 0.202E+04   0.134E-04 0.124E+00 -.201E+04   -.161E-05 -.161E-02 -.707E+01
   -.241E+00 0.151E+00 0.202E+04   0.243E+00 -.152E+00 -.201E+04   -.116E-02 0.484E-03 -.710E+01
   -.371E-04 0.819E+00 0.707E+03   0.440E-04 -.786E+00 -.708E+03   -.514E-05 -.244E-01 0.530E+00
   -.920E+00 -.452E+00 0.707E+03   0.950E+00 0.453E+00 -.707E+03   -.218E-01 -.187E-04 0.426E+00
   -.231E-03 -.221E+01 -.596E+03   0.237E-03 0.227E+01 0.596E+03   0.292E-05 -.611E-01 -.379E+00
   -.446E+01 0.376E+01 -.600E+03   0.449E+01 -.377E+01 0.600E+03   -.240E-01 0.938E-02 -.582E+00
   -.468E-03 0.283E+02 -.189E+04   0.465E-03 -.292E+02 0.188E+04   0.309E-05 0.934E+00 0.639E+01
   -.153E+02 -.660E+01 -.192E+04   0.155E+02 0.668E+01 0.192E+04   -.142E+00 -.802E-01 0.635E+01
   0.445E-04 0.219E+00 0.530E+03   -.504E-04 -.221E+00 -.530E+03   0.633E-05 0.358E-02 -.562E-01
   0.752E+00 -.434E+00 0.530E+03   -.757E+00 0.451E+00 -.530E+03   0.787E-02 -.250E-01 -.101E+00
   0.881E-05 -.103E+00 0.152E+04   -.650E-05 0.106E+00 -.152E+04   0.234E-07 -.461E-02 0.343E+01
   0.203E+00 0.855E-01 0.152E+04   -.203E+00 -.867E-01 -.152E+04   -.413E-03 0.163E-02 0.343E+01
   0.445E-03 0.333E+01 -.145E+04   -.473E-03 -.334E+01 0.146E+04   0.398E-04 0.308E-02 -.482E+01
   0.224E+02 -.157E+02 -.144E+04   -.224E+02 0.157E+02 0.144E+04   -.277E-01 0.569E-01 -.486E+01
   0.727E-04 -.235E+01 -.447E+03   -.903E-04 0.237E+01 0.447E+03   0.299E-04 -.274E-01 0.219E+00
   0.407E+01 0.127E+01 -.442E+03   -.412E+01 -.129E+01 0.442E+03   0.584E-01 0.203E-01 0.280E+00
   0.645E-04 -.218E+00 0.529E+03   -.739E-04 0.224E+00 -.529E+03   0.843E-05 -.849E-02 -.104E+00
   0.642E+00 0.414E+00 0.529E+03   -.657E+00 -.424E+00 -.529E+03   0.226E-01 0.146E-01 -.119E+00
   0.778E-05 0.102E+00 0.152E+04   -.961E-05 -.106E+00 -.152E+04   0.143E-05 0.448E-02 0.343E+01
   0.178E+00 -.846E-01 0.152E+04   -.183E+00 0.861E-01 -.152E+04   0.692E-02 -.206E-02 0.343E+01
   0.211E-03 -.312E+01 -.146E+04   -.235E-03 0.312E+01 0.147E+04   0.357E-04 -.311E-02 -.475E+01
   0.165E+02 0.151E+02 -.145E+04   -.165E+02 -.151E+02 0.145E+04   -.230E-01 -.303E-01 -.490E+01
   0.247E-04 0.229E+01 -.449E+03   -.268E-04 -.231E+01 0.448E+03   0.743E-05 0.243E-01 0.168E+00
   0.321E+01 -.119E+01 -.447E+03   -.322E+01 0.120E+01 0.447E+03   0.164E-01 -.899E-02 0.195E+00
   -.420E-04 0.346E+00 0.531E+03   0.437E-04 -.343E+00 -.531E+03   -.247E-05 -.355E-02 -.747E-01
   -.752E+00 -.434E+00 0.530E+03   0.757E+00 0.451E+00 -.530E+03   -.786E-02 -.250E-01 -.101E+00
   -.616E-05 -.128E+00 0.152E+04   0.665E-05 0.126E+00 -.152E+04   0.219E-05 0.295E-02 0.344E+01
   -.203E+00 0.855E-01 0.152E+04   0.203E+00 -.867E-01 -.152E+04   0.413E-03 0.163E-02 0.343E+01
   -.932E-03 0.100E+02 -.137E+04   0.959E-03 -.101E+02 0.138E+04   -.375E-04 0.406E-01 -.230E+01
   -.224E+02 -.157E+02 -.144E+04   0.224E+02 0.157E+02 0.144E+04   0.278E-01 0.569E-01 -.486E+01
   -.989E-04 -.303E+01 -.437E+03   0.123E-03 0.307E+01 0.436E+03   -.355E-04 -.470E-01 0.509E+00
   -.407E+01 0.127E+01 -.442E+03   0.412E+01 -.129E+01 0.442E+03   -.584E-01 0.203E-01 0.280E+00
   -.559E-04 -.333E+00 0.530E+03   0.589E-04 0.324E+00 -.530E+03   -.766E-06 0.110E-01 -.280E-01
   -.642E+00 0.414E+00 0.529E+03   0.657E+00 -.424E+00 -.529E+03   -.226E-01 0.146E-01 -.119E+00
   -.143E-04 0.127E+00 0.152E+04   0.973E-05 -.125E+00 -.152E+04   0.605E-06 -.254E-02 0.343E+01
   -.178E+00 -.846E-01 0.152E+04   0.183E+00 0.861E-01 -.152E+04   -.692E-02 -.206E-02 0.343E+01
   -.235E-03 -.870E+01 -.145E+04   0.279E-03 0.875E+01 0.145E+04   -.595E-04 -.469E-01 -.486E+01
   -.165E+02 0.151E+02 -.145E+04   0.165E+02 -.151E+02 0.145E+04   0.230E-01 -.303E-01 -.490E+01
   -.404E-04 0.298E+01 -.443E+03   0.482E-04 -.303E+01 0.443E+03   -.146E-04 0.556E-01 0.237E+00
   -.321E+01 -.119E+01 -.447E+03   0.322E+01 0.120E+01 0.447E+03   -.164E-01 -.897E-02 0.195E+00
 -----------------------------------------------------------------------------------------------
   -.301E-02 -.275E+02 0.316E+02   -.103E-12 -.192E-12 -.722E-11   0.301E-02 0.275E+02 -.316E+02


 POSITION                                       TOTAL-FORCE (eV/Angst)
 -----------------------------------------------------------------------------------
      4.27297      7.64068     17.37772         0.006264     -0.361874     -0.278106
      4.27303      6.31753     16.80099        -0.000445      0.208016      0.158047
      4.27306      7.52064     18.46512        -0.000330     -0.003111      0.111701
      4.27305      6.40783     15.81425        -0.000022      0.044044     -0.181945
      5.17119      8.21362     17.09001         0.047856      0.050470     -0.017364
      3.37502      8.21361     17.09002        -0.053341      0.053268     -0.018980
      0.00000      6.40959      7.50000        -0.000000     -0.000318      0.500202
      2.13653      0.00000      7.50000        -0.000768      0.000199      0.502811
      0.00000      0.00000      9.63653         0.000000      0.004656      0.051454
      2.13653      6.40959      9.63653         0.004161     -0.002310      0.051975
      0.00000      6.40838     11.78269        -0.000002     -0.000254     -0.032091
      2.13466      8.54543     11.78362        -0.002311      0.004801     -0.026210
      0.00000      0.00237     13.90867        -0.000031      0.000820     -0.179642
      2.11844      6.40620     13.91156         0.011894      0.003924     -0.148370
      0.00000      2.13653      7.50000         0.000006      0.000340      0.504913
      2.13653      4.27306      7.50000        -0.000554     -0.000284      0.503328
      0.00000      4.27306      9.63653         0.000000     -0.005451      0.056054
      2.13653      2.13653      9.63653        -0.008168      0.000078      0.053772
      0.00000      2.13705     11.78184        -0.000006     -0.000674     -0.024412
      2.13609      4.27258     11.78512        -0.002299     -0.002496     -0.027285
      0.00000      4.26931     13.91122        -0.000004      0.000083     -0.183743
      2.13268      2.13769     13.90878         0.002655     -0.001541     -0.179972
      4.27306      6.40959      7.50000        -0.000002     -0.000464      0.502021
      6.40959      0.00000      7.50000         0.000767      0.000202      0.502813
      4.27306      0.00000      9.63653         0.000002     -0.006086      0.047768
      6.40959      6.40959      9.63653        -0.004166     -0.002311      0.051977
      4.27306      6.40797     11.78269         0.000005      0.001066     -0.042320
      6.41146      8.54543     11.78362         0.002310      0.004806     -0.026190
      4.27306      0.02279     13.89247         0.000046     -0.014593     -0.124339
      6.42767      6.40620     13.91156        -0.011898      0.003961     -0.148361
      4.27306      2.13653      7.50000         0.000002      0.000581      0.499078
      6.40959      4.27306      7.50000         0.000551     -0.000285      0.503328
      4.27306      4.27306      9.63653         0.000002      0.007941      0.049868
      6.40959      2.13653      9.63653         0.008169      0.000080      0.053776
      4.27306      2.13863     11.78007         0.000009      0.002045     -0.030095
      6.41002      4.27258     11.78512         0.002299     -0.002494     -0.027287
      4.27306      4.25315     13.91377         0.000000      0.008803     -0.157293
      6.41343      2.13769     13.90878        -0.002666     -0.001570     -0.179947
      0.00000      6.40959      9.63653         0.000001      0.001613      0.060871
      2.13653      0.00000      9.63653         0.003313     -0.007182      0.050906
      0.00000      0.00000      7.50000         0.000002     -0.001270     -0.348471
      2.13653      6.40959      7.50000        -0.000158      0.000461     -0.347481
      0.00000      6.40931     13.94074         0.000012      0.000979     -0.047104
      2.13840      8.54460     13.94429        -0.000210      0.001318     -0.045326
      0.00000      8.54526     11.77689         0.000012     -0.005639     -0.010899
      2.14026      6.40998     11.78012         0.003560      0.001140     -0.001202
      0.00000      2.13653      9.63653        -0.000001     -0.002806      0.041711
      2.13653      4.27306      9.63653         0.006936      0.004686      0.052649
      0.00000      4.27306      7.50000        -0.000000      0.001270     -0.348863
      2.13653      2.13653      7.50000         0.001935     -0.000545     -0.348361
      0.00000      2.13585     13.94215         0.000012     -0.003874     -0.037367
      2.13769      4.27262     13.93676         0.000862      0.002034     -0.047974
      0.00000      4.27314     11.77576         0.000005      0.005942     -0.008483
      2.13668      2.13512     11.77552         0.006771      0.000088     -0.007254
      4.27306      6.40959      9.63653        -0.000001     -0.000276      0.053300
      6.40959      0.00000      9.63653        -0.003314     -0.007183      0.050902
      4.27306      0.00000      7.50000         0.000003      0.000892     -0.346643
      6.40959      6.40959      7.50000         0.000159      0.000460     -0.347483
      4.27306      6.41505     13.97424        -0.000011     -0.003243      0.057687
      6.40772      8.54460     13.94429         0.000227      0.001323     -0.045375
      4.27306      8.54264     11.77758        -0.000011     -0.002141     -0.005142
      6.40586      6.40998     11.78012        -0.003557      0.001133     -0.001212
      4.27306      2.13653      9.63653         0.000002      0.002207      0.057335
      6.40959      4.27306      9.63653        -0.006932      0.004684      0.052647
      4.27306      4.27306      7.50000        -0.000004     -0.000737     -0.347360
      6.40959      2.13653      7.50000        -0.001937     -0.000548     -0.348359
      4.27306      2.13512     13.93807        -0.000016      0.004607     -0.049458
      6.40842      4.27262     13.93676        -0.000861      0.002035     -0.047972
      4.27306      4.27693     11.78024        -0.000007      0.004413     -0.003891
      6.40943      2.13512     11.77552        -0.006775      0.000094     -0.007268
 -----------------------------------------------------------------------------------
    total drift:                                0.000000     -0.001248      0.009083


--------------------------------------------------------------------------------------------------------



  FREE ENERGIE OF THE ION-ELECTRON SYSTEM (eV)
  ---------------------------------------------------
  free  energy   TOTEN  =      -401.07660278 eV

  energy  without entropy=     -401.07660278  energy(sigma->0) =     -401.07660278



--------------------------------------------------------------------------------------------------------


    POTLOK:  cpu time      0.2630: real time      0.2630


--------------------------------------------------------------------------------------------------------


     LOOP+:  cpu time     69.8728: real time     70.0191
    4ORBIT:  cpu time      0.0000: real time      0.0000

 total amount of memory used by VASP MPI-rank0    71139. kBytes
=======================================================================

   base      :      30000. kBytes
   nonl-proj :      21094. kBytes
   fftplans  :       4926. kBytes
   grid      :       8596. kBytes
   one-center:         73. kBytes
   wavefun   :       6450. kBytes

  
  
 General timing and accounting informations for this job:
 ========================================================
  
                  Total CPU time used (sec):      103.523
                            User time (sec):      101.975
                          System time (sec):        1.548
                         Elapsed time (sec):      112.564
  
                   Maximum memory used (kb):      167260.
                   Average memory used (kb):          N/A
  
                          Minor page faults:        33321
                          Major page faults:            0
                 Voluntary context switches:        12268
