 vasp.6.3.0 20Jan22 (build Apr  1 2022 16:44:48) complex                         
 executed on        HPECrayEX_GCC date 2022.11.01  21:16:57
 running  512 mpi-ranks, with    1 threads/rank
 distrk:  each k-point on  512 cores,    1 groups
 distr:  one band on NCORE=   8 cores,   64 groups


--------------------------------------------------------------------------------------------------------


 INCAR:
   SYSTEM = MgO-rocksalt
   ISMEAR = 0
   SIGMA = 0.05
   EDIFF = 1E-9
   ALGO = ALL
   ISTART = 0
   IBRION = 2
   NSW = 1000
   ISYM = 0
   ISIF = 2
   EDIFFG = -0.01
   DIPOL = 0.5 0.5 0.5
   IDIPOL = 3
   LDIPOL = .TRUE.
   GGA = RE
   IVDW = 13
   VDW_S8 = 1.7468
   VDW_A1 = 0.5363
   VDW_A2 = 3.0726
   ENCUT = 600
   PREC = Accurate
   LASPH = .TRUE.
   LREAL = .FALSE.
   ISPIN = 2
   MAGMOM = 1.0 0.0 0.0 0.0 0.0 0.0 0.0 0.0 0.0 0.0 0.0 0.0 0.0 0.0 0.0 0.0 0.0 0.0 0.0 0.0 0.0 0.0 0.0 0.0 0.0 0.0 0.0 0.0 0.0 0.0 0.0 0.0 0.0 0.0 0.0 0.0 0.0 0.0 0.0 0.0 0.0 0.0 0.0 0.0 0.0 0.0 0.0 0.0 0.0 0.0 0.0 0.0 0.0 0.0 0.0 0.0 0.0 0.0 0.0 0.0 0.0 0.0 0.0 0.0 0.0 0.0
   NELM = 200
   NELMIN = 8
   NCORE = 8
   KPAR = 1
   LWAVE = .FALSE.
   LCHARG = .FALSE.

 POTCAR:    PAW_PBE N 08Apr2002                   
 POTCAR:    PAW_PBE O 08Apr2002                   
 POTCAR:    PAW_PBE Mg_pv 13Apr2007               
 POTCAR:    PAW_PBE O 08Apr2002                   
 POTCAR:    PAW_PBE N 08Apr2002                   
   SHA256 =  e053789ff3a61a86a1b75d8a110fcc91f86041011e7b0817c7c99e4e8a6349d7 N/POTCAR              
   COPYR  = (c) Copyright 08Apr2002 Georg Kresse                                                    
   COPYR  = This file is part of the software VASP. Any use, copying, and all other rights are regul
   COPYR  = If you do not have a valid VASP license, you may not use, copy or distribute this file. 
   VRHFIN =N: s2p3                                                                                  
   LEXCH  = PE                                                                                      
   EATOM  =   264.5486 eV,   19.4438 Ry                                                             
                                                                                                    
   TITEL  = PAW_PBE N 08Apr2002                                                                     
   LULTRA =        F    use ultrasoft PP ?                                                          
   IUNSCR =        1    unscreen: 0-lin 1-nonlin 2-no                                               
   RPACOR =    1.200    partial core radius                                                         
   POMASS =   14.001; ZVAL   =    5.000    mass and valenz                                          
   RCORE  =    1.500    outmost cutoff radius                                                       
   RWIGS  =    1.400; RWIGS  =    0.741    wigner-seitz radius (au A)                               
   ENMAX  =  400.000; ENMIN  =  300.000 eV                                                          
   ICORE  =        2    local potential                                                             
   LCOR   =        T    correct aug charges                                                         
   LPAW   =        T    paw PP                                                                      
   EAUG   =  627.112                                                                                
   DEXC   =    0.000                                                                                
   RMAX   =    1.529    core radius for proj-oper                                                   
   RAUG   =    1.300    factor for augmentation sphere                                              
   RDEP   =    1.514    radius for radial grids                                                     
   RDEPT  =    1.338    core radius for aug-charge                                                  
                                                                                                    
   Atomic configuration                                                                             
    4 entries                                                                                       
     n  l   j            E        occ.                                                              
     1  0  0.50      -384.7179   2.0000                                                             
     2  0  0.50       -18.5828   2.0000                                                             
     2  1  0.50        -7.0898   3.0000                                                             
     3  2  1.50        -6.8029   0.0000                                                             
   Description                                                                                      
     l       E           TYP  RCUT    TYP  RCUT                                                     
     0    -18.5828119     23  1.200                                                                 
     0    -13.5018863     23  1.200                                                                 
     1     -7.0897853     23  1.500                                                                 
     1      9.5240782     23  1.500                                                                 
     2     -6.8029130      7  1.500                                                                 
  local pseudopotential read in
  partial core-charges read in
  partial kinetic energy density read in
  atomic valenz-charges read in
  non local Contribution for L=           0  read in
    real space projection operators read in
  non local Contribution for L=           0  read in
    real space projection operators read in
  non local Contribution for L=           1  read in
    real space projection operators read in
  non local Contribution for L=           1  read in
    real space projection operators read in
    PAW grid and wavefunctions read in

   number of l-projection  operators is LMAX  =           4
   number of lm-projection operators is LMMAX =           8

 POTCAR:    PAW_PBE O 08Apr2002                   
   SHA256 =  818f92134a0a090dccd8ba1447fa70422a3b330e708bb4f08108d8ae51209ddf O/POTCAR              
   COPYR  = (c) Copyright 08Apr2002 Georg Kresse                                                    
   COPYR  = This file is part of the software VASP. Any use, copying, and all other rights are regul
   COPYR  = If you do not have a valid VASP license, you may not use, copy or distribute this file. 
   VRHFIN =O: s2p4                                                                                  
   LEXCH  = PE                                                                                      
   EATOM  =   432.3788 eV,   31.7789 Ry                                                             
                                                                                                    
   TITEL  = PAW_PBE O 08Apr2002                                                                     
   LULTRA =        F    use ultrasoft PP ?                                                          
   IUNSCR =        1    unscreen: 0-lin 1-nonlin 2-no                                               
   RPACOR =    1.200    partial core radius                                                         
   POMASS =   16.000; ZVAL   =    6.000    mass and valenz                                          
   RCORE  =    1.520    outmost cutoff radius                                                       
   RWIGS  =    1.550; RWIGS  =    0.820    wigner-seitz radius (au A)                               
   ENMAX  =  400.000; ENMIN  =  300.000 eV                                                          
   ICORE  =        2    local potential                                                             
   LCOR   =        T    correct aug charges                                                         
   LPAW   =        T    paw PP                                                                      
   EAUG   =  605.392                                                                                
   DEXC   =    0.000                                                                                
   RMAX   =    1.553    core radius for proj-oper                                                   
   RAUG   =    1.300    factor for augmentation sphere                                              
   RDEP   =    1.550    radius for radial grids                                                     
   RDEPT  =    1.329    core radius for aug-charge                                                  
                                                                                                    
   Atomic configuration                                                                             
    4 entries                                                                                       
     n  l   j            E        occ.                                                              
     1  0  0.50      -514.6923   2.0000                                                             
     2  0  0.50       -23.9615   2.0000                                                             
     2  1  0.50        -9.0305   4.0000                                                             
     3  2  1.50        -9.5241   0.0000                                                             
   Description                                                                                      
     l       E           TYP  RCUT    TYP  RCUT                                                     
     0    -23.9615318     23  1.200                                                                 
     0     -9.5240782     23  1.200                                                                 
     1     -9.0304911     23  1.520                                                                 
     1      8.1634956     23  1.520                                                                 
     2     -9.5240782      7  1.500                                                                 
  local pseudopotential read in
  partial core-charges read in
  partial kinetic energy density read in
  kinetic energy density of atom read in
  atomic valenz-charges read in
  non local Contribution for L=           0  read in
    real space projection operators read in
  non local Contribution for L=           0  read in
    real space projection operators read in
  non local Contribution for L=           1  read in
    real space projection operators read in
  non local Contribution for L=           1  read in
    real space projection operators read in
    PAW grid and wavefunctions read in

   number of l-projection  operators is LMAX  =           4
   number of lm-projection operators is LMMAX =           8

 POTCAR:    PAW_PBE Mg_pv 13Apr2007               
   SHA256 =  f474ac0dd33840b9ae76c01d57fea79fdf77cdfbb07d5ade72c65f83c709b62b Mg_pv/POTCAR          
   COPYR  = (c) Copyright 13Apr2007 Georg Kresse                                                    
   COPYR  = This file is part of the software VASP. Any use, copying, and all other rights are regul
   COPYR  = If you do not have a valid VASP license, you may not use, copy or distribute this file. 
   VRHFIN =Mg: p6s2                                                                                 
   LEXCH  = PE                                                                                      
   EATOM  =  1056.7344 eV,   77.6678 Ry                                                             
                                                                                                    
   TITEL  = PAW_PBE Mg_pv 13Apr2007                                                                 
   LULTRA =        F    use ultrasoft PP ?                                                          
   IUNSCR =        1    unscreen: 0-lin 1-nonlin 2-no                                               
   RPACOR =    1.500    partial core radius                                                         
   POMASS =   24.305; ZVAL   =    8.000    mass and valenz                                          
   RCORE  =    2.000    outmost cutoff radius                                                       
   RWIGS  =    2.000; RWIGS  =    1.058    wigner-seitz radius (au A)                               
   ENMAX  =  403.929; ENMIN  =  302.947 eV                                                          
   RCLOC  =    1.506    cutoff for local pot                                                        
   LCOR   =        T    correct aug charges                                                         
   LPAW   =        T    paw PP                                                                      
   EAUG   =  758.780                                                                                
   DEXC   =    0.000                                                                                
   RMAX   =    2.045    core radius for proj-oper                                                   
   RAUG   =    1.300    factor for augmentation sphere                                              
   RDEP   =    2.025    radius for radial grids                                                     
   RDEPT  =    1.557    core radius for aug-charge                                                  
                                                                                                    
   Atomic configuration                                                                             
    5 entries                                                                                       
     n  l   j            E        occ.                                                              
     1  0  0.50     -1259.6230   2.0000                                                             
     2  0  0.50       -79.8442   2.0000                                                             
     2  1  1.50       -46.6121   6.0000                                                             
     3  0  0.50        -4.7055   2.0000                                                             
     3  2  1.50        -1.3606   0.0000                                                             
   Description                                                                                      
     l       E           TYP  RCUT    TYP  RCUT                                                     
     1    -46.6121073     23  1.600                                                                 
     1      2.7211652     23  1.600                                                                 
     0     -4.7054661     23  2.000                                                                 
     0     61.2262170     23  2.000                                                                 
     2     -1.3605826     23  2.000                                                                 
  local pseudopotential read in
  partial core-charges read in
  partial kinetic energy density read in
  atomic valenz-charges read in
  non local Contribution for L=           1  read in
    real space projection operators read in
  non local Contribution for L=           1  read in
    real space projection operators read in
  non local Contribution for L=           0  read in
    real space projection operators read in
  non local Contribution for L=           0  read in
    real space projection operators read in
  non local Contribution for L=           2  read in
    real space projection operators read in
    PAW grid and wavefunctions read in

   number of l-projection  operators is LMAX  =           5
   number of lm-projection operators is LMMAX =          13

 POTCAR:    PAW_PBE O 08Apr2002                   
   SHA256 =  818f92134a0a090dccd8ba1447fa70422a3b330e708bb4f08108d8ae51209ddf O/POTCAR              
   COPYR  = (c) Copyright 08Apr2002 Georg Kresse                                                    
   COPYR  = This file is part of the software VASP. Any use, copying, and all other rights are regul
   COPYR  = If you do not have a valid VASP license, you may not use, copy or distribute this file. 
   VRHFIN =O: s2p4                                                                                  
   LEXCH  = PE                                                                                      
   EATOM  =   432.3788 eV,   31.7789 Ry                                                             
                                                                                                    
   TITEL  = PAW_PBE O 08Apr2002                                                                     
   LULTRA =        F    use ultrasoft PP ?                                                          
   IUNSCR =        1    unscreen: 0-lin 1-nonlin 2-no                                               
   RPACOR =    1.200    partial core radius                                                         
   POMASS =   16.000; ZVAL   =    6.000    mass and valenz                                          
   RCORE  =    1.520    outmost cutoff radius                                                       
   RWIGS  =    1.550; RWIGS  =    0.820    wigner-seitz radius (au A)                               
   ENMAX  =  400.000; ENMIN  =  300.000 eV                                                          
   ICORE  =        2    local potential                                                             
   LCOR   =        T    correct aug charges                                                         
   LPAW   =        T    paw PP                                                                      
   EAUG   =  605.392                                                                                
   DEXC   =    0.000                                                                                
   RMAX   =    1.553    core radius for proj-oper                                                   
   RAUG   =    1.300    factor for augmentation sphere                                              
   RDEP   =    1.550    radius for radial grids                                                     
   RDEPT  =    1.329    core radius for aug-charge                                                  
                                                                                                    
   Atomic configuration                                                                             
    4 entries                                                                                       
     n  l   j            E        occ.                                                              
     1  0  0.50      -514.6923   2.0000                                                             
     2  0  0.50       -23.9615   2.0000                                                             
     2  1  0.50        -9.0305   4.0000                                                             
     3  2  1.50        -9.5241   0.0000                                                             
   Description                                                                                      
     l       E           TYP  RCUT    TYP  RCUT                                                     
     0    -23.9615318     23  1.200                                                                 
     0     -9.5240782     23  1.200                                                                 
     1     -9.0304911     23  1.520                                                                 
     1      8.1634956     23  1.520                                                                 
     2     -9.5240782      7  1.500                                                                 
  local pseudopotential read in
  partial core-charges read in
  partial kinetic energy density read in
  kinetic energy density of atom read in
  atomic valenz-charges read in
  non local Contribution for L=           0  read in
    real space projection operators read in
  non local Contribution for L=           0  read in
    real space projection operators read in
  non local Contribution for L=           1  read in
    real space projection operators read in
  non local Contribution for L=           1  read in
    real space projection operators read in
    PAW grid and wavefunctions read in

   number of l-projection  operators is LMAX  =           4
   number of lm-projection operators is LMMAX =           8

 -----------------------------------------------------------------------------
|                                                                             |
|               ----> ADVICE to this user running VASP <----                  |
|                                                                             |
|     You have a (more or less) 'large supercell' and for larger cells it     |
|     might be more efficient to use real-space projection operators.         |
|     Therefore, try LREAL= Auto in the INCAR file.                           |
|     Mind: For very accurate calculation, you might also keep the            |
|     reciprocal projection scheme (i.e. LREAL=.FALSE.).                      |
|                                                                             |
 -----------------------------------------------------------------------------

 -----------------------------------------------------------------------------
|                                                                             |
|               ----> ADVICE to this user running VASP <----                  |
|                                                                             |
|     You enforced a specific xc type in the INCAR file but a different       |
|     type was found in the POTCAR file.                                      |
|     I HOPE YOU KNOW WHAT YOU ARE DOING!                                     |
|                                                                             |
 -----------------------------------------------------------------------------

  PAW_PBE N 08Apr2002                   :
 energy of atom  1       EATOM= -264.5486
 kinetic energy error for atom=    0.0103 (will be added to EATOM!!)
  PAW_PBE O 08Apr2002                   :
 energy of atom  2       EATOM= -432.3788
 kinetic energy error for atom=    0.0168 (will be added to EATOM!!)
  PAW_PBE Mg_pv 13Apr2007               :
 energy of atom  3       EATOM=-1056.7344
 kinetic energy error for atom=    0.0221 (will be added to EATOM!!)
  PAW_PBE O 08Apr2002                   :
 energy of atom  4       EATOM= -432.3788
 kinetic energy error for atom=    0.0168 (will be added to EATOM!!)


 POSCAR:  N  O Mg  O
  positions in direct lattice
  No initial velocities read in
 -----------------------------------------------------------------------------
|                                                                             |
|           W    W    AA    RRRRR   N    N  II  N    N   GGGG   !!!           |
|           W    W   A  A   R    R  NN   N  II  NN   N  G    G  !!!           |
|           W    W  A    A  R    R  N N  N  II  N N  N  G       !!!           |
|           W WW W  AAAAAA  RRRRR   N  N N  II  N  N N  G  GGG   !            |
|           WW  WW  A    A  R   R   N   NN  II  N   NN  G    G                |
|           W    W  A    A  R    R  N    N  II  N    N   GGGG   !!!           |
|                                                                             |
|     Specifying the vdW parameters                                           |
|     VDW_S8 = 1.747                                                          |
|     VDW_A1 = 0.536                                                          |
|     VDW_A2 = 3.073                                                          |
|     in the INCAR file will overwrite the defaults for revpbe. Please        |
|     make sure that is what you intended.                                    |
|                                                                             |
 -----------------------------------------------------------------------------

 exchange correlation table for  LEXCH =       40
   RHO(1)=    0.500       N(1)  =     2000
   RHO(2)=  100.500       N(2)  =     4000



--------------------------------------------------------------------------------------------------------


 ion  position               nearest neighbor table
   1  0.643  0.500  0.746-   2 1.19
   2  0.705  0.588  0.782-   1 1.19
   3  0.000  0.750  0.352-  35 2.11  37 2.11  38 2.11  45 2.11  54 2.11
   4  0.250  0.000  0.352-  36 2.11  37 2.11  38 2.11  46 2.11  53 2.11
   5  0.000  0.000  0.451-  37 2.11  36 2.11  35 2.11  43 2.11  52 2.11  41 2.12
   6  0.250  0.750  0.451-  38 2.11  36 2.11  35 2.11  44 2.11  51 2.11  42 2.12
   7  0.000  0.750  0.550-  41 2.11  42 2.11  49 2.11  58 2.11  35 2.13  39 2.15
   8  0.250  0.000  0.550-  41 2.11  42 2.11  50 2.11  57 2.11  36 2.13  40 2.15
   9  0.000  0.000  0.649-  39 2.11  40 2.11  47 2.11  56 2.11  41 2.11
  10  0.250  0.750  0.649-  39 2.11  40 2.11  48 2.11  55 2.11  42 2.11
  11  0.000  0.250  0.352-  43 2.11  37 2.11  45 2.11  46 2.11  62 2.11
  12  0.250  0.500  0.352-  44 2.11  38 2.11  45 2.11  46 2.11  61 2.11
  13  0.000  0.500  0.451-  45 2.11  43 2.11  44 2.11  35 2.11  60 2.11  49 2.12
  14  0.250  0.250  0.451-  46 2.11  43 2.11  44 2.11  36 2.11  59 2.11  50 2.12
  15  0.000  0.250  0.550-  41 2.11  49 2.11  50 2.11  66 2.11  43 2.13  47 2.15
  16  0.250  0.500  0.550-  42 2.11  49 2.11  50 2.11  65 2.11  44 2.13  48 2.15
  17  0.000  0.500  0.649-  39 2.11  47 2.11  48 2.11  64 2.11  49 2.11
  18  0.250  0.250  0.649-  40 2.11  47 2.11  48 2.11  63 2.11  50 2.11
  19  0.500  0.750  0.352-  51 2.11  38 2.11  53 2.11  54 2.11  61 2.11
  20  0.750  0.000  0.352-  52 2.11  37 2.11  53 2.11  54 2.11  62 2.11
  21  0.500  0.000  0.451-  53 2.11  51 2.11  52 2.11  36 2.11  59 2.11  57 2.12
  22  0.750  0.750  0.451-  54 2.11  51 2.11  52 2.11  35 2.11  60 2.11  58 2.12
  23  0.500  0.750  0.550-  42 2.11  57 2.11  58 2.11  65 2.11  51 2.13  55 2.15
  24  0.750  0.000  0.550-  41 2.11  57 2.11  58 2.11  66 2.11  52 2.13  56 2.15
  25  0.500  0.000  0.649-  40 2.11  55 2.11  56 2.11  63 2.11  57 2.11
  26  0.750  0.750  0.649-  39 2.11  55 2.11  56 2.11  64 2.11  58 2.11
  27  0.500  0.250  0.352-  59 2.11  53 2.11  46 2.11  61 2.11  62 2.11
  28  0.750  0.500  0.352-  60 2.11  54 2.11  45 2.11  61 2.11  62 2.11
  29  0.500  0.500  0.451-  61 2.11  51 2.11  59 2.11  60 2.11  44 2.11  65 2.12
  30  0.750  0.250  0.451-  62 2.11  52 2.11  59 2.11  60 2.11  43 2.11  66 2.12
  31  0.500  0.250  0.550-  50 2.11  57 2.11  65 2.11  66 2.11  59 2.13  63 2.15
  32  0.750  0.500  0.550-  49 2.11  58 2.11  65 2.11  66 2.11  60 2.13  64 2.15
  33  0.500  0.500  0.649-  48 2.11  55 2.11  63 2.11  64 2.11  65 2.11
  34  0.750  0.250  0.649-  47 2.11  56 2.11  63 2.11  64 2.11  66 2.11
  35  0.000  0.750  0.451-   3 2.11   5 2.11   6 2.11  13 2.11  22 2.11   7 2.13
  36  0.250  0.000  0.451-   4 2.11   5 2.11   6 2.11  14 2.11  21 2.11   8 2.13
  37  0.000  0.000  0.352-   5 2.11   4 2.11   3 2.11  11 2.11  20 2.11
  38  0.250  0.750  0.352-   6 2.11   4 2.11   3 2.11  12 2.11  19 2.11
  39  0.000  0.750  0.651-   9 2.11  10 2.11  17 2.11  26 2.11   7 2.15
  40  0.250  0.000  0.651-   9 2.11  10 2.11  18 2.11  25 2.11   8 2.15
  41  0.000  0.000  0.550-   7 2.11   8 2.11  15 2.11  24 2.11   9 2.11   5 2.12
  42  0.250  0.750  0.550-   7 2.11   8 2.11  16 2.11  23 2.11  10 2.11   6 2.12
  43  0.000  0.250  0.451-  11 2.11   5 2.11  13 2.11  14 2.11  30 2.11  15 2.13
  44  0.250  0.500  0.451-  12 2.11   6 2.11  13 2.11  14 2.11  29 2.11  16 2.13
  45  0.000  0.500  0.352-  13 2.11  11 2.11  12 2.11   3 2.11  28 2.11
  46  0.250  0.250  0.352-  14 2.11  11 2.11  12 2.11   4 2.11  27 2.11
  47  0.000  0.250  0.651-   9 2.11  17 2.11  18 2.11  34 2.11  15 2.15
  48  0.250  0.500  0.651-  10 2.11  17 2.11  18 2.11  33 2.11  16 2.15
  49  0.000  0.500  0.550-   7 2.11  15 2.11  16 2.11  32 2.11  17 2.11  13 2.12
  50  0.250  0.250  0.550-   8 2.11  15 2.11  16 2.11  31 2.11  18 2.11  14 2.12
  51  0.500  0.750  0.451-  19 2.11   6 2.11  21 2.11  22 2.11  29 2.11  23 2.13
  52  0.750  0.000  0.451-  20 2.11   5 2.11  21 2.11  22 2.11  30 2.11  24 2.13
  53  0.500  0.000  0.352-  21 2.11  19 2.11  20 2.11   4 2.11  27 2.11
  54  0.750  0.750  0.352-  22 2.11  19 2.11  20 2.11   3 2.11  28 2.11
  55  0.500  0.750  0.651-  10 2.11  25 2.11  26 2.11  33 2.11  23 2.15
  56  0.750  0.000  0.651-   9 2.11  25 2.11  26 2.11  34 2.11  24 2.15
  57  0.500  0.000  0.550-   8 2.11  23 2.11  24 2.11  31 2.11  25 2.11  21 2.12
  58  0.750  0.750  0.550-   7 2.11  23 2.11  24 2.11  32 2.11  26 2.11  22 2.12
  59  0.500  0.250  0.451-  27 2.11  21 2.11  14 2.11  29 2.11  30 2.11  31 2.13
  60  0.750  0.500  0.451-  28 2.11  22 2.11  13 2.11  29 2.11  30 2.11  32 2.13
  61  0.500  0.500  0.352-  29 2.11  19 2.11  27 2.11  28 2.11  12 2.11
  62  0.750  0.250  0.352-  30 2.11  20 2.11  27 2.11  28 2.11  11 2.11
  63  0.500  0.250  0.651-  18 2.11  25 2.11  33 2.11  34 2.11  31 2.15
  64  0.750  0.500  0.651-  17 2.11  26 2.11  33 2.11  34 2.11  32 2.15
  65  0.500  0.500  0.550-  16 2.11  23 2.11  31 2.11  32 2.11  33 2.11  29 2.12
  66  0.750  0.250  0.550-  15 2.11  24 2.11  31 2.11  32 2.11  34 2.11  30 2.12


IMPORTANT INFORMATION: All symmetrisations will be switched off!
NOSYMM: (Re-)initialisation of all symmetry stuff for point group C_1.


----------------------------------------------------------------------------------------

                                     Primitive cell                                     

  volume of cell :    1519.8199

  direct lattice vectors                    reciprocal lattice vectors
     8.440984654  0.000000000  0.000000000     0.118469591  0.000000000  0.000000000
     0.000000000  8.440984654  0.000000000     0.000000000  0.118469591  0.000000000
     0.000000000  0.000000000 21.330738491     0.000000000  0.000000000  0.046880702

  length of vectors
     8.440984654  8.440984654 21.330738491     0.118469591  0.118469591  0.046880702

  position of ions in fractional coordinates (direct lattice)
     0.642992796  0.500000000  0.745904417
     0.705106085  0.587647523  0.781938938
     0.000000000  0.750000000  0.351605267
     0.250000000  0.000000000  0.351605267
     0.000000000  0.000000000  0.450535089
     0.250000000  0.750000000  0.450535089
     0.000000000  0.750000000  0.550171424
     0.250000000  0.000000000  0.550171424
     0.000000000  0.000000000  0.648861363
     0.250000000  0.750000000  0.648861363
     0.000000000  0.250000000  0.351605267
     0.250000000  0.500000000  0.351605267
     0.000000000  0.500000000  0.450535089
     0.250000000  0.250000000  0.450535089
     0.000000000  0.250000000  0.550171424
     0.250000000  0.500000000  0.550171424
     0.000000000  0.500000000  0.648861363
     0.250000000  0.250000000  0.648861363
     0.500000000  0.750000000  0.351605267
     0.750000000  0.000000000  0.351605267
     0.500000000  0.000000000  0.450535089
     0.750000000  0.750000000  0.450535089
     0.500000000  0.750000000  0.550171424
     0.750000000  0.000000000  0.550171424
     0.500000000  0.000000000  0.648861363
     0.750000000  0.750000000  0.648861363
     0.500000000  0.250000000  0.351605267
     0.750000000  0.500000000  0.351605267
     0.500000000  0.500000000  0.450535089
     0.750000000  0.250000000  0.450535089
     0.500000000  0.250000000  0.550171424
     0.750000000  0.500000000  0.550171424
     0.500000000  0.500000000  0.648861363
     0.750000000  0.250000000  0.648861363
     0.000000000  0.750000000  0.450535089
     0.250000000  0.000000000  0.450535089
     0.000000000  0.000000000  0.351605267
     0.250000000  0.750000000  0.351605267
     0.000000000  0.750000000  0.651006323
     0.250000000  0.000000000  0.651006323
     0.000000000  0.000000000  0.549890244
     0.250000000  0.750000000  0.549890244
     0.000000000  0.250000000  0.450535089
     0.250000000  0.500000000  0.450535089
     0.000000000  0.500000000  0.351605267
     0.250000000  0.250000000  0.351605267
     0.000000000  0.250000000  0.651006323
     0.250000000  0.500000000  0.651006323
     0.000000000  0.500000000  0.549890244
     0.250000000  0.250000000  0.549890244
     0.500000000  0.750000000  0.450535089
     0.750000000  0.000000000  0.450535089
     0.500000000  0.000000000  0.351605267
     0.750000000  0.750000000  0.351605267
     0.500000000  0.750000000  0.651006323
     0.750000000  0.000000000  0.651006323
     0.500000000  0.000000000  0.549890244
     0.750000000  0.750000000  0.549890244
     0.500000000  0.250000000  0.450535089
     0.750000000  0.500000000  0.450535089
     0.500000000  0.500000000  0.351605267
     0.750000000  0.250000000  0.351605267
     0.500000000  0.250000000  0.651006323
     0.750000000  0.500000000  0.651006323
     0.500000000  0.500000000  0.549890244
     0.750000000  0.250000000  0.549890244

  ion indices of the primitive-cell ions
   primitive index   ion index
                 1           1
                 2           2
                 3           3
                 4           4
                 5           5
                 6           6
                 7           7
                 8           8
                 9           9
                10          10
                11          11
                12          12
                13          13
                14          14
                15          15
                16          16
                17          17
                18          18
                19          19
                20          20
                21          21
                22          22
                23          23
                24          24
                25          25
                26          26
                27          27
                28          28
                29          29
                30          30
                31          31
                32          32
                33          33
                34          34
                35          35
                36          36
                37          37
                38          38
                39          39
                40          40
                41          41
                42          42
                43          43
                44          44
                45          45
                46          46
                47          47
                48          48
                49          49
                50          50
                51          51
                52          52
                53          53
                54          54
                55          55
                56          56
                57          57
                58          58
                59          59
                60          60
                61          61
                62          62
                63          63
                64          64
                65          65
                66          66

----------------------------------------------------------------------------------------



 KPOINTS: pymatgen v2020.8.13 with grid density = 

Automatic generation of k-mesh.
 Grid dimensions read from file:
 generate k-points for:    2    2    1

 Generating k-lattice:

  Cartesian coordinates                     Fractional coordinates (reciprocal lattice)
     0.059234796  0.000000000  0.000000000     0.500000000  0.000000000  0.000000000
     0.000000000  0.059234796  0.000000000     0.000000000  0.500000000  0.000000000
     0.000000000  0.000000000  0.046880702     0.000000000  0.000000000  1.000000000

  Length of vectors
     0.059234796  0.059234796  0.046880702

  Shift w.r.t. Gamma in fractional coordinates (k-lattice)
     0.000000000  0.000000000  0.000000000

 
 Subroutine IBZKPT returns following result:
 ===========================================
 
 Found      4 irreducible k-points:
 
 Following reciprocal coordinates:
            Coordinates               Weight
  0.000000  0.000000  0.000000      1.000000
  0.500000  0.000000  0.000000      1.000000
  0.000000  0.500000  0.000000      1.000000
  0.500000  0.500000  0.000000      1.000000
 
 Following cartesian coordinates:
            Coordinates               Weight
  0.000000  0.000000  0.000000      1.000000
  0.059235  0.000000  0.000000      1.000000
  0.000000  0.059235  0.000000      1.000000
  0.059235  0.059235  0.000000      1.000000
 


--------------------------------------------------------------------------------------------------------




 Dimension of arrays:
   k-points           NKPTS =      4   k-points in BZ     NKDIM =      4   number of bands    NBANDS=    320
   number of dos      NEDOS =    301   number of ions     NIONS =     66
   non local maximal  LDIM  =      5   non local SUM 2l+1 LMDIM =     13
   total plane-waves  NPLWV = 882000
   max r-space proj   IRMAX =      1   max aug-charges    IRDMAX=  11635
   dimension x,y,z NGX =    70 NGY =   70 NGZ =  180
   dimension x,y,z NGXF=   140 NGYF=  140 NGZF=  360
   support grid    NGXF=   140 NGYF=  140 NGZF=  360
   ions per type =               1   1  32  32
   NGX,Y,Z   is equivalent  to a cutoff of  13.79, 13.79, 14.03 a.u.
   NGXF,Y,Z  is equivalent  to a cutoff of  27.57, 27.57, 28.06 a.u.

 SYSTEM =  MgO-rocksalt                            
 POSCAR =   N  O Mg  O                             

--------------------------------------------------------------------------------------------------------


  energy-cutoff  :      600.00
  volume of cell :     1519.82
      direct lattice vectors                 reciprocal lattice vectors
     8.440984654  0.000000000  0.000000000     0.118469591  0.000000000  0.000000000
     0.000000000  8.440984654  0.000000000     0.000000000  0.118469591  0.000000000
     0.000000000  0.000000000 21.330738491     0.000000000  0.000000000  0.046880702

  length of vectors
     8.440984654  8.440984654 21.330738491     0.118469591  0.118469591  0.046880702



 k-points in units of 2pi/SCALE and weight: pymatgen v2020.8.13 with grid density = 
   0.00000000  0.00000000  0.00000000       0.250
   0.05923480  0.00000000  0.00000000       0.250
   0.00000000  0.05923480  0.00000000       0.250
   0.05923480  0.05923480  0.00000000       0.250

 k-points in reciprocal lattice and weights: pymatgen v2020.8.13 with grid density = 
   0.00000000  0.00000000  0.00000000       0.250
   0.50000000  0.00000000  0.00000000       0.250
   0.00000000  0.50000000  0.00000000       0.250
   0.50000000  0.50000000  0.00000000       0.250

 position of ions in fractional coordinates (direct lattice) 
   0.64299280  0.50000000  0.74590442
   0.70510609  0.58764752  0.78193894
   0.00000000  0.75000000  0.35160527
   0.25000000  0.00000000  0.35160527
   0.00000000  0.00000000  0.45053509
   0.25000000  0.75000000  0.45053509
   0.00000000  0.75000000  0.55017142
   0.25000000  0.00000000  0.55017142
   0.00000000  0.00000000  0.64886136
   0.25000000  0.75000000  0.64886136
   0.00000000  0.25000000  0.35160527
   0.25000000  0.50000000  0.35160527
   0.00000000  0.50000000  0.45053509
   0.25000000  0.25000000  0.45053509
   0.00000000  0.25000000  0.55017142
   0.25000000  0.50000000  0.55017142
   0.00000000  0.50000000  0.64886136
   0.25000000  0.25000000  0.64886136
   0.50000000  0.75000000  0.35160527
   0.75000000  0.00000000  0.35160527
   0.50000000  0.00000000  0.45053509
   0.75000000  0.75000000  0.45053509
   0.50000000  0.75000000  0.55017142
   0.75000000  0.00000000  0.55017142
   0.50000000  0.00000000  0.64886136
   0.75000000  0.75000000  0.64886136
   0.50000000  0.25000000  0.35160527
   0.75000000  0.50000000  0.35160527
   0.50000000  0.50000000  0.45053509
   0.75000000  0.25000000  0.45053509
   0.50000000  0.25000000  0.55017142
   0.75000000  0.50000000  0.55017142
   0.50000000  0.50000000  0.64886136
   0.75000000  0.25000000  0.64886136
   0.00000000  0.75000000  0.45053509
   0.25000000  0.00000000  0.45053509
   0.00000000  0.00000000  0.35160527
   0.25000000  0.75000000  0.35160527
   0.00000000  0.75000000  0.65100632
   0.25000000  0.00000000  0.65100632
   0.00000000  0.00000000  0.54989024
   0.25000000  0.75000000  0.54989024
   0.00000000  0.25000000  0.45053509
   0.25000000  0.50000000  0.45053509
   0.00000000  0.50000000  0.35160527
   0.25000000  0.25000000  0.35160527
   0.00000000  0.25000000  0.65100632
   0.25000000  0.50000000  0.65100632
   0.00000000  0.50000000  0.54989024
   0.25000000  0.25000000  0.54989024
   0.50000000  0.75000000  0.45053509
   0.75000000  0.00000000  0.45053509
   0.50000000  0.00000000  0.35160527
   0.75000000  0.75000000  0.35160527
   0.50000000  0.75000000  0.65100632
   0.75000000  0.00000000  0.65100632
   0.50000000  0.00000000  0.54989024
   0.75000000  0.75000000  0.54989024
   0.50000000  0.25000000  0.45053509
   0.75000000  0.50000000  0.45053509
   0.50000000  0.50000000  0.35160527
   0.75000000  0.25000000  0.35160527
   0.50000000  0.25000000  0.65100632
   0.75000000  0.50000000  0.65100632
   0.50000000  0.50000000  0.54989024
   0.75000000  0.25000000  0.54989024

 position of ions in cartesian coordinates  (Angst):
   5.42749233  4.22049233 15.91069205
   5.95178965  4.96032373 16.67933499
   0.00000000  6.33073849  7.50000000
   2.11024616  0.00000000  7.50000000
   0.00000000  0.00000000  9.61024616
   2.11024616  6.33073849  9.61024616
   0.00000000  6.33073849 11.73556278
   2.11024616  0.00000000 11.73556278
   0.00000000  0.00000000 13.84069205
   2.11024616  6.33073849 13.84069205
   0.00000000  2.11024616  7.50000000
   2.11024616  4.22049233  7.50000000
   0.00000000  4.22049233  9.61024616
   2.11024616  2.11024616  9.61024616
   0.00000000  2.11024616 11.73556278
   2.11024616  4.22049233 11.73556278
   0.00000000  4.22049233 13.84069205
   2.11024616  2.11024616 13.84069205
   4.22049233  6.33073849  7.50000000
   6.33073849  0.00000000  7.50000000
   4.22049233  0.00000000  9.61024616
   6.33073849  6.33073849  9.61024616
   4.22049233  6.33073849 11.73556278
   6.33073849  0.00000000 11.73556278
   4.22049233  0.00000000 13.84069205
   6.33073849  6.33073849 13.84069205
   4.22049233  2.11024616  7.50000000
   6.33073849  4.22049233  7.50000000
   4.22049233  4.22049233  9.61024616
   6.33073849  2.11024616  9.61024616
   4.22049233  2.11024616 11.73556278
   6.33073849  4.22049233 11.73556278
   4.22049233  4.22049233 13.84069205
   6.33073849  2.11024616 13.84069205
   0.00000000  6.33073849  9.61024616
   2.11024616  0.00000000  9.61024616
   0.00000000  0.00000000  7.50000000
   2.11024616  6.33073849  7.50000000
   0.00000000  6.33073849 13.88644563
   2.11024616  0.00000000 13.88644563
   0.00000000  0.00000000 11.72956500
   2.11024616  6.33073849 11.72956500
   0.00000000  2.11024616  9.61024616
   2.11024616  4.22049233  9.61024616
   0.00000000  4.22049233  7.50000000
   2.11024616  2.11024616  7.50000000
   0.00000000  2.11024616 13.88644563
   2.11024616  4.22049233 13.88644563
   0.00000000  4.22049233 11.72956500
   2.11024616  2.11024616 11.72956500
   4.22049233  6.33073849  9.61024616
   6.33073849  0.00000000  9.61024616
   4.22049233  0.00000000  7.50000000
   6.33073849  6.33073849  7.50000000
   4.22049233  6.33073849 13.88644563
   6.33073849  0.00000000 13.88644563
   4.22049233  0.00000000 11.72956500
   6.33073849  6.33073849 11.72956500
   4.22049233  2.11024616  9.61024616
   6.33073849  4.22049233  9.61024616
   4.22049233  4.22049233  7.50000000
   6.33073849  2.11024616  7.50000000
   4.22049233  2.11024616 13.88644563
   6.33073849  4.22049233 13.88644563
   4.22049233  4.22049233 11.72956500
   6.33073849  2.11024616 11.72956500



--------------------------------------------------------------------------------------------------------

--------------------------------------- Iteration      FINAL  ---------------------------------------


--------------------OUTCAR has been truncated-------------------------


--------------------OUTCAR has been truncated-------------------------


--------------------OUTCAR has been truncated-------------------------


--------------------OUTCAR has been truncated-------------------------


--------------------OUTCAR has been truncated-------------------------


--------------------OUTCAR has been truncated-------------------------


--------------------OUTCAR has been truncated-------------------------


--------------------OUTCAR has been truncated-------------------------


--------------------OUTCAR has been truncated-------------------------


--------------------OUTCAR has been truncated-------------------------



  FORCE on cell =-STRESS in cart. coord.  units (eV):
  Direction    XX          YY          ZZ          XY          YZ          ZX
  --------------------------------------------------------------------------------------
  Alpha Z   910.25235   910.25235   910.25235
  Ewald  158986.84594159059.75888************    96.32692   147.19628   105.23203
  Hartree169355.71110169385.33205************    36.77730    60.66053    47.02531
  E(xc)   -2516.45165 -2516.09856 -2523.92535     0.39362     0.62723     0.41353
  Local  ************************337994.42349  -118.84901  -193.37639  -149.36903
  n-local -2826.15161 -2829.64388 -2847.06729    -0.15514    -2.96460    -4.25780
  augment  1053.66968  1053.84974  1043.46929    -0.68955    -0.37651     0.46031
  Kinetic  7539.25592  7538.10703  7565.90888   -13.66698   -11.83017     0.50234
  Fock        0.00000     0.00000     0.00000     0.00000     0.00000     0.00000
  vdW       -21.71849   -21.72814   -16.80183     0.00459    -0.01821    -0.03995
  -------------------------------------------------------------------------------------
  Total     -25.95310   -25.84028    -1.73951     0.14175    -0.08183    -0.03326
  in kB     -27.35947   -27.24053    -1.83377     0.14943    -0.08627    -0.03507
  external pressure =      -18.81 kB  Pullay stress =        0.00 kB


 VOLUME and BASIS-vectors are now :
 -----------------------------------------------------------------------------
  energy-cutoff  :      600.00
  volume of cell :     1519.82
      direct lattice vectors                 reciprocal lattice vectors
     8.440984654  0.000000000  0.000000000     0.118469591  0.000000000  0.000000000
     0.000000000  8.440984654  0.000000000     0.000000000  0.118469591  0.000000000
     0.000000000  0.000000000 21.330738491     0.000000000  0.000000000  0.046880702

  length of vectors
     8.440984654  8.440984654 21.330738491     0.118469591  0.118469591  0.046880702


 FORCES acting on ions:
    Electron-Ion                     Ewald-Force                    Non-Local-Force
 -----------------------------------------------------------------------------------------------
   0.104E+03 0.170E+03 -.126E+04   -.122E+03 -.198E+03 0.123E+04   0.184E+02 0.279E+02 0.222E+02
   -.103E+03 -.161E+03 -.164E+04   0.127E+03 0.197E+03 0.167E+04   -.236E+02 -.367E+02 -.365E+02
   -.301E+00 -.191E+00 0.209E+04   0.308E+00 0.197E+00 -.208E+04   -.516E-02 -.410E-02 -.716E+01
   0.161E+00 -.310E-01 0.209E+04   -.159E+00 0.315E-01 -.208E+04   -.161E-02 -.343E-03 -.717E+01
   -.922E+00 -.156E+00 0.722E+03   0.947E+00 0.169E+00 -.722E+03   -.171E-01 -.941E-02 0.495E+00
   0.664E+00 -.517E+00 0.723E+03   -.644E+00 0.522E+00 -.723E+03   -.140E-01 -.339E-02 0.497E+00
   -.535E+01 -.432E+01 -.630E+03   0.538E+01 0.431E+01 0.631E+03   -.322E-01 0.515E-02 -.273E+00
   0.295E+01 -.395E+00 -.634E+03   -.292E+01 0.400E+00 0.634E+03   -.266E-01 -.583E-02 -.219E+00
   -.122E+02 -.332E+01 -.200E+04   0.123E+02 0.334E+01 0.199E+04   -.140E+00 -.161E-01 0.612E+01
   0.136E+02 -.152E+02 -.199E+04   -.135E+02 0.154E+02 0.199E+04   -.653E-01 -.217E+00 0.616E+01
   -.297E+00 0.191E+00 0.209E+04   0.303E+00 -.197E+00 -.208E+04   -.447E-02 0.379E-02 -.717E+01
   0.183E+00 0.313E-01 0.209E+04   -.179E+00 -.316E-01 -.208E+04   -.302E-02 0.200E-03 -.716E+01
   -.209E+01 0.177E+00 0.723E+03   0.215E+01 -.183E+00 -.723E+03   -.373E-01 0.495E-02 0.627E+00
   0.656E+00 0.525E+00 0.723E+03   -.658E+00 -.526E+00 -.723E+03   0.262E-02 0.137E-02 0.459E+00
   -.464E+01 0.430E+01 -.633E+03   0.463E+01 -.429E+01 0.633E+03   0.518E-02 -.511E-02 -.275E+00
   0.497E+01 0.414E+00 -.628E+03   -.474E+01 -.420E+00 0.629E+03   -.230E+00 0.700E-02 -.266E+00
   -.286E+02 0.409E+01 -.197E+04   0.295E+02 -.411E+01 0.196E+04   -.974E+00 0.237E-01 0.619E+01
   0.143E+02 0.150E+02 -.199E+04   -.142E+02 -.152E+02 0.199E+04   -.176E+00 0.214E+00 0.617E+01
   0.303E+00 -.213E+00 0.209E+04   -.309E+00 0.216E+00 -.208E+04   0.472E-02 -.237E-02 -.718E+01
   -.161E+00 -.349E-01 0.209E+04   0.159E+00 0.363E-01 -.208E+04   0.124E-02 -.102E-02 -.715E+01
   0.945E+00 -.171E+00 0.724E+03   -.962E+00 0.160E+00 -.724E+03   0.123E-01 0.769E-02 0.368E+00
   -.662E+00 -.168E+01 0.725E+03   0.651E+00 0.172E+01 -.725E+03   0.742E-02 -.303E-01 0.579E+00
   0.565E+01 -.576E+01 -.624E+03   -.568E+01 0.567E+01 0.624E+03   0.297E-01 0.913E-01 -.603E+00
   -.304E+01 -.846E+00 -.626E+03   0.302E+01 0.931E+00 0.627E+03   0.287E-01 -.857E-01 -.226E+00
   0.131E+02 -.267E+01 -.199E+04   -.132E+02 0.279E+01 0.198E+04   0.138E+00 -.124E+00 0.616E+01
   -.195E+02 -.397E+02 -.194E+04   0.195E+02 0.410E+02 0.193E+04   0.979E-02 -.124E+01 0.640E+01
   0.297E+00 0.212E+00 0.209E+04   -.304E+00 -.216E+00 -.208E+04   0.447E-02 0.250E-02 -.717E+01
   -.184E+00 0.369E-01 0.209E+04   0.179E+00 -.376E-01 -.208E+04   0.309E-02 0.538E-03 -.712E+01
   0.211E+01 0.175E+00 0.725E+03   -.216E+01 -.168E+00 -.725E+03   0.372E-01 -.575E-02 0.598E+00
   -.666E+00 0.167E+01 0.724E+03   0.668E+00 -.171E+01 -.725E+03   -.285E-02 0.233E-01 0.570E+00
   0.493E+01 0.573E+01 -.623E+03   -.493E+01 -.564E+01 0.624E+03   -.686E-02 -.909E-01 -.871E+00
   -.509E+01 0.897E+00 -.612E+03   0.488E+01 -.972E+00 0.611E+03   0.214E+00 0.754E-01 0.890E+00
   0.548E+02 0.346E+01 -.191E+04   -.560E+02 -.339E+01 0.191E+04   0.117E+01 -.710E-01 0.469E+01
   -.201E+02 0.386E+02 -.196E+04   0.201E+02 -.398E+02 0.195E+04   0.562E-01 0.116E+01 0.627E+01
   -.914E+00 -.548E+00 0.542E+03   0.929E+00 0.569E+00 -.541E+03   -.210E-01 -.308E-01 -.126E+00
   0.590E+00 -.623E-01 0.541E+03   -.576E+00 0.654E-01 -.541E+03   -.200E-01 -.471E-02 -.105E+00
   -.180E+00 -.266E-01 0.157E+04   0.185E+00 0.281E-01 -.157E+04   -.779E-02 -.209E-02 0.340E+01
   0.124E+00 -.106E+00 0.157E+04   -.120E+00 0.110E+00 -.157E+04   -.523E-02 -.517E-02 0.340E+01
   -.186E+02 -.148E+02 -.151E+04   0.187E+02 0.147E+02 0.151E+04   -.602E-02 0.414E-01 -.500E+01
   0.543E+01 -.140E+01 -.152E+04   -.538E+01 0.140E+01 0.153E+04   -.525E-01 -.806E-02 -.494E+01
   -.296E+01 -.638E+00 -.471E+03   0.298E+01 0.638E+00 0.471E+03   -.184E-01 -.121E-03 0.215E+00
   0.249E+01 -.295E+01 -.468E+03   -.246E+01 0.298E+01 0.468E+03   -.362E-01 -.281E-01 0.237E+00
   -.896E+00 0.558E+00 0.541E+03   0.924E+00 -.587E+00 -.541E+03   -.389E-01 0.420E-01 -.154E+00
   0.807E+00 0.687E-01 0.542E+03   -.818E+00 -.757E-01 -.541E+03   0.109E-01 0.999E-02 -.997E-01
   -.280E+00 0.265E-01 0.157E+04   0.289E+00 -.283E-01 -.157E+04   -.134E-01 0.244E-02 0.342E+01
   0.125E+00 0.106E+00 0.157E+04   -.123E+00 -.110E+00 -.157E+04   -.290E-02 0.535E-02 0.340E+01
   -.147E+02 0.142E+02 -.151E+04   0.147E+02 -.142E+02 0.152E+04   0.278E-01 -.717E-02 -.495E+01
   0.155E+02 0.154E+01 -.150E+04   -.154E+02 -.155E+01 0.151E+04   -.159E+00 0.979E-02 -.488E+01
   -.483E+01 0.674E+00 -.466E+03   0.487E+01 -.673E+00 0.466E+03   -.381E-01 -.138E-02 0.277E+00
   0.272E+01 0.293E+01 -.468E+03   -.266E+01 -.295E+01 0.468E+03   -.544E-01 0.275E-01 0.244E+00
   0.944E+00 -.709E+00 0.542E+03   -.970E+00 0.760E+00 -.542E+03   0.376E-01 -.691E-01 -.187E+00
   -.582E+00 -.499E-01 0.543E+03   0.559E+00 0.381E-01 -.542E+03   0.331E-01 0.139E-01 -.552E-01
   0.180E+00 -.257E-01 0.157E+04   -.186E+00 0.255E-01 -.157E+04   0.827E-02 0.258E-03 0.340E+01
   -.125E+00 -.207E+00 0.157E+04   0.121E+00 0.214E+00 -.157E+04   0.585E-02 -.103E-01 0.342E+01
   0.233E+02 -.292E+02 -.148E+04   -.233E+02 0.290E+02 0.149E+04   0.854E-03 0.256E+00 -.504E+01
   -.618E+01 -.496E+01 -.151E+04   0.613E+01 0.507E+01 0.151E+04   0.513E-01 -.109E+00 -.494E+01
   0.302E+01 -.438E+00 -.464E+03   -.304E+01 0.460E+00 0.464E+03   0.126E-01 -.221E-01 0.200E+00
   -.270E+01 -.492E+01 -.461E+03   0.266E+01 0.499E+01 0.460E+03   0.352E-01 -.606E-01 0.320E+00
   0.910E+00 0.707E+00 0.542E+03   -.938E+00 -.754E+00 -.542E+03   0.388E-01 0.637E-01 -.178E+00
   -.809E+00 0.898E-01 0.546E+03   0.821E+00 -.923E-01 -.546E+03   -.116E-01 0.466E-02 0.707E-01
   0.280E+00 0.264E-01 0.157E+04   -.290E+00 -.260E-01 -.157E+04   0.131E-01 -.611E-03 0.341E+01
   -.126E+00 0.205E+00 0.157E+04   0.123E+00 -.213E+00 -.157E+04   0.283E-02 0.109E-01 0.341E+01
   0.191E+02 0.284E+02 -.148E+04   -.191E+02 -.281E+02 0.149E+04   -.620E-01 -.271E+00 -.507E+01
   -.350E+02 0.564E+01 -.141E+04   0.351E+02 -.551E+01 0.141E+04   -.171E+00 -.139E+00 -.358E+01
   0.524E+01 0.518E+00 -.465E+03   -.532E+01 -.545E+00 0.466E+03   0.724E-01 0.273E-01 -.396E+00
   -.290E+01 0.495E+01 -.465E+03   0.284E+01 -.501E+01 0.465E+03   0.600E-01 0.628E-01 0.828E-01
 -----------------------------------------------------------------------------------------------
   0.560E+01 0.932E+01 0.319E+02   -.302E-12 -.426E-13 0.341E-12   -.559E+01 -.932E+01 -.319E+02


 POSITION                                       TOTAL-FORCE (eV/Angst)
 -----------------------------------------------------------------------------------
      5.39130      4.07524     15.96981        -0.002241     -0.008987     -0.001352
      5.88636      4.84892     16.72271         0.005453     -0.001103      0.004220
      0.00000      6.33074      7.50000         0.001974      0.001620      0.338396
      2.11025      0.00000      7.50000         0.000650      0.000163      0.341602
      0.00000      0.00000      9.61025         0.007048      0.003768      0.083065
      2.11025      6.33074      9.61025         0.006607      0.001337      0.086060
      0.00173      6.33107     11.73668        -0.000437      0.000229      0.000870
      2.11176      0.00052     11.73215        -0.000082     -0.000145      0.003058
      0.00514      0.00221     13.84115         0.000130     -0.000016      0.002599
      2.11517      6.33641     13.84092        -0.000597      0.000015      0.001248
      0.00000      2.11025      7.50000         0.001776     -0.001587      0.340259
      2.11025      4.22049      7.50000         0.001002     -0.000122      0.338312
      0.00000      4.22049      9.61025         0.018500     -0.001587      0.083494
      2.11025      2.11025      9.61025         0.000281     -0.000341      0.088317
     -0.00021      2.11136     11.73769        -0.000180     -0.000371      0.001167
      2.11695      4.22062     11.73700        -0.000124     -0.000007      0.001094
      0.02699      4.22162     13.84371        -0.001363      0.000224     -0.001720
      2.11498      2.10571     13.83831        -0.000610      0.000327      0.002012
      4.22049      6.33074      7.50000        -0.001887      0.001157      0.342086
      6.33074      0.00000      7.50000        -0.000637      0.000302      0.337337
      4.22049      0.00000      9.61025        -0.004683     -0.002653      0.090783
      6.33074      6.33074      9.61025        -0.003114      0.016401      0.074178
      4.22068      6.32743     11.73976        -0.000178      0.000595      0.001325
      6.33067      0.00338     11.73165        -0.000380      0.000056      0.002927
      4.21877      0.00195     13.83516        -0.000170     -0.000118      0.004228
      6.33234      6.35755     13.83620        -0.000031     -0.000675      0.000489
      4.22049      2.11025      7.50000        -0.001826     -0.001256      0.341332
      6.33074      4.22049      7.50000        -0.001127     -0.000212      0.329521
      4.22049      4.22049      9.61025        -0.019111      0.001241      0.086672
      6.33074      2.11025      9.61025        -0.000398     -0.012409      0.074214
      4.22101      2.11346     11.73978        -0.000714     -0.000873      0.001352
      6.32477      4.21948     11.72151        -0.000888     -0.000445      0.001343
      4.20198      4.21892     13.89203        -0.000293     -0.000022     -0.000357
      6.32814      2.09539     13.85194        -0.000225      0.000223      0.001103
      0.00000      6.33074      9.61025        -0.006739     -0.009390      0.080608
      2.11025      0.00000      9.61025        -0.006711     -0.001662      0.065011
      0.00000      0.00000      7.50000        -0.002210     -0.000588     -0.501963
      2.11025      6.33074      7.50000        -0.001476     -0.001424     -0.502976
     -0.00005      6.33100     13.88634        -0.000706     -0.000336     -0.000472
      2.11001      0.00017     13.88043        -0.000649     -0.000223      0.003951
     -0.00021      0.00050     11.72881        -0.000217     -0.000119     -0.000880
      2.10924      6.32963     11.72901        -0.000268      0.000707     -0.000968
      0.00000      2.11025      9.61025        -0.011128      0.012234      0.077171
      2.11025      4.22049      9.61025        -0.000898      0.002955      0.092383
      0.00000      4.22049      7.50000        -0.003892      0.000675     -0.497843
      2.11025      2.11025      7.50000        -0.000823      0.001460     -0.503407
     -0.00001      2.11329     13.88766        -0.000315      0.000339      0.000096
      2.11015      4.22142     13.88646        -0.000778      0.000418     -0.002328
     -0.00412      4.22144     11.73478        -0.000003     -0.000099     -0.002934
      2.10758      2.11203     11.72738        -0.000402     -0.000940     -0.000589
      4.22049      6.33074      9.61025         0.010940     -0.018862      0.078006
      6.33074      0.00000      9.61025         0.009813      0.002172      0.078722
      4.22049      0.00000      7.50000         0.002299      0.000071     -0.503679
      6.33074      6.33074      7.50000         0.001608     -0.002943     -0.498205
      4.22623      6.33692     13.87455        -0.000313     -0.000318     -0.000604
      6.33432      0.00285     13.87953        -0.000146     -0.000214      0.002638
      4.22216     -0.00130     11.72355        -0.000867     -0.000159      0.000824
      6.33357      6.32727     11.73142        -0.000321      0.000867     -0.001574
      4.22049      2.11025      9.61025         0.011013      0.017339      0.081321
      6.33074      4.22049      9.61025         0.000240      0.002141      0.062845
      4.22049      4.22049      7.50000         0.003710     -0.000197     -0.500332
      6.33074      2.11025      7.50000         0.000740      0.003113     -0.498874
      4.22098      2.10240     13.86181        -0.000857      0.000029     -0.000826
      6.35354      4.22672     13.88851        -0.001434     -0.000426     -0.003011
      4.22504      4.22155     11.73789        -0.000987     -0.000086     -0.002205
      6.33358      2.11550     11.73237        -0.000348     -0.001261     -0.001136
 -----------------------------------------------------------------------------------
    total drift:                                0.002190      0.000909      0.002057


--------------------------------------------------------------------------------------------------------



  FREE ENERGIE OF THE ION-ELECTRON SYSTEM (eV)
  ---------------------------------------------------
  free  energy   TOTEN  =      -383.68903596 eV

  energy  without entropy=     -383.68903596  energy(sigma->0) =     -383.68903596

 d Force = 0.1250057E-04[ 0.709E-05, 0.179E-04]  d Energy = 0.1238211E-04 0.118E-06
 d Force =-0.1175766E+00[-0.117E+00,-0.118E+00]  d Ewald  =-0.1175768E+00 0.269E-06


--------------------------------------------------------------------------------------------------------


    POTLOK:  cpu time      0.6249: real time      0.6250


--------------------------------------------------------------------------------------------------------




--------------------------------------------------------------------------------------------------------


  
 reached required accuracy - stopping structural energy minimisation
     LOOP+:  cpu time     62.2318: real time     62.4991
    4ORBIT:  cpu time      0.0000: real time      0.0000

 total amount of memory used by VASP MPI-rank0    78960. kBytes
=======================================================================

   base      :      30000. kBytes
   nonl-proj :      17408. kBytes
   fftplans  :       4923. kBytes
   grid      :      13952. kBytes
   one-center:        146. kBytes
   wavefun   :      12531. kBytes

  
  
 General timing and accounting informations for this job:
 ========================================================
  
                  Total CPU time used (sec):     6928.548
                            User time (sec):     6918.269
                          System time (sec):       10.279
                         Elapsed time (sec):     6952.304
  
                   Maximum memory used (kb):      187760.
                   Average memory used (kb):          N/A
  
                          Minor page faults:        46388
                          Major page faults:           52
                 Voluntary context switches:        72767
