 vasp.6.3.0 20Jan22 (build Dec 25 2023 18:06:01) complex                         
 executed on        HPECrayEX_GCC date 2024.11.25  22:02:52
 running 1024 mpi-ranks, with    1 threads/rank
 distrk:  each k-point on 1024 cores,    1 groups
 distr:  one band on NCORE=   8 cores,  128 groups


--------------------------------------------------------------------------------------------------------


 INCAR:
   SYSTEM = TiO2
   ISMEAR = 0
   SIGMA = 0.05
   EDIFF = 1E-7
   ALGO = Normal
   ISTART = 0
   IBRION = 2
   NSW = 1000
   ISYM = 0
   ISIF = 2
   EDIFFG = -0.02
   DIPOL = 0.5 0.5 0.5
   IDIPOL = 3
   LDIPOL = .TRUE.
   LHFCALC = .TRUE.
   HFSCREEN = 0.2
   GGA = PE
   IVDW = 13
   VDW_S8 = 1.19528249
   VDW_A1 = 0.38663183
   VDW_A2 = 5.19133469
   ENCUT = 520
   PREC = Normal
   PRECFOCK = Fast
   LASPH = .TRUE.
   LREAL = .FALSE.
   ISPIN = 1
   NKREDX = 2
   NKREDY = 2
   NELM = 200
   NELMIN = 8
   NCORE = 8
   KPAR = 1
   LWAVE = .FALSE.
   LCHARG = .FALSE.

 POTCAR:    PAW_PBE C 08Apr2002                   
 POTCAR:    PAW_PBE O 08Apr2002                   
 POTCAR:    PAW_PBE Ti 08Apr2002                  
 POTCAR:    PAW_PBE O 08Apr2002                   
 POTCAR:    PAW_PBE C 08Apr2002                   
   SHA256 =  253f7b50bb8d59471dbedb8285d89021f4a42ed1a2c5d38a03a736e69125dd95 C/POTCAR              
   COPYR  = (c) Copyright 08Apr2002 Georg Kresse                                                    
   COPYR  = This file is part of the software VASP. Any use, copying, and all other rights are regul
   COPYR  = If you do not have a valid VASP license, you may not use, copy or distribute this file. 
   VRHFIN =C: s2p2                                                                                  
   LEXCH  = PE                                                                                      
   EATOM  =   147.1560 eV,   10.8157 Ry                                                             
                                                                                                    
   TITEL  = PAW_PBE C 08Apr2002                                                                     
   LULTRA =        F    use ultrasoft PP ?                                                          
   IUNSCR =        1    unscreen: 0-lin 1-nonlin 2-no                                               
   RPACOR =    1.200    partial core radius                                                         
   POMASS =   12.011; ZVAL   =    4.000    mass and valenz                                          
   RCORE  =    1.500    outmost cutoff radius                                                       
   RWIGS  =    1.630; RWIGS  =    0.863    wigner-seitz radius (au A)                               
   ENMAX  =  400.000; ENMIN  =  300.000 eV                                                          
   ICORE  =        2    local potential                                                             
   LCOR   =        T    correct aug charges                                                         
   LPAW   =        T    paw PP                                                                      
   EAUG   =  644.873                                                                                
   DEXC   =    0.000                                                                                
   RMAX   =    1.529    core radius for proj-oper                                                   
   RAUG   =    1.300    factor for augmentation sphere                                              
   RDEP   =    1.501    radius for radial grids                                                     
   RDEPT  =    1.300    core radius for aug-charge                                                  
                                                                                                    
   Atomic configuration                                                                             
    4 entries                                                                                       
     n  l   j            E        occ.                                                              
     1  0  0.50      -273.3789   2.0000                                                             
     2  0  0.50       -13.7508   2.0000                                                             
     2  1  0.50        -5.2854   2.0000                                                             
     3  2  1.50        -5.4423   0.0000                                                             
   Description                                                                                      
     l       E           TYP  RCUT    TYP  RCUT                                                     
     0    -13.7508458     23  1.200                                                                 
     0     -8.2022199     23  1.200                                                                 
     1     -5.2854383     23  1.500                                                                 
     1     34.0145650     23  1.500                                                                 
     2     -5.4423304      7  1.500                                                                 
  local pseudopotential read in
  partial core-charges read in
  partial kinetic energy density read in
  atomic valenz-charges read in
  non local Contribution for L=           0  read in
    real space projection operators read in
  non local Contribution for L=           0  read in
    real space projection operators read in
  non local Contribution for L=           1  read in
    real space projection operators read in
  non local Contribution for L=           1  read in
    real space projection operators read in
    PAW grid and wavefunctions read in

   number of l-projection  operators is LMAX  =           4
   number of lm-projection operators is LMMAX =           8

 POTCAR:    PAW_PBE O 08Apr2002                   
   SHA256 =  818f92134a0a090dccd8ba1447fa70422a3b330e708bb4f08108d8ae51209ddf O/POTCAR              
   COPYR  = (c) Copyright 08Apr2002 Georg Kresse                                                    
   COPYR  = This file is part of the software VASP. Any use, copying, and all other rights are regul
   COPYR  = If you do not have a valid VASP license, you may not use, copy or distribute this file. 
   VRHFIN =O: s2p4                                                                                  
   LEXCH  = PE                                                                                      
   EATOM  =   432.3788 eV,   31.7789 Ry                                                             
                                                                                                    
   TITEL  = PAW_PBE O 08Apr2002                                                                     
   LULTRA =        F    use ultrasoft PP ?                                                          
   IUNSCR =        1    unscreen: 0-lin 1-nonlin 2-no                                               
   RPACOR =    1.200    partial core radius                                                         
   POMASS =   16.000; ZVAL   =    6.000    mass and valenz                                          
   RCORE  =    1.520    outmost cutoff radius                                                       
   RWIGS  =    1.550; RWIGS  =    0.820    wigner-seitz radius (au A)                               
   ENMAX  =  400.000; ENMIN  =  300.000 eV                                                          
   ICORE  =        2    local potential                                                             
   LCOR   =        T    correct aug charges                                                         
   LPAW   =        T    paw PP                                                                      
   EAUG   =  605.392                                                                                
   DEXC   =    0.000                                                                                
   RMAX   =    1.553    core radius for proj-oper                                                   
   RAUG   =    1.300    factor for augmentation sphere                                              
   RDEP   =    1.550    radius for radial grids                                                     
   RDEPT  =    1.329    core radius for aug-charge                                                  
                                                                                                    
   Atomic configuration                                                                             
    4 entries                                                                                       
     n  l   j            E        occ.                                                              
     1  0  0.50      -514.6923   2.0000                                                             
     2  0  0.50       -23.9615   2.0000                                                             
     2  1  0.50        -9.0305   4.0000                                                             
     3  2  1.50        -9.5241   0.0000                                                             
   Description                                                                                      
     l       E           TYP  RCUT    TYP  RCUT                                                     
     0    -23.9615318     23  1.200                                                                 
     0     -9.5240782     23  1.200                                                                 
     1     -9.0304911     23  1.520                                                                 
     1      8.1634956     23  1.520                                                                 
     2     -9.5240782      7  1.500                                                                 
  local pseudopotential read in
  partial core-charges read in
  partial kinetic energy density read in
  kinetic energy density of atom read in
  atomic valenz-charges read in
  non local Contribution for L=           0  read in
    real space projection operators read in
  non local Contribution for L=           0  read in
    real space projection operators read in
  non local Contribution for L=           1  read in
    real space projection operators read in
  non local Contribution for L=           1  read in
    real space projection operators read in
    PAW grid and wavefunctions read in

   number of l-projection  operators is LMAX  =           4
   number of lm-projection operators is LMMAX =           8

 POTCAR:    PAW_PBE Ti 08Apr2002                  
   SHA256 =  f8e8f1d080d9e9b45e792f1068744b07aba8441d1e7ce11486a5d4c0f5a1479e Ti/POTCAR             
   COPYR  = (c) Copyright 08Apr2002 Georg Kresse                                                    
   COPYR  = This file is part of the software VASP. Any use, copying, and all other rights are regul
   COPYR  = If you do not have a valid VASP license, you may not use, copy or distribute this file. 
   VRHFIN =Ti: d3 s1                                                                                
   LEXCH  = PE                                                                                      
   EATOM  =    94.7928 eV,    6.9671 Ry                                                             
                                                                                                    
   TITEL  = PAW_PBE Ti 08Apr2002                                                                    
   LULTRA =        F    use ultrasoft PP ?                                                          
   IUNSCR =        1    unscreen: 0-lin 1-nonlin 2-no                                               
   RPACOR =    2.200    partial core radius                                                         
   POMASS =   47.880; ZVAL   =    4.000    mass and valenz                                          
   RCORE  =    2.800    outmost cutoff radius                                                       
   RWIGS  =    2.500; RWIGS  =    1.323    wigner-seitz radius (au A)                               
   ENMAX  =  178.330; ENMIN  =  133.747 eV                                                          
   RCLOC  =    2.215    cutoff for local pot                                                        
   LCOR   =        T    correct aug charges                                                         
   LPAW   =        T    paw PP                                                                      
   EAUG   =  328.883                                                                                
   DEXC   =    0.000                                                                                
   RMAX   =    2.868    core radius for proj-oper                                                   
   RAUG   =    1.300    factor for augmentation sphere                                              
   RDEP   =    2.885    radius for radial grids                                                     
   RDEPT  =    2.320    core radius for aug-charge                                                  
                                                                                                    
   Atomic configuration                                                                             
    9 entries                                                                                       
     n  l   j            E        occ.                                                              
     1  0  0.50     -4865.3608   2.0000                                                             
     2  0  0.50      -533.1367   2.0000                                                             
     2  1  1.50      -440.5031   6.0000                                                             
     3  0  0.50       -59.3186   2.0000                                                             
     3  1  1.50       -35.7012   6.0000                                                             
     3  2  2.50        -1.9157   3.0000                                                             
     4  0  0.50        -3.7291   1.0000                                                             
     4  1  1.50        -4.0817   0.0000                                                             
     4  3  2.50        -1.3606   0.0000                                                             
   Description                                                                                      
     l       E           TYP  RCUT    TYP  RCUT                                                     
     2     -1.9156924     23  2.800                                                                 
     2     -0.4062961     23  2.800                                                                 
     0     -3.7290832     23  2.800                                                                 
     0     20.4087390     23  2.800                                                                 
     1     -5.4423304     23  2.800                                                                 
  local pseudopotential read in
  partial core-charges read in
  partial kinetic energy density read in
  atomic valenz-charges read in
  non local Contribution for L=           2  read in
    real space projection operators read in
  non local Contribution for L=           2  read in
    real space projection operators read in
  non local Contribution for L=           0  read in
    real space projection operators read in
  non local Contribution for L=           0  read in
    real space projection operators read in
  non local Contribution for L=           1  read in
    real space projection operators read in
    PAW grid and wavefunctions read in

   number of l-projection  operators is LMAX  =           5
   number of lm-projection operators is LMMAX =          15

 POTCAR:    PAW_PBE O 08Apr2002                   
   SHA256 =  818f92134a0a090dccd8ba1447fa70422a3b330e708bb4f08108d8ae51209ddf O/POTCAR              
   COPYR  = (c) Copyright 08Apr2002 Georg Kresse                                                    
   COPYR  = This file is part of the software VASP. Any use, copying, and all other rights are regul
   COPYR  = If you do not have a valid VASP license, you may not use, copy or distribute this file. 
   VRHFIN =O: s2p4                                                                                  
   LEXCH  = PE                                                                                      
   EATOM  =   432.3788 eV,   31.7789 Ry                                                             
                                                                                                    
   TITEL  = PAW_PBE O 08Apr2002                                                                     
   LULTRA =        F    use ultrasoft PP ?                                                          
   IUNSCR =        1    unscreen: 0-lin 1-nonlin 2-no                                               
   RPACOR =    1.200    partial core radius                                                         
   POMASS =   16.000; ZVAL   =    6.000    mass and valenz                                          
   RCORE  =    1.520    outmost cutoff radius                                                       
   RWIGS  =    1.550; RWIGS  =    0.820    wigner-seitz radius (au A)                               
   ENMAX  =  400.000; ENMIN  =  300.000 eV                                                          
   ICORE  =        2    local potential                                                             
   LCOR   =        T    correct aug charges                                                         
   LPAW   =        T    paw PP                                                                      
   EAUG   =  605.392                                                                                
   DEXC   =    0.000                                                                                
   RMAX   =    1.553    core radius for proj-oper                                                   
   RAUG   =    1.300    factor for augmentation sphere                                              
   RDEP   =    1.550    radius for radial grids                                                     
   RDEPT  =    1.329    core radius for aug-charge                                                  
                                                                                                    
   Atomic configuration                                                                             
    4 entries                                                                                       
     n  l   j            E        occ.                                                              
     1  0  0.50      -514.6923   2.0000                                                             
     2  0  0.50       -23.9615   2.0000                                                             
     2  1  0.50        -9.0305   4.0000                                                             
     3  2  1.50        -9.5241   0.0000                                                             
   Description                                                                                      
     l       E           TYP  RCUT    TYP  RCUT                                                     
     0    -23.9615318     23  1.200                                                                 
     0     -9.5240782     23  1.200                                                                 
     1     -9.0304911     23  1.520                                                                 
     1      8.1634956     23  1.520                                                                 
     2     -9.5240782      7  1.500                                                                 
  local pseudopotential read in
  partial core-charges read in
  partial kinetic energy density read in
  kinetic energy density of atom read in
  atomic valenz-charges read in
  non local Contribution for L=           0  read in
    real space projection operators read in
  non local Contribution for L=           0  read in
    real space projection operators read in
  non local Contribution for L=           1  read in
    real space projection operators read in
  non local Contribution for L=           1  read in
    real space projection operators read in
    PAW grid and wavefunctions read in

   number of l-projection  operators is LMAX  =           4
   number of lm-projection operators is LMMAX =           8

 -----------------------------------------------------------------------------
|                                                                             |
|               ----> ADVICE to this user running VASP <----                  |
|                                                                             |
|     You have a (more or less) 'large supercell' and for larger cells it     |
|     might be more efficient to use real-space projection operators.         |
|     Therefore, try LREAL= Auto in the INCAR file.                           |
|     Mind: For very accurate calculation, you might also keep the            |
|     reciprocal projection scheme (i.e. LREAL=.FALSE.).                      |
|                                                                             |
 -----------------------------------------------------------------------------

  PAW_PBE C 08Apr2002                   :
 energy of atom  1       EATOM= -147.1560
 kinetic energy error for atom=    0.0071 (will be added to EATOM!!)
  PAW_PBE O 08Apr2002                   :
 energy of atom  2       EATOM= -432.3788
 kinetic energy error for atom=    0.0208 (will be added to EATOM!!)
  PAW_PBE Ti 08Apr2002                  :
 energy of atom  3       EATOM=  -94.7928
 kinetic energy error for atom=    0.0002 (will be added to EATOM!!)
  PAW_PBE O 08Apr2002                   :
 energy of atom  4       EATOM= -432.3788
 kinetic energy error for atom=    0.0208 (will be added to EATOM!!)


 POSCAR:  C  O Ti  O
  positions in direct lattice
  velocities in cartesian coordinates
 -----------------------------------------------------------------------------
|                                                                             |
|           W    W    AA    RRRRR   N    N  II  N    N   GGGG   !!!           |
|           W    W   A  A   R    R  NN   N  II  NN   N  G    G  !!!           |
|           W    W  A    A  R    R  N N  N  II  N N  N  G       !!!           |
|           W WW W  AAAAAA  RRRRR   N  N N  II  N  N N  G  GGG   !            |
|           WW  WW  A    A  R   R   N   NN  II  N   NN  G    G                |
|           W    W  A    A  R    R  N    N  II  N    N   GGGG   !!!           |
|                                                                             |
|     Specifying the vdW parameters                                           |
|     VDW_S8 = 1.195                                                          |
|     VDW_A1 = 0.387                                                          |
|     VDW_A2 = 5.191                                                          |
|     in the INCAR file will overwrite the defaults for hse06. Please         |
|     make sure that is what you intended.                                    |
|                                                                             |
 -----------------------------------------------------------------------------

 exchange correlation table for  LEXCH =        8
   RHO(1)=    0.500       N(1)  =     2000
   RHO(2)=  100.500       N(2)  =     4000



--------------------------------------------------------------------------------------------------------


 ion  position               nearest neighbor table
   1  0.421  0.500  0.852-   2 1.15   3 1.17
   2  0.363  0.500  0.884-   1 1.15
   3  0.484  0.500  0.821-   1 1.17  83 2.42
   4  0.750  0.625  0.265-  84 1.94  85 1.94 144 1.94 145 1.94 166 1.96  87 1.96  14 2.94  34 2.94

   5  0.000  0.750  0.265-  87 1.94 107 1.94 106 1.94  86 1.94  88 1.96  35 2.94  15 2.94
   6  0.000  0.625  0.382-  88 1.94  89 1.94 148 1.94 149 1.94  90 1.96  91 1.96  16 2.94  36 2.94

   7  0.750  0.750  0.382- 171 1.94 191 1.94  90 1.94 110 1.94  92 1.96  85 1.96  17 2.94  37 2.94

   8  0.750  0.625  0.500-  92 1.94  93 1.94 152 1.94 153 1.94 174 1.96  95 1.96  18 2.94  38 2.94

   9  0.000  0.750  0.500-  95 1.94 115 1.94 114 1.94  94 1.94  89 1.96  96 1.98  19 2.94  39 2.94

  10  1.000  0.625  0.616- 156 1.89  96 1.89  98 1.94  99 1.94  97 2.00 157 2.00  20 2.94  40 2.94

  11  0.750  0.750  0.622- 100 1.86 179 1.96 199 1.96  98 1.96 118 1.96  93 2.09  41 2.94  21 2.94

  12  0.750  0.625  0.744- 101 1.83 161 1.83 182 2.01 103 2.02 160 2.07 100 2.07  22 2.94  42 2.94

  13  0.000  0.750  0.731-  97 1.81 123 1.93 122 1.93 103 1.93 102 1.93  23 2.94  43 2.94
  14  0.750  0.875  0.265-  84 1.94  85 1.94 104 1.94 105 1.94 186 1.96 107 1.96   4 2.94  24 2.94

  15  0.000  0.000  0.265- 107 1.94 127 1.94 126 1.94 106 1.94 108 1.96  25 2.94   5 2.94
  16  0.000  0.875  0.382-  88 1.94  89 1.94 108 1.94 109 1.94 110 1.96 111 1.96   6 2.94  26 2.94

  17  0.750  0.000  0.382- 191 1.94 211 1.94 110 1.94 130 1.94 112 1.96 105 1.96   7 2.94  27 2.94

  18  0.750  0.875  0.500-  92 1.94  93 1.94 112 1.94 113 1.94 194 1.96 115 1.96   8 2.94  28 2.94

  19  0.000  0.000  0.500- 115 1.94 135 1.94 134 1.94 114 1.94 109 1.96 116 1.98   9 2.94  29 2.94

  20  1.000  0.875  0.616-  96 1.89 116 1.89 118 1.94 119 1.94 117 2.00  97 2.00  30 2.94  10 2.94

  21  0.750  1.000  0.622- 120 1.86 199 1.96 219 1.96 118 1.96 138 1.96 113 2.09  11 2.94  31 2.94

  22  0.750  0.875  0.744- 121 1.83 101 1.83 202 2.01 123 2.02 120 2.07 100 2.07  32 2.94  12 2.94

  23  0.000  1.000  0.731- 117 1.81 142 1.93 122 1.93 123 1.93 143 1.93  13 2.94  33 2.94
  24  0.750  0.125  0.265- 104 1.94 105 1.94 124 1.94 125 1.94 206 1.96 127 1.96  14 2.94  34 2.94

  25  0.000  0.250  0.265- 127 1.94 147 1.94 146 1.94 126 1.94 128 1.96  35 2.94  15 2.94
  26  0.000  0.125  0.382- 108 1.94 109 1.94 128 1.94 129 1.94 130 1.96 131 1.96  16 2.94  36 2.94

  27  0.750  0.250  0.382- 211 1.94 231 1.94 130 1.94 150 1.94 132 1.96 125 1.96  17 2.94  37 2.94

  28  0.750  0.125  0.500- 112 1.94 113 1.94 132 1.94 133 1.94 214 1.96 135 1.96  18 2.94  38 2.94

  29  0.000  0.250  0.500- 135 1.94 155 1.94 154 1.94 134 1.94 129 1.96 136 1.98  19 2.94  39 2.94

  30  1.000  0.125  0.616- 136 1.89 116 1.89 138 1.94 139 1.94 117 2.00 137 2.00  20 2.94  40 2.94

  31  0.750  0.250  0.622- 140 1.86 239 1.96 219 1.96 158 1.96 138 1.96 133 2.09  41 2.94  21 2.94

  32  0.750  0.125  0.744- 121 1.83 141 1.83 222 2.01 143 2.02 120 2.07 140 2.07  22 2.94  42 2.94

  33  0.000  0.250  0.731- 137 1.81 143 1.93 142 1.93 163 1.93 162 1.93  23 2.94  43 2.94
  34  0.750  0.375  0.265- 124 1.94 125 1.94 144 1.94 145 1.94 226 1.96 147 1.96   4 2.94  24 2.94

  35  0.000  0.500  0.265-  87 1.94 147 1.94 146 1.94  86 1.94 148 1.96  25 2.94   5 2.94
  36  0.000  0.375  0.382- 128 1.94 129 1.94 148 1.94 149 1.94 150 1.96 151 1.96   6 2.94  26 2.94

  37  0.750  0.500  0.382- 171 1.94 231 1.94  90 1.94 150 1.94 145 1.96 152 1.96   7 2.94  27 2.94

  38  0.750  0.375  0.500- 132 1.94 133 1.94 152 1.94 153 1.94 234 1.96 155 1.96   8 2.94  28 2.94

  39  0.000  0.500  0.500-  95 1.94 155 1.94 154 1.94  94 1.94 149 1.96 156 1.98   9 2.94  29 2.94

  40  1.000  0.375  0.616- 156 1.89 136 1.89 158 1.94 159 1.94 137 2.00 157 2.00  30 2.94  10 2.94

  41  0.750  0.500  0.622- 160 1.86 239 1.95 179 1.95 158 1.96  98 1.96 153 2.09  31 2.94  11 2.94

  42  0.750  0.375  0.744- 141 1.83 161 1.83 242 2.01 163 2.02 160 2.07 140 2.07  32 2.94  12 2.94

  43  0.999  0.500  0.731- 157 1.81 163 1.93 103 1.93 162 1.93 102 1.93  33 2.94  13 2.94
  44  0.250  0.625  0.265- 164 1.94 165 1.94 224 1.94 225 1.94  86 1.96 167 1.96  54 2.94  74 2.94

  45  0.500  0.750  0.265- 167 1.94 187 1.94 186 1.94 166 1.94 168 1.96  75 2.94  55 2.94
  46  0.500  0.625  0.382- 168 1.94 169 1.94 228 1.94 229 1.94 170 1.96 171 1.96  56 2.94  76 2.94

  47  0.250  0.750  0.382-  91 1.94 111 1.94 170 1.94 190 1.94 172 1.96 165 1.96  57 2.94  77 2.94

  48  0.250  0.625  0.500- 172 1.94 173 1.94 232 1.94 233 1.94  94 1.96 175 1.96  58 2.94  78 2.94

  49  0.500  0.750  0.500- 175 1.94 195 1.94 194 1.94 174 1.94 169 1.96 176 1.98  59 2.94  79 2.94

  50  0.500  0.624  0.616- 236 1.89 176 1.90 179 1.94 178 1.94 177 1.99 237 1.99  80 2.92  60 2.95

  51  0.250  0.750  0.622- 180 1.87 198 1.96 178 1.96  99 1.96 119 1.96 173 2.08  61 2.94  81 2.94

  52  0.249  0.625  0.743- 181 1.83 241 1.84 102 2.01 183 2.01 180 2.06 240 2.07  62 2.94  82 2.95

  53  0.500  0.750  0.730- 177 1.81 183 1.92 182 1.92 202 1.93 203 1.93  63 2.94  83 2.94
  54  0.250  0.875  0.265- 164 1.94 165 1.94 184 1.94 185 1.94 106 1.96 187 1.96  44 2.94  64 2.94

  55  0.500  0.000  0.265- 187 1.94 207 1.94 206 1.94 186 1.94 188 1.96  65 2.94  45 2.94
  56  0.500  0.875  0.382- 168 1.94 169 1.94 188 1.94 189 1.94 190 1.96 191 1.96  46 2.94  66 2.94

  57  0.250  0.000  0.382- 111 1.94 131 1.94 190 1.94 210 1.94 192 1.96 185 1.96  47 2.94  67 2.94

  58  0.250  0.875  0.500- 172 1.94 173 1.94 192 1.94 193 1.94 114 1.96 195 1.96  48 2.94  68 2.94

  59  0.500  0.000  0.500- 195 1.94 215 1.94 214 1.94 194 1.94 189 1.96 196 1.98  49 2.94  69 2.94

  60  0.500  0.875  0.615- 176 1.89 196 1.89 199 1.94 198 1.94 177 1.99 197 2.00  50 2.95  70 2.95

  61  0.250  1.000  0.622- 200 1.87 198 1.96 218 1.96 119 1.96 139 1.96 193 2.09  51 2.94  71 2.94

  62  0.250  0.875  0.744- 201 1.83 181 1.83 203 2.01 122 2.02 200 2.07 180 2.07  52 2.94  72 2.94

  63  0.500  1.000  0.731- 197 1.81 222 1.93 202 1.93 223 1.93 203 1.93  53 2.94  73 2.94
  64  0.250  0.125  0.265- 184 1.94 185 1.94 204 1.94 205 1.94 126 1.96 207 1.96  54 2.94  74 2.94

  65  0.500  0.250  0.265- 207 1.94 227 1.94 226 1.94 206 1.94 208 1.96  75 2.94  55 2.94
  66  0.500  0.125  0.382- 188 1.94 189 1.94 208 1.94 209 1.94 210 1.96 211 1.96  56 2.94  76 2.94

  67  0.250  0.250  0.382- 131 1.94 151 1.94 210 1.94 230 1.94 212 1.96 205 1.96  57 2.94  77 2.94

  68  0.250  0.125  0.500- 192 1.94 193 1.94 212 1.94 213 1.94 134 1.96 215 1.96  58 2.94  78 2.94

  69  0.500  0.250  0.500- 215 1.94 235 1.94 234 1.94 214 1.94 209 1.96 216 1.98  59 2.94  79 2.94

  70  0.500  0.125  0.615- 216 1.89 196 1.89 219 1.94 218 1.94 217 1.99 197 2.00  80 2.95  60 2.95

  71  0.250  0.250  0.622- 220 1.87 218 1.96 238 1.96 159 1.96 139 1.96 213 2.08  61 2.94  81 2.94

  72  0.250  0.125  0.744- 201 1.83 221 1.83 223 2.01 142 2.02 200 2.07 220 2.07  82 2.94  62 2.94

  73  0.500  0.250  0.730- 217 1.81 243 1.92 242 1.92 222 1.93 223 1.93  63 2.94  83 2.94
  74  0.250  0.375  0.265- 204 1.94 205 1.94 224 1.94 225 1.94 146 1.96 227 1.96  44 2.94  64 2.94

  75  0.500  0.500  0.265- 167 1.94 227 1.94 226 1.94 166 1.94 228 1.96  65 2.94  45 2.94
  76  0.500  0.375  0.382- 208 1.94 209 1.94 228 1.94 229 1.94 230 1.96 231 1.96  46 2.94  66 2.94

  77  0.250  0.500  0.382-  91 1.94 151 1.94 170 1.94 230 1.94 225 1.96 232 1.96  47 2.94  67 2.94

  78  0.250  0.375  0.500- 212 1.94 213 1.94 232 1.94 233 1.94 154 1.96 235 1.96  48 2.94  68 2.94

  79  0.500  0.500  0.500- 175 1.94 235 1.94 234 1.94 174 1.94 229 1.96 236 1.99  49 2.94  69 2.94

  80  0.500  0.376  0.616- 236 1.89 216 1.90 239 1.94 238 1.94 217 1.99 237 1.99  50 2.92  70 2.95

  81  0.250  0.500  0.622- 240 1.86 238 1.96 178 1.96 159 1.96  99 1.96 233 2.08  71 2.94  51 2.94

  82  0.249  0.375  0.743- 221 1.83 241 1.84 162 2.01 243 2.01 220 2.06 240 2.07  72 2.94  52 2.95

  83  0.499  0.500  0.733- 237 1.85 183 1.93 243 1.93 182 1.93 242 1.93   3 2.42  73 2.94  53 2.94

  84  0.750  0.750  0.219-   4 1.94  14 1.94
  85  0.750  0.750  0.311-   4 1.94  14 1.94   7 1.96
  86  0.098  0.625  0.265-   5 1.94  35 1.94  44 1.96
  87  0.902  0.625  0.265-   5 1.94  35 1.94   4 1.96
  88  0.000  0.750  0.336-   6 1.94  16 1.94   5 1.96
  89  0.000  0.750  0.428-   6 1.94  16 1.94   9 1.96
  90  0.848  0.625  0.382-   7 1.94  37 1.94   6 1.96
  91  0.152  0.625  0.382-  47 1.94  77 1.94   6 1.96
  92  0.750  0.750  0.454-   8 1.94  18 1.94   7 1.96
  93  0.750  0.750  0.546-   8 1.94  18 1.94  11 2.09
  94  0.098  0.625  0.500-   9 1.94  39 1.94  48 1.96
  95  0.902  0.625  0.500-   9 1.94  39 1.94   8 1.96
  96  1.000  0.750  0.572-  20 1.89  10 1.89   9 1.98
  97  0.000  0.750  0.665-  13 1.81  10 2.00  20 2.00
  98  0.850  0.625  0.619-  10 1.94  11 1.96  41 1.96
  99  0.150  0.625  0.618-  10 1.94  51 1.96  81 1.96
 100  0.750  0.750  0.690-  11 1.86  22 2.07  12 2.07
 101  0.750  0.750  0.783-  12 1.83  22 1.83
 102  0.094  0.625  0.743-  43 1.93  13 1.93  52 2.01
 103  0.906  0.625  0.743-  43 1.93  13 1.93  12 2.02
 104  0.750  0.000  0.219-  14 1.94  24 1.94
 105  0.750  0.000  0.311-  14 1.94  24 1.94  17 1.96
 106  0.098  0.875  0.265-   5 1.94  15 1.94  54 1.96
 107  0.902  0.875  0.265-   5 1.94  15 1.94  14 1.96
 108  0.000  0.000  0.336-  16 1.94  26 1.94  15 1.96
 109  0.000  0.000  0.428-  16 1.94  26 1.94  19 1.96
 110  0.848  0.875  0.382-   7 1.94  17 1.94  16 1.96
 111  0.152  0.875  0.382-  47 1.94  57 1.94  16 1.96
 112  0.750  0.000  0.454-  18 1.94  28 1.94  17 1.96
 113  0.750  0.000  0.546-  18 1.94  28 1.94  21 2.09
 114  0.098  0.875  0.500-   9 1.94  19 1.94  58 1.96
 115  0.902  0.875  0.500-   9 1.94  19 1.94  18 1.96
 116  1.000  1.000  0.572-  30 1.89  20 1.89  19 1.98
 117  0.000  1.000  0.665-  23 1.81  20 2.00  30 2.00
 118  0.850  0.875  0.619-  20 1.94  21 1.96  11 1.96
 119  0.150  0.875  0.618-  20 1.94  61 1.96  51 1.96
 120  0.750  1.000  0.690-  21 1.86  22 2.07  32 2.07
 121  0.750  0.000  0.783-  32 1.83  22 1.83
 122  0.094  0.875  0.743-  13 1.93  23 1.93  62 2.02
 123  0.906  0.875  0.743-  13 1.93  23 1.93  22 2.02
 124  0.750  0.250  0.219-  24 1.94  34 1.94
 125  0.750  0.250  0.311-  24 1.94  34 1.94  27 1.96
 126  0.098  0.125  0.265-  15 1.94  25 1.94  64 1.96
 127  0.902  0.125  0.265-  15 1.94  25 1.94  24 1.96
 128  0.000  0.250  0.336-  26 1.94  36 1.94  25 1.96
 129  0.000  0.250  0.428-  26 1.94  36 1.94  29 1.96
 130  0.848  0.125  0.382-  17 1.94  27 1.94  26 1.96
 131  0.152  0.125  0.382-  57 1.94  67 1.94  26 1.96
 132  0.750  0.250  0.454-  28 1.94  38 1.94  27 1.96
 133  0.750  0.250  0.546-  28 1.94  38 1.94  31 2.09
 134  0.098  0.125  0.500-  19 1.94  29 1.94  68 1.96
 135  0.902  0.125  0.500-  19 1.94  29 1.94  28 1.96
 136  1.000  0.250  0.572-  30 1.89  40 1.89  29 1.98
 137  0.000  0.250  0.665-  33 1.81  40 2.00  30 2.00
 138  0.850  0.125  0.619-  30 1.94  21 1.96  31 1.96
 139  0.150  0.125  0.618-  30 1.94  61 1.96  71 1.96
 140  0.750  0.250  0.690-  31 1.86  32 2.07  42 2.07
 141  0.750  0.250  0.783-  42 1.83  32 1.83
 142  0.094  0.125  0.743-  33 1.93  23 1.93  72 2.02
 143  0.906  0.125  0.743-  33 1.93  23 1.93  32 2.02
 144  0.750  0.500  0.219-   4 1.94  34 1.94
 145  0.750  0.500  0.311-   4 1.94  34 1.94  37 1.96
 146  0.098  0.375  0.265-  25 1.94  35 1.94  74 1.96
 147  0.902  0.375  0.265-  25 1.94  35 1.94  34 1.96
 148  0.000  0.500  0.336-   6 1.94  36 1.94  35 1.96
 149  0.000  0.500  0.428-   6 1.94  36 1.94  39 1.96
 150  0.848  0.375  0.382-  27 1.94  37 1.94  36 1.96
 151  0.152  0.375  0.382-  67 1.94  77 1.94  36 1.96
 152  0.750  0.500  0.454-   8 1.94  38 1.94  37 1.96
 153  0.750  0.500  0.546-   8 1.94  38 1.94  41 2.09
 154  0.098  0.375  0.500-  29 1.94  39 1.94  78 1.96
 155  0.902  0.375  0.500-  29 1.94  39 1.94  38 1.96
 156  1.000  0.500  0.572-  10 1.89  40 1.89  39 1.98
 157  0.000  0.500  0.665-  43 1.81  10 2.00  40 2.00
 158  0.850  0.375  0.619-  40 1.94  31 1.96  41 1.96
 159  0.150  0.375  0.618-  40 1.94  71 1.96  81 1.96
 160  0.751  0.500  0.690-  41 1.86  42 2.07  12 2.07
 161  0.749  0.500  0.783-  12 1.83  42 1.83
 162  0.094  0.375  0.743-  43 1.93  33 1.93  82 2.01
 163  0.906  0.375  0.743-  43 1.93  33 1.93  42 2.02
 164  0.250  0.750  0.219-  44 1.94  54 1.94
 165  0.250  0.750  0.311-  44 1.94  54 1.94  47 1.96
 166  0.598  0.625  0.265-  45 1.94  75 1.94   4 1.96
 167  0.402  0.625  0.265-  45 1.94  75 1.94  44 1.96
 168  0.500  0.750  0.336-  46 1.94  56 1.94  45 1.96
 169  0.500  0.750  0.428-  46 1.94  56 1.94  49 1.96
 170  0.348  0.625  0.382-  47 1.94  77 1.94  46 1.96
 171  0.652  0.625  0.382-   7 1.94  37 1.94  46 1.96
 172  0.250  0.750  0.454-  48 1.94  58 1.94  47 1.96
 173  0.250  0.750  0.546-  48 1.94  58 1.94  51 2.08
 174  0.598  0.625  0.500-  49 1.94  79 1.94   8 1.96
 175  0.402  0.625  0.500-  49 1.94  79 1.94  48 1.96
 176  0.500  0.749  0.572-  60 1.89  50 1.90  49 1.98
 177  0.500  0.751  0.664-  53 1.81  60 1.99  50 1.99
 178  0.350  0.625  0.619-  50 1.94  51 1.96  81 1.96
 179  0.650  0.625  0.619-  50 1.94  41 1.95  11 1.96
 180  0.249  0.750  0.690-  51 1.87  52 2.06  62 2.07
 181  0.251  0.749  0.783-  52 1.83  62 1.83
 182  0.594  0.626  0.742-  53 1.92  83 1.93  12 2.01
 183  0.405  0.627  0.741-  53 1.92  83 1.93  52 2.01
 184  0.250  0.000  0.219-  54 1.94  64 1.94
 185  0.250  0.000  0.311-  54 1.94  64 1.94  57 1.96
 186  0.598  0.875  0.265-  45 1.94  55 1.94  14 1.96
 187  0.402  0.875  0.265-  45 1.94  55 1.94  54 1.96
 188  0.500  0.000  0.336-  56 1.94  66 1.94  55 1.96
 189  0.500  0.000  0.428-  56 1.94  66 1.94  59 1.96
 190  0.348  0.875  0.382-  47 1.94  57 1.94  56 1.96
 191  0.652  0.875  0.382-   7 1.94  17 1.94  56 1.96
 192  0.250  0.000  0.454-  58 1.94  68 1.94  57 1.96
 193  0.250  0.000  0.546-  58 1.94  68 1.94  61 2.09
 194  0.598  0.875  0.500-  49 1.94  59 1.94  18 1.96
 195  0.402  0.875  0.500-  49 1.94  59 1.94  58 1.96
 196  0.500  0.000  0.572-  70 1.89  60 1.89  59 1.98
 197  0.500  1.000  0.664-  63 1.81  60 2.00  70 2.00
 198  0.350  0.875  0.618-  60 1.94  51 1.96  61 1.96
 199  0.650  0.875  0.618-  60 1.94  21 1.96  11 1.96
 200  0.250  1.000  0.690-  61 1.87  62 2.07  72 2.07
 201  0.250  0.000  0.783-  72 1.83  62 1.83
 202  0.594  0.875  0.742-  63 1.93  53 1.93  22 2.01
 203  0.406  0.875  0.742-  63 1.93  53 1.93  62 2.01
 204  0.250  0.250  0.219-  64 1.94  74 1.94
 205  0.250  0.250  0.311-  64 1.94  74 1.94  67 1.96
 206  0.598  0.125  0.265-  55 1.94  65 1.94  24 1.96
 207  0.402  0.125  0.265-  55 1.94  65 1.94  64 1.96
 208  0.500  0.250  0.336-  66 1.94  76 1.94  65 1.96
 209  0.500  0.250  0.428-  66 1.94  76 1.94  69 1.96
 210  0.348  0.125  0.382-  57 1.94  67 1.94  66 1.96
 211  0.652  0.125  0.382-  17 1.94  27 1.94  66 1.96
 212  0.250  0.250  0.454-  68 1.94  78 1.94  67 1.96
 213  0.250  0.250  0.546-  68 1.94  78 1.94  71 2.08
 214  0.598  0.125  0.500-  59 1.94  69 1.94  28 1.96
 215  0.402  0.125  0.500-  59 1.94  69 1.94  68 1.96
 216  0.500  0.251  0.572-  70 1.89  80 1.90  69 1.98
 217  0.500  0.249  0.664-  73 1.81  70 1.99  80 1.99
 218  0.350  0.125  0.618-  70 1.94  71 1.96  61 1.96
 219  0.650  0.125  0.618-  70 1.94  21 1.96  31 1.96
 220  0.249  0.250  0.690-  71 1.87  82 2.06  72 2.07
 221  0.251  0.251  0.783-  82 1.83  72 1.83
 222  0.594  0.125  0.742-  63 1.93  73 1.93  32 2.01
 223  0.406  0.125  0.742-  63 1.93  73 1.93  72 2.01
 224  0.250  0.500  0.219-  44 1.94  74 1.94
 225  0.250  0.500  0.311-  44 1.94  74 1.94  77 1.96
 226  0.598  0.375  0.265-  65 1.94  75 1.94  34 1.96
 227  0.402  0.375  0.265-  65 1.94  75 1.94  74 1.96
 228  0.500  0.500  0.336-  46 1.94  76 1.94  75 1.96
 229  0.500  0.500  0.428-  46 1.94  76 1.94  79 1.96
 230  0.348  0.375  0.382-  67 1.94  77 1.94  76 1.96
 231  0.652  0.375  0.382-  27 1.94  37 1.94  76 1.96
 232  0.250  0.500  0.454-  48 1.94  78 1.94  77 1.96
 233  0.250  0.500  0.546-  48 1.94  78 1.94  81 2.08
 234  0.598  0.375  0.500-  69 1.94  79 1.94  38 1.96
 235  0.402  0.375  0.500-  69 1.94  79 1.94  78 1.96
 236  0.500  0.500  0.573-  50 1.89  80 1.89  79 1.99
 237  0.500  0.500  0.666-  83 1.85  80 1.99  50 1.99
 238  0.350  0.375  0.619-  80 1.94  71 1.96  81 1.96
 239  0.650  0.375  0.619-  80 1.94  41 1.95  31 1.96
 240  0.248  0.500  0.690-  81 1.86  82 2.07  52 2.07
 241  0.254  0.500  0.783-  52 1.84  82 1.84
 242  0.594  0.374  0.742-  73 1.92  83 1.93  42 2.01
 243  0.405  0.373  0.741-  73 1.92  83 1.93  82 2.01


IMPORTANT INFORMATION: All symmetrisations will be switched off!
NOSYMM: (Re-)initialisation of all symmetry stuff for point group C_1.


----------------------------------------------------------------------------------------

                                     Primitive cell                                     

  volume of cell :    4157.1448

  direct lattice vectors                    reciprocal lattice vectors
    12.893495846  0.000000000  0.000000000     0.077558485  0.000000000  0.000000000
     0.000000000 11.761907618  0.000000000     0.000000000  0.085020222  0.000000000
     0.000000000  0.000000000 27.412377441     0.000000000  0.000000000  0.036479871

  length of vectors
    12.893495846 11.761907618 27.412377441     0.077558485  0.085020222  0.036479871

  position of ions in fractional coordinates (direct lattice)
     0.421149389  0.500000019  0.851741133
     0.362537594  0.499999926  0.883526969
     0.484207697  0.500000122  0.820959819
     0.750000000  0.625000000  0.264823466
     0.000000000  0.750000000  0.264823466
     0.000000000  0.625000000  0.382411733
     0.750000000  0.750000000  0.382411733
     0.750000000  0.625000000  0.500000000
     0.000000000  0.750000000  0.500000000
     0.999934859  0.625028267  0.615628589
     0.749981544  0.749988335  0.622171513
     0.749732534  0.625041946  0.743516045
     0.000013633  0.750125293  0.731047699
     0.750000000  0.875000000  0.264823466
     0.000000000  0.000000000  0.264823466
     0.000000000  0.875000000  0.382411733
     0.750000000  0.000000000  0.382411733
     0.750000000  0.875000000  0.500000000
     0.000000000  0.000000000  0.500000000
     0.999970973  0.875026441  0.615676812
     0.750032413  0.999999998  0.622181340
     0.749886849  0.875059804  0.743545733
     0.000200413  0.999999997  0.731057655
     0.750000000  0.125000000  0.264823466
     0.000000000  0.250000000  0.264823466
     0.000000000  0.125000000  0.382411733
     0.750000000  0.250000000  0.382411733
     0.750000000  0.125000000  0.500000000
     0.000000000  0.250000000  0.500000000
     0.999970970  0.124973558  0.615676812
     0.749981543  0.250011665  0.622171513
     0.749886853  0.124940191  0.743545733
     0.000013636  0.249874706  0.731047699
     0.750000000  0.375000000  0.264823466
     0.000000000  0.500000000  0.264823466
     0.000000000  0.375000000  0.382411733
     0.750000000  0.500000000  0.382411733
     0.750000000  0.375000000  0.500000000
     0.000000000  0.500000000  0.500000000
     0.999934861  0.374971731  0.615628589
     0.750031129  0.499999998  0.622235708
     0.749732535  0.374958050  0.743516046
     0.999423361  0.499999997  0.731012623
     0.250000000  0.625000000  0.264823466
     0.500000000  0.750000000  0.264823466
     0.500000000  0.625000000  0.382411733
     0.250000000  0.750000000  0.382411733
     0.250000000  0.625000000  0.500000000
     0.500000000  0.750000000  0.500000000
     0.499989604  0.624123723  0.616368353
     0.249920289  0.750076889  0.621989893
     0.249308568  0.625377613  0.742912585
     0.500349316  0.750198955  0.730484438
     0.250000000  0.875000000  0.264823466
     0.500000000  0.000000000  0.264823466
     0.500000000  0.875000000  0.382411733
     0.250000000  0.000000000  0.382411733
     0.250000000  0.875000000  0.500000000
     0.500000000  0.000000000  0.500000000
     0.500109870  0.874624373  0.615169329
     0.250095614  0.999999998  0.622199399
     0.250322554  0.875042197  0.743580405
     0.499949171  0.999999992  0.730534931
     0.250000000  0.125000000  0.264823466
     0.500000000  0.250000000  0.264823466
     0.500000000  0.125000000  0.382411733
     0.250000000  0.250000000  0.382411733
     0.250000000  0.125000000  0.500000000
     0.500000000  0.250000000  0.500000000
     0.500109866  0.125375623  0.615169342
     0.249920290  0.249923112  0.621989893
     0.250322542  0.124957796  0.743580399
     0.500349328  0.249801044  0.730484439
     0.250000000  0.375000000  0.264823466
     0.500000000  0.500000000  0.264823466
     0.500000000  0.375000000  0.382411733
     0.250000000  0.500000000  0.382411733
     0.250000000  0.375000000  0.500000000
     0.500000000  0.500000000  0.500000000
     0.499989609  0.375876273  0.616368339
     0.249749461  0.499999997  0.621967468
     0.249308585  0.374622375  0.742912596
     0.499028944  0.499999995  0.733106108
     0.750000000  0.750000000  0.218879228
     0.750000000  0.750000000  0.310767704
     0.097680320  0.625000000  0.264823466
     0.902319680  0.625000000  0.264823466
     0.000000000  0.750000000  0.336467495
     0.000000000  0.750000000  0.428355971
     0.847680320  0.625000000  0.382411733
     0.152319680  0.625000000  0.382411733
     0.750000000  0.750000000  0.454055762
     0.750000000  0.750000000  0.545944238
     0.097680320  0.625000000  0.500000000
     0.902319680  0.625000000  0.500000000
     0.999956135  0.750083133  0.572357968
     0.000204720  0.749939063  0.664902515
     0.849936990  0.625072429  0.618535753
     0.150032960  0.625145855  0.618312248
     0.750245181  0.750133616  0.690141692
     0.749758392  0.749991498  0.783153570
     0.093574139  0.624711312  0.743005383
     0.906169190  0.625111947  0.742688554
     0.750000000  0.000000000  0.218879228
     0.750000000  0.000000000  0.310767704
     0.097680320  0.875000000  0.264823466
     0.902319680  0.875000000  0.264823466
     0.000000000  0.000000000  0.336467495
     0.000000000  0.000000000  0.428355971
     0.847680320  0.875000000  0.382411733
     0.152319680  0.875000000  0.382411733
     0.750000000  0.000000000  0.454055762
     0.750000000  0.000000000  0.545944238
     0.097680320  0.875000000  0.500000000
     0.902319680  0.875000000  0.500000000
     0.999956521  1.000000000  0.572364159
     0.000171836  1.000000000  0.664907719
     0.849964946  0.875002409  0.618584099
     0.150135122  0.875164022  0.618493251
     0.750203938  0.999999994  0.690152819
     0.750301899  0.000000000  0.783179273
     0.093825503  0.874948452  0.742788725
     0.906385154  0.874953081  0.742611607
     0.750000000  0.250000000  0.218879228
     0.750000000  0.250000000  0.310767704
     0.097680320  0.125000000  0.264823466
     0.902319680  0.125000000  0.264823466
     0.000000000  0.250000000  0.336467495
     0.000000000  0.250000000  0.428355971
     0.847680320  0.125000000  0.382411733
     0.152319680  0.125000000  0.382411733
     0.750000000  0.250000000  0.454055762
     0.750000000  0.250000000  0.545944238
     0.097680320  0.125000000  0.500000000
     0.902319680  0.125000000  0.500000000
     0.999956134  0.249916866  0.572357968
     0.000204720  0.250060934  0.664902515
     0.849964944  0.124997589  0.618584090
     0.150135124  0.124835977  0.618493254
     0.750245177  0.249866390  0.690141692
     0.749758393  0.250008490  0.783153570
     0.093825488  0.125051542  0.742788748
     0.906385141  0.125046915  0.742611580
     0.750000000  0.500000000  0.218879228
     0.750000000  0.500000000  0.310767704
     0.097680320  0.375000000  0.264823466
     0.902319680  0.375000000  0.264823466
     0.000000000  0.500000000  0.336467495
     0.000000000  0.500000000  0.428355971
     0.847680320  0.375000000  0.382411733
     0.152319680  0.375000000  0.382411733
     0.750000000  0.500000000  0.454055762
     0.750000000  0.500000000  0.545944238
     0.097680320  0.375000000  0.500000000
     0.902319680  0.375000000  0.500000000
     0.999926465  0.499999999  0.572350279
     0.000086078  0.500000000  0.664870373
     0.849936993  0.374927569  0.618535762
     0.150032958  0.374854142  0.618312244
     0.750681130  0.499999993  0.690188306
     0.749264760  0.500000002  0.783110765
     0.093574155  0.375288685  0.743005359
     0.906169205  0.374888050  0.742688581
     0.250000000  0.750000000  0.218879228
     0.250000000  0.750000000  0.310767704
     0.597680320  0.625000000  0.264823466
     0.402319680  0.625000000  0.264823466
     0.500000000  0.750000000  0.336467495
     0.500000000  0.750000000  0.428355971
     0.347680320  0.625000000  0.382411733
     0.652319680  0.625000000  0.382411733
     0.250000000  0.750000000  0.454055762
     0.250000000  0.750000000  0.545944238
     0.597680320  0.625000000  0.500000000
     0.402319680  0.625000000  0.500000000
     0.499936952  0.749164251  0.572357427
     0.500466460  0.750795823  0.664444391
     0.349648214  0.624980228  0.618814912
     0.650326533  0.624927096  0.618697466
     0.248814014  0.750351328  0.690075694
     0.250664370  0.749479830  0.783067060
     0.593712880  0.625782177  0.741950647
     0.405156565  0.626961705  0.740578285
     0.250000000  0.000000000  0.218879228
     0.250000000  0.000000000  0.310767704
     0.597680320  0.875000000  0.264823466
     0.402319680  0.875000000  0.264823466
     0.500000000  0.000000000  0.336467495
     0.500000000  0.000000000  0.428355971
     0.347680320  0.875000000  0.382411733
     0.652319680  0.875000000  0.382411733
     0.250000000  0.000000000  0.454055762
     0.250000000  0.000000000  0.545944238
     0.597680320  0.875000000  0.500000000
     0.402319680  0.875000000  0.500000000
     0.499986056  0.000000010  0.572095997
     0.499939202  0.999999976  0.664455534
     0.349737216  0.874942566  0.618485663
     0.650307261  0.875069702  0.618412181
     0.250037569  0.999999983  0.690258062
     0.250035221  0.000000005  0.783221761
     0.593890712  0.875472105  0.742410316
     0.406258276  0.875083854  0.742457854
     0.250000000  0.250000000  0.218879228
     0.250000000  0.250000000  0.310767704
     0.597680320  0.125000000  0.264823466
     0.402319680  0.125000000  0.264823466
     0.500000000  0.250000000  0.336467495
     0.500000000  0.250000000  0.428355971
     0.347680320  0.125000000  0.382411733
     0.652319680  0.125000000  0.382411733
     0.250000000  0.250000000  0.454055762
     0.250000000  0.250000000  0.545944238
     0.597680320  0.125000000  0.500000000
     0.402319680  0.125000000  0.500000000
     0.499936951  0.250835721  0.572357426
     0.500466460  0.249204222  0.664444392
     0.349737217  0.125057432  0.618485670
     0.650307256  0.124930296  0.618412202
     0.248814021  0.249648701  0.690075696
     0.250664354  0.250520139  0.783067064
     0.593890695  0.124527884  0.742410320
     0.406258247  0.124916140  0.742457740
     0.250000000  0.500000000  0.218879228
     0.250000000  0.500000000  0.310767704
     0.597680320  0.375000000  0.264823466
     0.402319680  0.375000000  0.264823466
     0.500000000  0.500000000  0.336467495
     0.500000000  0.500000000  0.428355971
     0.347680320  0.375000000  0.382411733
     0.652319680  0.375000000  0.382411733
     0.250000000  0.500000000  0.454055762
     0.250000000  0.500000000  0.545944238
     0.597680320  0.375000000  0.500000000
     0.402319680  0.375000000  0.500000000
     0.499933757  0.500000012  0.572616166
     0.500169016  0.499999969  0.665785172
     0.349648212  0.375019769  0.618814904
     0.650326539  0.375072902  0.618697443
     0.247958611  0.499999978  0.689936801
     0.253730831  0.500000009  0.782819449
     0.593712901  0.374217825  0.741950651
     0.405156607  0.373038271  0.740578424

  ion indices of the primitive-cell ions
   primitive index   ion index
                 1           1
                 2           2
                 3           3
                 4           4
                 5           5
                 6           6
                 7           7
                 8           8
                 9           9
                10          10
                11          11
                12          12
                13          13
                14          14
                15          15
                16          16
                17          17
                18          18
                19          19
                20          20
                21          21
                22          22
                23          23
                24          24
                25          25
                26          26
                27          27
                28          28
                29          29
                30          30
                31          31
                32          32
                33          33
                34          34
                35          35
                36          36
                37          37
                38          38
                39          39
                40          40
                41          41
                42          42
                43          43
                44          44
                45          45
                46          46
                47          47
                48          48
                49          49
                50          50
                51          51
                52          52
                53          53
                54          54
                55          55
                56          56
                57          57
                58          58
                59          59
                60          60
                61          61
                62          62
                63          63
                64          64
                65          65
                66          66
                67          67
                68          68
                69          69
                70          70
                71          71
                72          72
                73          73
                74          74
                75          75
                76          76
                77          77
                78          78
                79          79
                80          80
                81          81
                82          82
                83          83
                84          84
                85          85
                86          86
                87          87
                88          88
                89          89
                90          90
                91          91
                92          92
                93          93
                94          94
                95          95
                96          96
                97          97
                98          98
                99          99
               100         100
               101         101
               102         102
               103         103
               104         104
               105         105
               106         106
               107         107
               108         108
               109         109
               110         110
               111         111
               112         112
               113         113
               114         114
               115         115
               116         116
               117         117
               118         118
               119         119
               120         120
               121         121
               122         122
               123         123
               124         124
               125         125
               126         126
               127         127
               128         128
               129         129
               130         130
               131         131
               132         132
               133         133
               134         134
               135         135
               136         136
               137         137
               138         138
               139         139
               140         140
               141         141
               142         142
               143         143
               144         144
               145         145
               146         146
               147         147
               148         148
               149         149
               150         150
               151         151
               152         152
               153         153
               154         154
               155         155
               156         156
               157         157
               158         158
               159         159
               160         160
               161         161
               162         162
               163         163
               164         164
               165         165
               166         166
               167         167
               168         168
               169         169
               170         170
               171         171
               172         172
               173         173
               174         174
               175         175
               176         176
               177         177
               178         178
               179         179
               180         180
               181         181
               182         182
               183         183
               184         184
               185         185
               186         186
               187         187
               188         188
               189         189
               190         190
               191         191
               192         192
               193         193
               194         194
               195         195
               196         196
               197         197
               198         198
               199         199
               200         200
               201         201
               202         202
               203         203
               204         204
               205         205
               206         206
               207         207
               208         208
               209         209
               210         210
               211         211
               212         212
               213         213
               214         214
               215         215
               216         216
               217         217
               218         218
               219         219
               220         220
               221         221
               222         222
               223         223
               224         224
               225         225
               226         226
               227         227
               228         228
               229         229
               230         230
               231         231
               232         232
               233         233
               234         234
               235         235
               236         236
               237         237
               238         238
               239         239
               240         240
               241         241
               242         242
               243         243

----------------------------------------------------------------------------------------



 KPOINTS: pymatgen v2020.8.13 with grid density = 

Automatic generation of k-mesh.
 Grid dimensions read from file:
 generate k-points for:    2    2    1

 Generating k-lattice:

  Cartesian coordinates                     Fractional coordinates (reciprocal lattice)
     0.038779242  0.000000000  0.000000000     0.500000000  0.000000000  0.000000000
     0.000000000  0.042510111  0.000000000     0.000000000  0.500000000  0.000000000
     0.000000000  0.000000000  0.036479871     0.000000000  0.000000000  1.000000000

  Length of vectors
     0.038779242  0.042510111  0.036479871

  Shift w.r.t. Gamma in fractional coordinates (k-lattice)
     0.000000000  0.000000000  0.000000000

 
 Subroutine IBZKPT returns following result:
 ===========================================
 
 Found      4 irreducible k-points:
 
 Following reciprocal coordinates:
            Coordinates               Weight
  0.000000  0.000000  0.000000      1.000000
  0.500000  0.000000  0.000000      1.000000
  0.000000  0.500000  0.000000      1.000000
  0.500000  0.500000  0.000000      1.000000
 
 Following cartesian coordinates:
            Coordinates               Weight
  0.000000  0.000000  0.000000      1.000000
  0.038779  0.000000  0.000000      1.000000
  0.000000  0.042510  0.000000      1.000000
  0.038779  0.042510  0.000000      1.000000
 
 
 Subroutine IBZKPT_HF returns following result:
 ==============================================
 
 Found      4 k-points in 1st BZ
 the following      4 k-points will be used (e.g. in the exchange kernel)
 Following reciprocal coordinates:   # in IRBZ
  0.000000  0.000000  0.000000    0.25000000   1 t-inv F
  0.500000  0.000000  0.000000    0.25000000   2 t-inv F
  0.000000  0.500000  0.000000    0.25000000   3 t-inv F
  0.500000  0.500000  0.000000    0.25000000   4 t-inv F


--------------------------------------------------------------------------------------------------------




 Dimension of arrays:
   k-points           NKPTS =      4   k-points in BZ     NKDIM =      4   number of bands    NBANDS=    896
   number of dos      NEDOS =    301   number of ions     NIONS =    243
   non local maximal  LDIM  =      5   non local SUM 2l+1 LMDIM =     15
   total plane-waves  NPLWV = 806400
   max r-space proj   IRMAX =      1   max aug-charges    IRDMAX=  13595
   dimension x,y,z NGX =    72 NGY =   70 NGZ =  160
   dimension x,y,z NGXF=   144 NGYF=  140 NGZF=  320
   support grid    NGXF=   144 NGYF=  140 NGZF=  320
   ions per type =               1   2  80 160
   NGX,Y,Z   is equivalent  to a cutoff of   9.28,  9.89,  9.70 a.u.
   NGXF,Y,Z  is equivalent  to a cutoff of  18.57, 19.79, 19.41 a.u.

 SYSTEM =  TiO2                                    
 POSCAR =   C  O Ti  O                             

--------------------------------------------------------------------------------------------------------


  energy-cutoff  :      520.00
  volume of cell :     4157.14
      direct lattice vectors                 reciprocal lattice vectors
    12.893495846  0.000000000  0.000000000     0.077558485  0.000000000  0.000000000
     0.000000000 11.761907618  0.000000000     0.000000000  0.085020222  0.000000000
     0.000000000  0.000000000 27.412377441     0.000000000  0.000000000  0.036479871

  length of vectors
    12.893495846 11.761907618 27.412377441     0.077558485  0.085020222  0.036479871



 k-points in units of 2pi/SCALE and weight: pymatgen v2020.8.13 with grid density = 
   0.00000000  0.00000000  0.00000000       0.250
   0.03877924  0.00000000  0.00000000       0.250
   0.00000000  0.04251011  0.00000000       0.250
   0.03877924  0.04251011  0.00000000       0.250

 k-points in reciprocal lattice and weights: pymatgen v2020.8.13 with grid density = 
   0.00000000  0.00000000  0.00000000       0.250
   0.50000000  0.00000000  0.00000000       0.250
   0.00000000  0.50000000  0.00000000       0.250
   0.50000000  0.50000000  0.00000000       0.250

 position of ions in fractional coordinates (direct lattice) 
   0.42114939  0.50000002  0.85174113
   0.36253759  0.49999993  0.88352697
   0.48420770  0.50000012  0.82095982
   0.75000000  0.62500000  0.26482347
   0.00000000  0.75000000  0.26482347
   0.00000000  0.62500000  0.38241173
   0.75000000  0.75000000  0.38241173
   0.75000000  0.62500000  0.50000000
   0.00000000  0.75000000  0.50000000
   0.99993486  0.62502827  0.61562859
   0.74998154  0.74998834  0.62217151
   0.74973253  0.62504195  0.74351604
   0.00001363  0.75012529  0.73104770
   0.75000000  0.87500000  0.26482347
   0.00000000  0.00000000  0.26482347
   0.00000000  0.87500000  0.38241173
   0.75000000  0.00000000  0.38241173
   0.75000000  0.87500000  0.50000000
   0.00000000  0.00000000  0.50000000
   0.99997097  0.87502644  0.61567681
   0.75003241  1.00000000  0.62218134
   0.74988685  0.87505980  0.74354573
   0.00020041  1.00000000  0.73105766
   0.75000000  0.12500000  0.26482347
   0.00000000  0.25000000  0.26482347
   0.00000000  0.12500000  0.38241173
   0.75000000  0.25000000  0.38241173
   0.75000000  0.12500000  0.50000000
   0.00000000  0.25000000  0.50000000
   0.99997097  0.12497356  0.61567681
   0.74998154  0.25001166  0.62217151
   0.74988685  0.12494019  0.74354573
   0.00001364  0.24987471  0.73104770
   0.75000000  0.37500000  0.26482347
   0.00000000  0.50000000  0.26482347
   0.00000000  0.37500000  0.38241173
   0.75000000  0.50000000  0.38241173
   0.75000000  0.37500000  0.50000000
   0.00000000  0.50000000  0.50000000
   0.99993486  0.37497173  0.61562859
   0.75003113  0.50000000  0.62223571
   0.74973254  0.37495805  0.74351605
   0.99942336  0.50000000  0.73101262
   0.25000000  0.62500000  0.26482347
   0.50000000  0.75000000  0.26482347
   0.50000000  0.62500000  0.38241173
   0.25000000  0.75000000  0.38241173
   0.25000000  0.62500000  0.50000000
   0.50000000  0.75000000  0.50000000
   0.49998960  0.62412372  0.61636835
   0.24992029  0.75007689  0.62198989
   0.24930857  0.62537761  0.74291258
   0.50034932  0.75019895  0.73048444
   0.25000000  0.87500000  0.26482347
   0.50000000  0.00000000  0.26482347
   0.50000000  0.87500000  0.38241173
   0.25000000  0.00000000  0.38241173
   0.25000000  0.87500000  0.50000000
   0.50000000  0.00000000  0.50000000
   0.50010987  0.87462437  0.61516933
   0.25009561  1.00000000  0.62219940
   0.25032255  0.87504220  0.74358040
   0.49994917  0.99999999  0.73053493
   0.25000000  0.12500000  0.26482347
   0.50000000  0.25000000  0.26482347
   0.50000000  0.12500000  0.38241173
   0.25000000  0.25000000  0.38241173
   0.25000000  0.12500000  0.50000000
   0.50000000  0.25000000  0.50000000
   0.50010987  0.12537562  0.61516934
   0.24992029  0.24992311  0.62198989
   0.25032254  0.12495780  0.74358040
   0.50034933  0.24980104  0.73048444
   0.25000000  0.37500000  0.26482347
   0.50000000  0.50000000  0.26482347
   0.50000000  0.37500000  0.38241173
   0.25000000  0.50000000  0.38241173
   0.25000000  0.37500000  0.50000000
   0.50000000  0.50000000  0.50000000
   0.49998961  0.37587627  0.61636834
   0.24974946  0.50000000  0.62196747
   0.24930858  0.37462237  0.74291260
   0.49902894  0.49999999  0.73310611
   0.75000000  0.75000000  0.21887923
   0.75000000  0.75000000  0.31076770
   0.09768032  0.62500000  0.26482347
   0.90231968  0.62500000  0.26482347
   0.00000000  0.75000000  0.33646749
   0.00000000  0.75000000  0.42835597
   0.84768032  0.62500000  0.38241173
   0.15231968  0.62500000  0.38241173
   0.75000000  0.75000000  0.45405576
   0.75000000  0.75000000  0.54594424
   0.09768032  0.62500000  0.50000000
   0.90231968  0.62500000  0.50000000
   0.99995613  0.75008313  0.57235797
   0.00020472  0.74993906  0.66490252
   0.84993699  0.62507243  0.61853575
   0.15003296  0.62514585  0.61831225
   0.75024518  0.75013362  0.69014169
   0.74975839  0.74999150  0.78315357
   0.09357414  0.62471131  0.74300538
   0.90616919  0.62511195  0.74268855
   0.75000000  0.00000000  0.21887923
   0.75000000  0.00000000  0.31076770
   0.09768032  0.87500000  0.26482347
   0.90231968  0.87500000  0.26482347
   0.00000000  0.00000000  0.33646749
   0.00000000  0.00000000  0.42835597
   0.84768032  0.87500000  0.38241173
   0.15231968  0.87500000  0.38241173
   0.75000000  0.00000000  0.45405576
   0.75000000  0.00000000  0.54594424
   0.09768032  0.87500000  0.50000000
   0.90231968  0.87500000  0.50000000
   0.99995652  1.00000000  0.57236416
   0.00017184  1.00000000  0.66490772
   0.84996495  0.87500241  0.61858410
   0.15013512  0.87516402  0.61849325
   0.75020394  0.99999999  0.69015282
   0.75030190  0.00000000  0.78317927
   0.09382550  0.87494845  0.74278873
   0.90638515  0.87495308  0.74261161
   0.75000000  0.25000000  0.21887923
   0.75000000  0.25000000  0.31076770
   0.09768032  0.12500000  0.26482347
   0.90231968  0.12500000  0.26482347
   0.00000000  0.25000000  0.33646749
   0.00000000  0.25000000  0.42835597
   0.84768032  0.12500000  0.38241173
   0.15231968  0.12500000  0.38241173
   0.75000000  0.25000000  0.45405576
   0.75000000  0.25000000  0.54594424
   0.09768032  0.12500000  0.50000000
   0.90231968  0.12500000  0.50000000
   0.99995613  0.24991687  0.57235797
   0.00020472  0.25006093  0.66490252
   0.84996494  0.12499759  0.61858409
   0.15013512  0.12483598  0.61849325
   0.75024518  0.24986639  0.69014169
   0.74975839  0.25000849  0.78315357
   0.09382549  0.12505154  0.74278875
   0.90638514  0.12504692  0.74261158
   0.75000000  0.50000000  0.21887923
   0.75000000  0.50000000  0.31076770
   0.09768032  0.37500000  0.26482347
   0.90231968  0.37500000  0.26482347
   0.00000000  0.50000000  0.33646749
   0.00000000  0.50000000  0.42835597
   0.84768032  0.37500000  0.38241173
   0.15231968  0.37500000  0.38241173
   0.75000000  0.50000000  0.45405576
   0.75000000  0.50000000  0.54594424
   0.09768032  0.37500000  0.50000000
   0.90231968  0.37500000  0.50000000
   0.99992647  0.50000000  0.57235028
   0.00008608  0.50000000  0.66487037
   0.84993699  0.37492757  0.61853576
   0.15003296  0.37485414  0.61831224
   0.75068113  0.49999999  0.69018831
   0.74926476  0.50000000  0.78311077
   0.09357416  0.37528868  0.74300536
   0.90616920  0.37488805  0.74268858
   0.25000000  0.75000000  0.21887923
   0.25000000  0.75000000  0.31076770
   0.59768032  0.62500000  0.26482347
   0.40231968  0.62500000  0.26482347
   0.50000000  0.75000000  0.33646749
   0.50000000  0.75000000  0.42835597
   0.34768032  0.62500000  0.38241173
   0.65231968  0.62500000  0.38241173
   0.25000000  0.75000000  0.45405576
   0.25000000  0.75000000  0.54594424
   0.59768032  0.62500000  0.50000000
   0.40231968  0.62500000  0.50000000
   0.49993695  0.74916425  0.57235743
   0.50046646  0.75079582  0.66444439
   0.34964821  0.62498023  0.61881491
   0.65032653  0.62492710  0.61869747
   0.24881401  0.75035133  0.69007569
   0.25066437  0.74947983  0.78306706
   0.59371288  0.62578218  0.74195065
   0.40515657  0.62696171  0.74057829
   0.25000000  0.00000000  0.21887923
   0.25000000  0.00000000  0.31076770
   0.59768032  0.87500000  0.26482347
   0.40231968  0.87500000  0.26482347
   0.50000000  0.00000000  0.33646749
   0.50000000  0.00000000  0.42835597
   0.34768032  0.87500000  0.38241173
   0.65231968  0.87500000  0.38241173
   0.25000000  0.00000000  0.45405576
   0.25000000  0.00000000  0.54594424
   0.59768032  0.87500000  0.50000000
   0.40231968  0.87500000  0.50000000
   0.49998606  0.00000001  0.57209600
   0.49993920  0.99999998  0.66445553
   0.34973722  0.87494257  0.61848566
   0.65030726  0.87506970  0.61841218
   0.25003757  0.99999998  0.69025806
   0.25003522  0.00000001  0.78322176
   0.59389071  0.87547210  0.74241032
   0.40625828  0.87508385  0.74245785
   0.25000000  0.25000000  0.21887923
   0.25000000  0.25000000  0.31076770
   0.59768032  0.12500000  0.26482347
   0.40231968  0.12500000  0.26482347
   0.50000000  0.25000000  0.33646749
   0.50000000  0.25000000  0.42835597
   0.34768032  0.12500000  0.38241173
   0.65231968  0.12500000  0.38241173
   0.25000000  0.25000000  0.45405576
   0.25000000  0.25000000  0.54594424
   0.59768032  0.12500000  0.50000000
   0.40231968  0.12500000  0.50000000
   0.49993695  0.25083572  0.57235743
   0.50046646  0.24920422  0.66444439
   0.34973722  0.12505743  0.61848567
   0.65030726  0.12493030  0.61841220
   0.24881402  0.24964870  0.69007570
   0.25066435  0.25052014  0.78306706
   0.59389070  0.12452788  0.74241032
   0.40625825  0.12491614  0.74245774
   0.25000000  0.50000000  0.21887923
   0.25000000  0.50000000  0.31076770
   0.59768032  0.37500000  0.26482347
   0.40231968  0.37500000  0.26482347
   0.50000000  0.50000000  0.33646749
   0.50000000  0.50000000  0.42835597
   0.34768032  0.37500000  0.38241173
   0.65231968  0.37500000  0.38241173
   0.25000000  0.50000000  0.45405576
   0.25000000  0.50000000  0.54594424
   0.59768032  0.37500000  0.50000000
   0.40231968  0.37500000  0.50000000
   0.49993376  0.50000001  0.57261617
   0.50016902  0.49999997  0.66578517
   0.34964821  0.37501977  0.61881490
   0.65032654  0.37507290  0.61869744
   0.24795861  0.49999998  0.68993680
   0.25373083  0.50000001  0.78281945
   0.59371290  0.37421782  0.74195065
   0.40515661  0.37303827  0.74057842

 position of ions in cartesian coordinates  (Angst):
   5.43008790  5.88095403 23.34824942
   4.67437696  5.88095294 24.21957476
   6.24312993  5.88095524 22.50446042
   9.67012188  7.35119226  7.25944080
   0.00000000  8.82143071  7.25944080
   0.00000000  7.35119226 10.48281476
   9.67012188  8.82143071 10.48281476
   9.67012188  7.35119226 13.70618872
   0.00000000  8.82143071 13.70618872
  12.89265595  7.35152474 16.87584324
   9.66988392  8.82129351 17.05520035
   9.66667332  7.35168562 20.38154245
   0.00017578  8.82290439 20.03975545
   9.67012188 10.29166917  7.25944080
   0.00000000  0.00000000  7.25944080
   0.00000000 10.29166917 10.48281476
   9.67012188  0.00000000 10.48281476
   9.67012188 10.29166917 13.70618872
   0.00000000  0.00000000 13.70618872
  12.89312159 10.29198016 16.87716515
   9.67053981 11.76190760 17.05546972
   9.66866297 10.29237257 20.38235629
   0.00258402 11.76190758 20.04002838
   9.67012188  1.47023845  7.25944080
   0.00000000  2.94047690  7.25944080
   0.00000000  1.47023845 10.48281476
   9.67012188  2.94047690 10.48281476
   9.67012188  1.47023845 13.70618872
   0.00000000  2.94047690 13.70618872
  12.89312155  1.46992745 16.87716515
   9.66988391  2.94061411 17.05520035
   9.66866302  1.46953498 20.38235627
   0.00017581  2.93900321 20.03975545
   9.67012188  4.41071536  7.25944080
   0.00000000  5.88095381  7.25944080
   0.00000000  4.41071536 10.48281476
   9.67012188  5.88095381 10.48281476
   9.67012188  4.41071536 13.70618872
   0.00000000  5.88095381 13.70618872
  12.89265598  4.41038286 16.87584325
   9.67052325  5.88095379 17.05696008
   9.66667333  4.41022194 20.38154248
  12.88606096  5.88095377 20.03879392
   3.22337396  7.35119226  7.25944080
   6.44674792  8.82143071  7.25944080
   6.44674792  7.35119226 10.48281476
   3.22337396  8.82143071 10.48281476
   3.22337396  7.35119226 13.70618872
   6.44674792  8.82143071 13.70618872
   6.44661389  7.34088557 16.89612193
   3.22234621  8.82233508 17.05022170
   3.21445899  7.35563371 20.36500017
   6.45125183  8.82377080 20.02431513
   3.22337396 10.29166917  7.25944080
   6.44674792  0.00000000  7.25944080
   6.44674792 10.29166917 10.48281476
   3.22337396  0.00000000 10.48281476
   3.22337396 10.29166917 13.70618872
   6.44674792  0.00000000 13.70618872
   6.44816453 10.28725108 16.86325385
   3.22460676 11.76190759 17.05596476
   3.22753281 10.29216548 20.38330672
   6.44609256 11.76190752 20.02569927
   3.22337396  1.47023845  7.25944080
   6.44674792  2.94047690  7.25944080
   6.44674792  1.47023845 10.48281476
   3.22337396  2.94047690 10.48281476
   3.22337396  1.47023845 13.70618872
   6.44674792  2.94047690 13.70618872
   6.44816449  1.47465650 16.86325420
   3.22234622  2.93957255 17.05022171
   3.22753266  1.46974205 20.38330655
   6.45125198  2.93813681 20.02431515
   3.22337396  4.41071536  7.25944080
   6.44674792  5.88095381  7.25944080
   6.44674792  4.41071536 10.48281476
   3.22337396  5.88095381 10.48281476
   3.22337396  4.41071536 13.70618872
   6.44674792  5.88095381 13.70618872
   6.44661394  4.42102200 16.89612155
   3.22014363  5.88095377 17.04960698
   3.21445920  4.40627376 20.36500047
   6.43422762  5.88095375 20.09618133
   9.67012188  8.82143071  6.00000000
   9.67012188  8.82143071  8.51888160
   1.25944080  7.35119226  7.25944080
  11.63405505  7.35119226  7.25944080
   0.00000000  8.82143071  9.22337396
   0.00000000  8.82143071 11.74225556
  10.92956268  7.35119226 10.48281476
   1.96393316  7.35119226 10.48281476
   9.67012188  8.82143071 12.44674792
   9.67012188  8.82143071 14.96562952
   1.25944080  7.35119226 13.70618872
  11.63405505  7.35119226 13.70618872
  12.89293027  8.82240851 15.68969266
   0.00263955  8.82071397 18.22655871
  10.95865905  7.35204416 16.95553552
   1.93444935  7.35290779 16.94940871
   9.67328313  8.82300229 18.91842454
   9.66700671  8.82133072 21.46810126
   1.20649777  7.34779673 20.36754401
  11.68368869  7.35250897 20.35885896
   9.67012188  0.00000000  6.00000000
   9.67012188  0.00000000  8.51888160
   1.25944080 10.29166917  7.25944080
  11.63405505 10.29166917  7.25944080
   0.00000000  0.00000000  9.22337396
   0.00000000  0.00000000 11.74225556
  10.92956268 10.29166917 10.48281476
   1.96393316 10.29166917 10.48281476
   9.67012188  0.00000000 12.44674792
   9.67012188  0.00000000 14.96562952
   1.25944080 10.29166917 13.70618872
  11.63405505 10.29166917 13.70618872
  12.89293525 11.76190761 15.68986237
   0.00221557 11.76190761 18.22670136
  10.95901950 10.29169750 16.95686080
   1.93576658 10.29359838 16.95437043
   9.67275136 11.76190755 18.91872957
   9.67401442  0.00000000 21.46880584
   1.20973874 10.29106286 20.36160489
  11.68647322 10.29111731 20.35674965
   9.67012188  2.94047690  6.00000000
   9.67012188  2.94047690  8.51888160
   1.25944080  1.47023845  7.25944080
  11.63405505  1.47023845  7.25944080
   0.00000000  2.94047690  9.22337396
   0.00000000  2.94047690 11.74225556
  10.92956268  1.47023845 10.48281476
   1.96393316  1.47023845 10.48281476
   9.67012188  2.94047690 12.44674792
   9.67012188  2.94047690 14.96562952
   1.25944080  1.47023845 13.70618872
  11.63405505  1.47023845 13.70618872
  12.89293026  2.93949909 15.68969266
   0.00263956  2.94119361 18.22655871
  10.95901947  1.47021010 16.95686056
   1.93576660  1.46830923 16.95437053
   9.67328308  2.93890540 18.91842454
   9.66700673  2.94057677 21.46810126
   1.20973854  1.47084469 20.36160553
  11.68647305  1.47079027 20.35674893
   9.67012188  5.88095381  6.00000000
   9.67012188  5.88095381  8.51888160
   1.25944080  4.41071536  7.25944080
  11.63405505  4.41071536  7.25944080
   0.00000000  5.88095381  9.22337396
   0.00000000  5.88095381 11.74225556
  10.92956268  4.41071536 10.48281476
   1.96393316  4.41071536 10.48281476
   9.67012188  5.88095381 12.44674792
   9.67012188  5.88095381 14.96562952
   1.25944080  4.41071536 13.70618872
  11.63405505  4.41071536 13.70618872
  12.89254773  5.88095380 15.68948187
   0.00110985  5.88095381 18.22567761
  10.95865908  4.40986343 16.95553576
   1.93444933  4.40899978 16.94940862
   9.67890403  5.88095373 18.91970236
   9.66064207  5.88095384 21.46692787
   1.20649798  4.41411084 20.36754334
  11.68368888  4.40939861 20.35885969
   3.22337396  8.82143071  6.00000000
   3.22337396  8.82143071  8.51888160
   7.70618872  7.35119226  7.25944080
   5.18730713  7.35119226  7.25944080
   6.44674792  8.82143071  9.22337396
   6.44674792  8.82143071 11.74225556
   4.48281476  7.35119226 10.48281476
   8.41068109  7.35119226 10.48281476
   3.22337396  8.82143071 12.44674792
   3.22337396  8.82143071 14.96562952
   7.70618872  7.35119226 13.70618872
   5.18730713  7.35119226 13.70618872
   6.44593501  8.81160071 15.68967783
   6.45276222  8.83079111 18.21400045
   4.50818780  7.35095970 16.96318795
   8.38498245  7.35033477 16.95996846
   3.20808245  8.82556300 18.91661538
   3.23194002  8.81531253 21.46572982
   7.65503455  7.36039216 20.33863117
   5.22388449  7.37426566 20.30101148
   3.22337396  0.00000000  6.00000000
[...]
      9.67012      5.88095     10.48281        -0.001452     -0.000000     -0.841775
      9.67012      4.41072     13.70619        -0.012743      0.006259      0.741892
      0.00000      5.88095     13.70619        -0.011203      0.000000     -0.748885
     12.89266      4.41038     16.87584         0.000006     -0.000223      0.000089
      9.67052      5.88095     17.05697        -0.000213      0.000000      0.000644
      9.66667      4.41023     20.38153        -0.000993      0.000606     -0.001437
     12.88605      5.88095     20.03880        -0.001383      0.000000      0.000378
      3.22337      7.35119      7.25944         0.000108      0.000363     -4.002590
      6.44675      8.82143      7.25944         0.000452      0.000583      3.059038
      6.44675      7.35119     10.48281         0.003461      0.007409      0.588908
      3.22337      8.82143     10.48281         0.002076      0.001398     -0.853382
      3.22337      7.35119     13.70619         0.013140      0.005465      0.699760
      6.44675      8.82143     13.70619         0.008068     -0.020591     -0.683620
      6.44661      7.34088     16.89612        -0.000144     -0.000797      0.000479
      3.22235      8.82234     17.05023        -0.000126      0.000974      0.000890
      3.21446      7.35562     20.36500         0.000465     -0.001429      0.000178
      6.45125      8.82377     20.02430        -0.000543      0.000354     -0.001499
      3.22337     10.29167      7.25944         0.000317      0.000426     -4.002249
      6.44675      0.00000      7.25944         0.000437     -0.000000      3.059313
      6.44675     10.29167     10.48281         0.003026      0.003431      0.593689
      3.22337      0.00000     10.48281         0.002634      0.000000     -0.851412
      3.22337     10.29167     13.70619         0.007751      0.025630      0.720199
      6.44675      0.00000     13.70619         0.005308      0.000001     -0.790051
      6.44817     10.28724     16.86326         0.000218     -0.000832      0.000919
      3.22462     11.76191     17.05597         0.002062     -0.000000      0.000694
      3.22752     10.29215     20.38331        -0.001735     -0.000747      0.000440
      6.44610     11.76191     20.02568         0.000391      0.000000     -0.001687
      3.22337      1.47024      7.25944         0.000317     -0.000426     -4.002249
      6.44675      2.94048      7.25944         0.000452     -0.000583      3.059038
      6.44675      1.47024     10.48281         0.003026     -0.003431      0.593689
      3.22337      2.94048     10.48281         0.002076     -0.001398     -0.853382
      3.22337      1.47024     13.70619         0.007751     -0.025630      0.720199
      6.44675      2.94048     13.70619         0.008068      0.020590     -0.683620
      6.44817      1.47466     16.86326         0.000218      0.000832      0.000919
      3.22235      2.93957     17.05023        -0.000126     -0.000974      0.000890
      3.22752      1.46975     20.38331        -0.001735      0.000747      0.000440
      6.45125      2.93814     20.02430        -0.000543     -0.000354     -0.001499
      3.22337      4.41072      7.25944         0.000108     -0.000363     -4.002590
      6.44675      5.88095      7.25944         0.000404     -0.000000      3.058712
      6.44675      4.41072     10.48281         0.003461     -0.007409      0.588908
      3.22337      5.88095     10.48281         0.001671     -0.000000     -0.855214
      3.22337      4.41072     13.70619         0.013140     -0.005465      0.699760
      6.44675      5.88095     13.70619         0.011001      0.000000     -0.685102
      6.44661      4.42103     16.89612        -0.000144      0.000797      0.000479
      3.22014      5.88095     17.04961        -0.000877      0.000000      0.000252
      3.21446      4.40629     20.36501         0.000466      0.001429      0.000178
      6.43421      5.88095     20.09616        -0.002078      0.000000     -0.002510
      9.67012      8.82143      6.00000        -0.000187     -0.000265      2.085295
      9.67012      8.82143      8.51888         0.000258     -0.000178      2.088804
      1.25944      7.35119      7.25944        -2.103229     -0.000071     -0.832536
     11.63406      7.35119      7.25944         2.104005     -0.000074     -0.832739
      0.00000      8.82143      9.22337         0.000458     -0.000127     -1.601791
      0.00000      8.82143     11.74226         0.000955     -0.000126     -0.062270
     10.92956      7.35119     10.48281         0.551814     -0.000048      0.057859
      1.96393      7.35119     10.48281        -0.548048     -0.000464      0.059315
      9.67012      8.82143     12.44675         0.001554      0.001021     -0.165783
      9.67012      8.82143     14.96563         0.004215     -0.001384      0.212112
      1.25944      7.35119     13.70619        -0.444172     -0.000463      0.103724
     11.63406      7.35119     13.70619         0.461861      0.000718      0.100369
     12.89293      8.82241     15.68970         0.000151     -0.000370      0.000324
      0.00264      8.82072     18.22656        -0.000027      0.000417      0.000534
     10.95865      7.35204     16.95553        -0.000626     -0.000214     -0.000337
      1.93445      7.35291     16.94941        -0.000349     -0.000101     -0.000291
      9.67328      8.82302     18.91842        -0.000591      0.001793     -0.000764
      9.66700      8.82134     21.46810        -0.000625      0.001051      0.000083
      1.20649      7.34779     20.36755        -0.000916     -0.000334      0.000454
     11.68369      7.35251     20.35885        -0.000127     -0.000200     -0.001507
      9.67012      0.00000      6.00000        -0.000128     -0.000000      2.085635
      9.67012      0.00000      8.51888         0.000313      0.000000      2.088852
      1.25944     10.29167      7.25944        -2.103310     -0.000050     -0.832545
     11.63406     10.29167      7.25944         2.104091     -0.000049     -0.832690
      0.00000      0.00000      9.22337         0.000446     -0.000000     -1.601836
      0.00000      0.00000     11.74226         0.000839     -0.000000     -0.062295
     10.92956     10.29167     10.48281         0.551718     -0.000072      0.057944
      1.96393     10.29167     10.48281        -0.548355     -0.000498      0.059141
      9.67012      0.00000     12.44675         0.000974     -0.000000     -0.164711
      9.67012      0.00000     14.96563         0.010111      0.000000      0.203573
      1.25944     10.29167     13.70619        -0.448227     -0.001410      0.101450
     11.63406     10.29167     13.70619         0.459200      0.000078      0.099362
     12.89293     11.76191     15.68988        -0.000075     -0.000000      0.002128
      0.00222     11.76191     18.22670        -0.000014      0.000000     -0.000313
     10.95902     10.29170     16.95686        -0.000142      0.000034     -0.000837
      1.93576     10.29360     16.95436        -0.000432      0.000098     -0.000962
      9.67275     11.76191     18.91873        -0.000347     -0.000000     -0.000196
      9.67401      0.00000     21.46881        -0.000746      0.000000      0.001241
      1.20974     10.29106     20.36161         0.000233     -0.000365      0.001246
     11.68647     10.29112     20.35675        -0.000717      0.000093      0.000337
      9.67012      2.94048      6.00000        -0.000187      0.000265      2.085295
      9.67012      2.94048      8.51888         0.000258      0.000178      2.088804
      1.25944      1.47024      7.25944        -2.103310      0.000050     -0.832545
     11.63406      1.47024      7.25944         2.104091      0.000049     -0.832690
      0.00000      2.94048      9.22337         0.000458      0.000127     -1.601791
      0.00000      2.94048     11.74226         0.000955      0.000126     -0.062270
     10.92956      1.47024     10.48281         0.551718      0.000072      0.057944
      1.96393      1.47024     10.48281        -0.548355      0.000498      0.059141
      9.67012      2.94048     12.44675         0.001554     -0.001021     -0.165783
      9.67012      2.94048     14.96563         0.004215      0.001384      0.212112
      1.25944      1.47024     13.70619        -0.448227      0.001410      0.101450
     11.63406      1.47024     13.70619         0.459200     -0.000078      0.099362
     12.89293      2.93950     15.68970         0.000151      0.000370      0.000324
      0.00264      2.94119     18.22656        -0.000027     -0.000417      0.000534
     10.95902      1.47021     16.95686        -0.000142     -0.000034     -0.000837
      1.93576      1.46831     16.95436        -0.000432     -0.000098     -0.000961
      9.67328      2.93889     18.91842        -0.000591     -0.001792     -0.000764
      9.66700      2.94057     21.46810        -0.000625     -0.001051      0.000083
      1.20974      1.47085     20.36161         0.000233      0.000365      0.001246
     11.68647      1.47079     20.35675        -0.000717     -0.000092      0.000337
      9.67012      5.88095      6.00000        -0.000247      0.000000      2.084949
      9.67012      5.88095      8.51888         0.000213      0.000000      2.088671
      1.25944      4.41072      7.25944        -2.103229      0.000071     -0.832536
     11.63406      4.41072      7.25944         2.104005      0.000074     -0.832739
      0.00000      5.88095      9.22337         0.000472     -0.000000     -1.601760
      0.00000      5.88095     11.74226         0.001054     -0.000000     -0.062148
     10.92956      4.41072     10.48281         0.551814      0.000048      0.057859
      1.96393      4.41072     10.48281        -0.548048      0.000464      0.059315
      9.67012      5.88095     12.44675         0.002379     -0.000000     -0.167218
      9.67012      5.88095     14.96563         0.003783      0.000000      0.214084
      1.25944      4.41072     13.70619        -0.444172      0.000463      0.103724
     11.63406      4.41072     13.70619         0.461861     -0.000718      0.100369
     12.89255      5.88095     15.68947         0.000033     -0.000000     -0.001073
      0.00111      5.88095     18.22569         0.000030     -0.000000      0.001048
     10.95865      4.40987     16.95553        -0.000626      0.000214     -0.000337
      1.93445      4.40900     16.94941        -0.000349      0.000101     -0.000291
      9.67890      5.88095     18.91968        -0.000904     -0.000000     -0.002618
      9.66063      5.88095     21.46693        -0.001399      0.000000     -0.000402
      1.20649      4.41411     20.36755        -0.000916      0.000334      0.000454
     11.68369      4.40940     20.35885        -0.000127      0.000200     -0.001507
      3.22337      8.82143      6.00000         0.000278     -0.000232      2.086450
      3.22337      8.82143      8.51888        -0.000168     -0.000284      2.092203
      7.70619      7.35119      7.25944        -2.103644     -0.000311     -0.833314
      5.18731      7.35119      7.25944         2.103046     -0.000304     -0.833043
      6.44675      8.82143      9.22337        -0.000362     -0.001666     -1.605719
      6.44675      8.82143     11.74226        -0.001023     -0.003505     -0.077819
      4.48281      7.35119     10.48281         0.545727     -0.000833      0.058997
      8.41068      7.35119     10.48281        -0.549365     -0.000401      0.057525
      3.22337      8.82143     12.44675        -0.001375     -0.006104     -0.149928
      3.22337      8.82143     14.96563        -0.000921     -0.005140      0.220814
      7.70619      7.35119     13.70619        -0.452549     -0.018361      0.092523
      5.18731      7.35119     13.70619         0.433306     -0.018998      0.093462
      6.44593      8.81159     15.68969        -0.000071     -0.001771      0.001507
      6.45276      8.83080     18.21399         0.000032      0.000754     -0.001547
      4.50820      7.35096     16.96320         0.001077     -0.000006      0.001421
      8.38498      7.35033     16.95998        -0.000826     -0.000011      0.001286
      3.20808      8.82558     18.91661        -0.001011      0.001611     -0.001013
      3.23194      8.81532     21.46573         0.000088      0.000698     -0.000137
      7.65502      7.36038     20.33864        -0.001433     -0.001102      0.001390
      5.22389      7.37426     20.30101         0.000303     -0.000569     -0.000567
      3.22337      0.00000      6.00000         0.000213      0.000000      2.086453
      3.22337      0.00000      8.51888        -0.000237      0.000000      2.091468
      7.70619     10.29167      7.25944        -2.103577     -0.000258     -0.833255
      5.18731     10.29167      7.25944         2.102979     -0.000257     -0.833133
      6.44675      0.00000      9.22337        -0.000359     -0.000000     -1.607046
      6.44675      0.00000     11.74226        -0.000737     -0.000000     -0.086397
      4.48281     10.29167     10.48281         0.544418     -0.000625      0.058597
      8.41068     10.29167     10.48281        -0.547645     -0.000209      0.057382
      3.22337      0.00000     12.44675        -0.001193     -0.000000     -0.153848
      3.22337      0.00000     14.96563         0.001569      0.000000      0.205049
      7.70619     10.29167     13.70619        -0.447082     -0.007492      0.101130
      5.18731     10.29167     13.70619         0.435719     -0.008177      0.100840
      6.44657      0.00000     15.68251        -0.000130      0.000000     -0.000177
      6.44597     11.76191     18.21432         0.000335      0.000000      0.000898
      4.50933     10.29099     16.95416        -0.000909     -0.000126     -0.000942
      8.38474     10.29249     16.95214         0.001254     -0.000057     -0.001252
      3.22385     11.76191     18.92160        -0.000925     -0.000000     -0.001467
      3.22382      0.00000     21.46999        -0.000789      0.000000      0.002527
      7.65732     10.29723     20.35123        -0.000586      0.001282     -0.000756
      5.23808     10.29267     20.35253        -0.000829      0.001306     -0.001503
      3.22337      2.94048      6.00000         0.000278      0.000232      2.086450
      3.22337      2.94048      8.51888        -0.000168      0.000284      2.092203
      7.70619      1.47024      7.25944        -2.103577      0.000258     -0.833255
      5.18731      1.47024      7.25944         2.102979      0.000257     -0.833133
      6.44675      2.94048      9.22337        -0.000362      0.001666     -1.605719
      6.44675      2.94048     11.74226        -0.001023      0.003505     -0.077819
      4.48281      1.47024     10.48281         0.544418      0.000625      0.058597
      8.41068      1.47024     10.48281        -0.547645      0.000209      0.057382
      3.22337      2.94048     12.44675        -0.001375      0.006104     -0.149929
      3.22337      2.94048     14.96563        -0.000921      0.005140      0.220814
      7.70619      1.47024     13.70619        -0.447081      0.007492      0.101130
      5.18731      1.47024     13.70619         0.435718      0.008177      0.100839
      6.44593      2.95032     15.68969        -0.000071      0.001771      0.001507
      6.45276      2.93111     18.21399         0.000032     -0.000754     -0.001547
      4.50933      1.47091     16.95416        -0.000909      0.000126     -0.000942
      8.38474      1.46942     16.95214         0.001254      0.000057     -0.001252
      3.20808      2.93633     18.91661        -0.001011     -0.001610     -0.001013
      3.23194      2.94659     21.46573         0.000088     -0.000698     -0.000137
      7.65732      1.46467     20.35123        -0.000586     -0.001282     -0.000756
      5.23808      1.46924     20.35252        -0.000829     -0.001305     -0.001503
      3.22337      5.88095      6.00000         0.000331     -0.000000      2.086482
      3.22337      5.88095      8.51888        -0.000129      0.000000      2.092800
      7.70619      4.41072      7.25944        -2.103644      0.000311     -0.833314
      5.18731      4.41072      7.25944         2.103046      0.000304     -0.833044
      6.44675      5.88095      9.22337        -0.000370      0.000000     -1.603938
      6.44675      5.88095     11.74226        -0.001179      0.000000     -0.051662
      4.48281      4.41072     10.48281         0.545727      0.000833      0.058997
      8.41068      4.41072     10.48281        -0.549365      0.000401      0.057525
      3.22337      5.88095     12.44675        -0.002355     -0.000000     -0.146998
      3.22337      5.88095     14.96563         0.001519      0.000000      0.218036
      7.70619      4.41072     13.70619        -0.452549      0.018361      0.092524
      5.18731      4.41072     13.70619         0.433306      0.018998      0.093463
      6.44589      5.88095     15.69678        -0.000337     -0.000000      0.001489
      6.44892      5.88095     18.25078        -0.000442     -0.000000      0.003395
      4.50820      4.41095     16.96320         0.001077      0.000006      0.001421
      8.38498      4.41157     16.95998        -0.000826      0.000011      0.001286
      3.19705      5.88095     18.91279        -0.001208     -0.000000     -0.002025
      3.27150      5.88095     21.45892         0.003118      0.000000     -0.002469
      7.65502      4.40152     20.33864        -0.001433      0.001102      0.001390
      5.22389      4.38765     20.30101         0.000303      0.000569     -0.000567
 -----------------------------------------------------------------------------------
    total drift:                               -0.011109      0.000000      0.057080


--------------------------------------------------------------------------------------------------------



  FREE ENERGIE OF THE ION-ELECTRON SYSTEM (eV)
  ---------------------------------------------------
  free  energy   TOTEN  =     -2647.36643778 eV

  energy  without entropy=    -2647.36643778  energy(sigma->0) =    -2647.36643778

 d Force = 0.1574684E-03[-0.194E-05, 0.317E-03]  d Energy = 0.1652795E-03-0.781E-05
 d Force = 0.1349783E+01[ 0.135E+01, 0.135E+01]  d Ewald  = 0.1349782E+01 0.438E-06


--------------------------------------------------------------------------------------------------------


    POTLOK:  cpu time      2.0620: real time      2.0640


--------------------------------------------------------------------------------------------------------




--------------------------------------------------------------------------------------------------------


  
 reached required accuracy - stopping structural energy minimisation
     LOOP+:  cpu time   2594.1520: real time   2595.7006
    4ORBIT:  cpu time      0.0000: real time      0.0000

 total amount of memory used by VASP MPI-rank0   396291. kBytes
=======================================================================

   base      :      30000. kBytes
   nonl-proj :      81776. kBytes
   fftplans  :       6773. kBytes
   grid      :       7283. kBytes
   one-center:        334. kBytes
   HF        :        135. kBytes
   nonlr-proj:     159571. kBytes
   wavefun   :       6479. kBytes
   fock_wrk  :     103940. kBytes

  
  
 General timing and accounting informations for this job:
 ========================================================
  
                  Total CPU time used (sec):    29361.943
                            User time (sec):    29275.421
                          System time (sec):       86.523
                         Elapsed time (sec):    29409.402
  
                   Maximum memory used (kb):      632528.
                   Average memory used (kb):          N/A
  
                          Minor page faults:       596859
                          Major page faults:         1531
                 Voluntary context switches:        24894
