 vasp.6.3.0 20Jan22 (build Apr  1 2022 16:44:48) complex                         
 executed on        HPECrayEX_GCC date 2022.11.06  22:31:51
 running  512 mpi-ranks, with    1 threads/rank
 distrk:  each k-point on  512 cores,    1 groups
 distr:  one band on NCORE=   8 cores,   64 groups


--------------------------------------------------------------------------------------------------------


 INCAR:
   SYSTEM = MgO-rocksalt
   ISMEAR = 0
   SIGMA = 0.05
   EDIFF = 1E-6
   ALGO = ALL
   ISTART = 0
   IBRION = -1
   NSW = 0
   ISYM = 0
   DIPOL = 0.5 0.5 0.5
   IDIPOL = 3
   LDIPOL = .TRUE.
   GGA = PE
   IVDW = 1
   VDW_C6 = 1.75 0.14 0.63 0.70
   VDW_R0 = 1.452 1.001 1.243 1.342
   ENCUT = 600
   PREC = Accurate
   LASPH = .TRUE.
   LREAL = .FALSE.
   ISPIN = 1
   NELM = 200
   NELMIN = 8
   NCORE = 8
   KPAR = 1
   LWAVE = .FALSE.
   LCHARG = .FALSE.

 POTCAR:    PAW_PBE C 08Apr2002                   
 POTCAR:    PAW_PBE H 15Jun2001                   
 POTCAR:    PAW_PBE Mg_pv 13Apr2007               
 POTCAR:    PAW_PBE O 08Apr2002                   
 POTCAR:    PAW_PBE C 08Apr2002                   
   SHA256 =  253f7b50bb8d59471dbedb8285d89021f4a42ed1a2c5d38a03a736e69125dd95 C/POTCAR              
   COPYR  = (c) Copyright 08Apr2002 Georg Kresse                                                    
   COPYR  = This file is part of the software VASP. Any use, copying, and all other rights are regul
   COPYR  = If you do not have a valid VASP license, you may not use, copy or distribute this file. 
   VRHFIN =C: s2p2                                                                                  
   LEXCH  = PE                                                                                      
   EATOM  =   147.1560 eV,   10.8157 Ry                                                             
                                                                                                    
   TITEL  = PAW_PBE C 08Apr2002                                                                     
   LULTRA =        F    use ultrasoft PP ?                                                          
   IUNSCR =        1    unscreen: 0-lin 1-nonlin 2-no                                               
   RPACOR =    1.200    partial core radius                                                         
   POMASS =   12.011; ZVAL   =    4.000    mass and valenz                                          
   RCORE  =    1.500    outmost cutoff radius                                                       
   RWIGS  =    1.630; RWIGS  =    0.863    wigner-seitz radius (au A)                               
   ENMAX  =  400.000; ENMIN  =  300.000 eV                                                          
   ICORE  =        2    local potential                                                             
   LCOR   =        T    correct aug charges                                                         
   LPAW   =        T    paw PP                                                                      
   EAUG   =  644.873                                                                                
   DEXC   =    0.000                                                                                
   RMAX   =    1.529    core radius for proj-oper                                                   
   RAUG   =    1.300    factor for augmentation sphere                                              
   RDEP   =    1.501    radius for radial grids                                                     
   RDEPT  =    1.300    core radius for aug-charge                                                  
                                                                                                    
   Atomic configuration                                                                             
    4 entries                                                                                       
     n  l   j            E        occ.                                                              
     1  0  0.50      -273.3789   2.0000                                                             
     2  0  0.50       -13.7508   2.0000                                                             
     2  1  0.50        -5.2854   2.0000                                                             
     3  2  1.50        -5.4423   0.0000                                                             
   Description                                                                                      
     l       E           TYP  RCUT    TYP  RCUT                                                     
     0    -13.7508458     23  1.200                                                                 
     0     -8.2022199     23  1.200                                                                 
     1     -5.2854383     23  1.500                                                                 
     1     34.0145650     23  1.500                                                                 
     2     -5.4423304      7  1.500                                                                 
  local pseudopotential read in
  partial core-charges read in
  partial kinetic energy density read in
  atomic valenz-charges read in
  non local Contribution for L=           0  read in
    real space projection operators read in
  non local Contribution for L=           0  read in
    real space projection operators read in
  non local Contribution for L=           1  read in
    real space projection operators read in
  non local Contribution for L=           1  read in
    real space projection operators read in
    PAW grid and wavefunctions read in

   number of l-projection  operators is LMAX  =           4
   number of lm-projection operators is LMMAX =           8

 POTCAR:    PAW_PBE H 15Jun2001                   
   SHA256 =  030f79b5d3ab3cf0e668861823c8fb652ff669f3e15e46930bd03bfd63a607b6 H/POTCAR              
   COPYR  = (c) Copyright 15Jun2001 Georg Kresse                                                    
   COPYR  = This file is part of the software VASP. Any use, copying, and all other rights are regul
   COPYR  = If you do not have a valid VASP license, you may not use, copy or distribute this file. 
   VRHFIN =H: ultrasoft test                                                                        
   LEXCH  = PE                                                                                      
   EATOM  =    12.4884 eV,    0.9179 Ry                                                             
                                                                                                    
   TITEL  = PAW_PBE H 15Jun2001                                                                     
   LULTRA =        F    use ultrasoft PP ?                                                          
   IUNSCR =        0    unscreen: 0-lin 1-nonlin 2-no                                               
   RPACOR =    0.000    partial core radius                                                         
   POMASS =    1.000; ZVAL   =    1.000    mass and valenz                                          
   RCORE  =    1.100    outmost cutoff radius                                                       
   RWIGS  =    0.700; RWIGS  =    0.370    wigner-seitz radius (au A)                               
   ENMAX  =  250.000; ENMIN  =  200.000 eV                                                          
   RCLOC  =    0.701    cutoff for local pot                                                        
   LCOR   =        T    correct aug charges                                                         
   LPAW   =        T    paw PP                                                                      
   EAUG   =  400.000                                                                                
   RMAX   =    1.123    core radius for proj-oper                                                   
   RAUG   =    1.200    factor for augmentation sphere                                              
   RDEP   =    1.112    radius for radial grids                                                     
   RDEPT  =    0.926    core radius for aug-charge                                                  
                                                                                                    
   Atomic configuration                                                                             
    2 entries                                                                                       
     n  l   j            E        occ.                                                              
     1  0  0.50        -6.4927   1.0000                                                             
     2  1  0.50        -3.4015   0.0000                                                             
   Description                                                                                      
     l       E           TYP  RCUT    TYP  RCUT                                                     
     0     -6.4927494     23  1.100                                                                 
     0      6.8029130     23  1.100                                                                 
     1     -4.0817478     23  1.100                                                                 
  local pseudopotential read in
  atomic valenz-charges read in
  non local Contribution for L=           0  read in
    real space projection operators read in
  non local Contribution for L=           0  read in
    real space projection operators read in
  non local Contribution for L=           1  read in
    real space projection operators read in
    PAW grid and wavefunctions read in

   number of l-projection  operators is LMAX  =           3
   number of lm-projection operators is LMMAX =           5

 POTCAR:    PAW_PBE Mg_pv 13Apr2007               
   SHA256 =  f474ac0dd33840b9ae76c01d57fea79fdf77cdfbb07d5ade72c65f83c709b62b Mg_pv/POTCAR          
   COPYR  = (c) Copyright 13Apr2007 Georg Kresse                                                    
   COPYR  = This file is part of the software VASP. Any use, copying, and all other rights are regul
   COPYR  = If you do not have a valid VASP license, you may not use, copy or distribute this file. 
   VRHFIN =Mg: p6s2                                                                                 
   LEXCH  = PE                                                                                      
   EATOM  =  1056.7344 eV,   77.6678 Ry                                                             
                                                                                                    
   TITEL  = PAW_PBE Mg_pv 13Apr2007                                                                 
   LULTRA =        F    use ultrasoft PP ?                                                          
   IUNSCR =        1    unscreen: 0-lin 1-nonlin 2-no                                               
   RPACOR =    1.500    partial core radius                                                         
   POMASS =   24.305; ZVAL   =    8.000    mass and valenz                                          
   RCORE  =    2.000    outmost cutoff radius                                                       
   RWIGS  =    2.000; RWIGS  =    1.058    wigner-seitz radius (au A)                               
   ENMAX  =  403.929; ENMIN  =  302.947 eV                                                          
   RCLOC  =    1.506    cutoff for local pot                                                        
   LCOR   =        T    correct aug charges                                                         
   LPAW   =        T    paw PP                                                                      
   EAUG   =  758.780                                                                                
   DEXC   =    0.000                                                                                
   RMAX   =    2.045    core radius for proj-oper                                                   
   RAUG   =    1.300    factor for augmentation sphere                                              
   RDEP   =    2.025    radius for radial grids                                                     
   RDEPT  =    1.557    core radius for aug-charge                                                  
                                                                                                    
   Atomic configuration                                                                             
    5 entries                                                                                       
     n  l   j            E        occ.                                                              
     1  0  0.50     -1259.6230   2.0000                                                             
     2  0  0.50       -79.8442   2.0000                                                             
     2  1  1.50       -46.6121   6.0000                                                             
     3  0  0.50        -4.7055   2.0000                                                             
     3  2  1.50        -1.3606   0.0000                                                             
   Description                                                                                      
     l       E           TYP  RCUT    TYP  RCUT                                                     
     1    -46.6121073     23  1.600                                                                 
     1      2.7211652     23  1.600                                                                 
     0     -4.7054661     23  2.000                                                                 
     0     61.2262170     23  2.000                                                                 
     2     -1.3605826     23  2.000                                                                 
  local pseudopotential read in
  partial core-charges read in
  partial kinetic energy density read in
  atomic valenz-charges read in
  non local Contribution for L=           1  read in
    real space projection operators read in
  non local Contribution for L=           1  read in
    real space projection operators read in
  non local Contribution for L=           0  read in
    real space projection operators read in
  non local Contribution for L=           0  read in
    real space projection operators read in
  non local Contribution for L=           2  read in
    real space projection operators read in
    PAW grid and wavefunctions read in

   number of l-projection  operators is LMAX  =           5
   number of lm-projection operators is LMMAX =          13

 POTCAR:    PAW_PBE O 08Apr2002                   
   SHA256 =  818f92134a0a090dccd8ba1447fa70422a3b330e708bb4f08108d8ae51209ddf O/POTCAR              
   COPYR  = (c) Copyright 08Apr2002 Georg Kresse                                                    
   COPYR  = This file is part of the software VASP. Any use, copying, and all other rights are regul
   COPYR  = If you do not have a valid VASP license, you may not use, copy or distribute this file. 
   VRHFIN =O: s2p4                                                                                  
   LEXCH  = PE                                                                                      
   EATOM  =   432.3788 eV,   31.7789 Ry                                                             
                                                                                                    
   TITEL  = PAW_PBE O 08Apr2002                                                                     
   LULTRA =        F    use ultrasoft PP ?                                                          
   IUNSCR =        1    unscreen: 0-lin 1-nonlin 2-no                                               
   RPACOR =    1.200    partial core radius                                                         
   POMASS =   16.000; ZVAL   =    6.000    mass and valenz                                          
   RCORE  =    1.520    outmost cutoff radius                                                       
   RWIGS  =    1.550; RWIGS  =    0.820    wigner-seitz radius (au A)                               
   ENMAX  =  400.000; ENMIN  =  300.000 eV                                                          
   ICORE  =        2    local potential                                                             
   LCOR   =        T    correct aug charges                                                         
   LPAW   =        T    paw PP                                                                      
   EAUG   =  605.392                                                                                
   DEXC   =    0.000                                                                                
   RMAX   =    1.553    core radius for proj-oper                                                   
   RAUG   =    1.300    factor for augmentation sphere                                              
   RDEP   =    1.550    radius for radial grids                                                     
   RDEPT  =    1.329    core radius for aug-charge                                                  
                                                                                                    
   Atomic configuration                                                                             
    4 entries                                                                                       
     n  l   j            E        occ.                                                              
     1  0  0.50      -514.6923   2.0000                                                             
     2  0  0.50       -23.9615   2.0000                                                             
     2  1  0.50        -9.0305   4.0000                                                             
     3  2  1.50        -9.5241   0.0000                                                             
   Description                                                                                      
     l       E           TYP  RCUT    TYP  RCUT                                                     
     0    -23.9615318     23  1.200                                                                 
     0     -9.5240782     23  1.200                                                                 
     1     -9.0304911     23  1.520                                                                 
     1      8.1634956     23  1.520                                                                 
     2     -9.5240782      7  1.500                                                                 
  local pseudopotential read in
  partial core-charges read in
  partial kinetic energy density read in
  kinetic energy density of atom read in
  atomic valenz-charges read in
  non local Contribution for L=           0  read in
    real space projection operators read in
  non local Contribution for L=           0  read in
    real space projection operators read in
  non local Contribution for L=           1  read in
    real space projection operators read in
  non local Contribution for L=           1  read in
    real space projection operators read in
    PAW grid and wavefunctions read in

   number of l-projection  operators is LMAX  =           4
   number of lm-projection operators is LMMAX =           8

 -----------------------------------------------------------------------------
|                                                                             |
|               ----> ADVICE to this user running VASP <----                  |
|                                                                             |
|     You have a (more or less) 'large supercell' and for larger cells it     |
|     might be more efficient to use real-space projection operators.         |
|     Therefore, try LREAL= Auto in the INCAR file.                           |
|     Mind: For very accurate calculation, you might also keep the            |
|     reciprocal projection scheme (i.e. LREAL=.FALSE.).                      |
|                                                                             |
 -----------------------------------------------------------------------------

  PAW_PBE C 08Apr2002                   :
 energy of atom  1       EATOM= -147.1560
 kinetic energy error for atom=    0.0057 (will be added to EATOM!!)
  PAW_PBE H 15Jun2001                   :
 energy of atom  2       EATOM=  -12.4884
 kinetic energy error for atom=    0.0004 (will be added to EATOM!!)
  PAW_PBE Mg_pv 13Apr2007               :
 energy of atom  3       EATOM=-1056.7344
 kinetic energy error for atom=    0.0221 (will be added to EATOM!!)
  PAW_PBE O 08Apr2002                   :
 energy of atom  4       EATOM= -432.3788
 kinetic energy error for atom=    0.0168 (will be added to EATOM!!)


 POSCAR:  C  H Mg  O
  positions in direct lattice
  No initial velocities read in
 exchange correlation table for  LEXCH =        8
   RHO(1)=    0.500       N(1)  =     2000
   RHO(2)=  100.500       N(2)  =     4000



--------------------------------------------------------------------------------------------------------


 ion  position               nearest neighbor table
   1  0.500  0.500  0.797-   2 1.10   3 1.10   5 1.10   4 1.10
   2  0.500  0.607  0.827-   1 1.10
   3  0.500  0.393  0.827-   1 1.10
   4  0.607  0.500  0.768-   1 1.10
   5  0.393  0.500  0.768-   1 1.10
   6  0.250  0.000  0.352-  38 2.11  40 2.11  41 2.11  48 2.11  57 2.11
   7  0.500  0.250  0.352-  39 2.11  40 2.11  41 2.11  49 2.11  56 2.11
   8  0.250  0.250  0.451-  40 2.11  39 2.11  38 2.11  46 2.11  55 2.11  44 2.12
   9  0.500  0.000  0.451-  41 2.11  39 2.11  38 2.11  47 2.11  54 2.11  45 2.12
  10  0.250  1.000  0.550-  61 2.11  45 2.11  52 2.11  44 2.11  38 2.12  42 2.14
  11  0.500  0.250  0.550-  53 2.11  60 2.11  44 2.11  45 2.11  39 2.12  43 2.14
  12  0.250  0.250  0.648-  44 2.10  59 2.11  42 2.11  50 2.11  43 2.11
  13  0.500  0.000  0.649-  45 2.11  42 2.11  58 2.11  43 2.11  51 2.11
  14  0.250  0.500  0.352-  46 2.11  40 2.11  48 2.11  49 2.11  65 2.11
  15  0.500  0.750  0.352-  47 2.11  41 2.11  48 2.11  49 2.11  64 2.11
  16  0.250  0.750  0.451-  48 2.11  46 2.11  47 2.11  38 2.11  63 2.11  52 2.12
  17  0.500  0.500  0.451-  49 2.11  46 2.11  47 2.11  39 2.11  62 2.11  53 2.12
  18  0.250  0.500  0.550-  53 2.11  52 2.11  44 2.11  69 2.11  46 2.12  50 2.14
  19  0.500  0.750  0.550-  53 2.11  52 2.11  68 2.11  45 2.11  47 2.12  51 2.14
  20  0.250  0.750  0.648-  52 2.10  67 2.11  42 2.11  50 2.11  51 2.11
  21  0.500  0.500  0.649-  53 2.11  50 2.11  66 2.11  43 2.11  51 2.11
  22  0.750  0.000  0.352-  54 2.11  41 2.11  56 2.11  57 2.11  64 2.11
  23  0.000  0.250  0.352-  55 2.11  40 2.11  56 2.11  57 2.11  65 2.11
  24  0.750  0.250  0.451-  56 2.11  54 2.11  55 2.11  39 2.11  62 2.11  60 2.12
  25  0.000  0.000  0.451-  57 2.11  54 2.11  55 2.11  38 2.11  63 2.11  61 2.12
  26  0.750  0.000  0.550-  61 2.11  45 2.11  60 2.11  68 2.11  54 2.12  58 2.14
  27  1.000  0.250  0.550-  69 2.11  60 2.11  44 2.11  61 2.11  55 2.12  59 2.14
  28  0.750  0.250  0.648-  60 2.10  59 2.11  58 2.11  66 2.11  43 2.11
  29  1.000  0.000  0.649-  61 2.11  59 2.11  67 2.11  42 2.11  58 2.11
  30  0.750  0.500  0.352-  62 2.11  56 2.11  49 2.11  64 2.11  65 2.11
  31  0.000  0.750  0.352-  63 2.11  57 2.11  48 2.11  64 2.11  65 2.11
  32  0.750  0.750  0.451-  64 2.11  54 2.11  62 2.11  63 2.11  47 2.11  68 2.12
  33  0.000  0.500  0.451-  65 2.11  55 2.11  62 2.11  63 2.11  46 2.11  69 2.12
  34  0.750  0.500  0.550-  53 2.11  60 2.11  68 2.11  69 2.11  62 2.12  66 2.14
  35  1.000  0.750  0.550-  69 2.11  68 2.11  52 2.11  61 2.11  63 2.12  67 2.14
  36  0.750  0.750  0.648-  68 2.10  67 2.11  58 2.11  66 2.11  51 2.11
  37  1.000  0.500  0.649-  69 2.11  59 2.11  67 2.11  66 2.11  50 2.11
  38  0.250  0.000  0.451-   6 2.11   8 2.11   9 2.11  16 2.11  25 2.11  10 2.12
  39  0.500  0.250  0.451-   7 2.11   8 2.11   9 2.11  17 2.11  24 2.11  11 2.12
  40  0.250  0.250  0.352-   8 2.11   7 2.11   6 2.11  14 2.11  23 2.11
  41  0.500  0.000  0.352-   9 2.11   7 2.11   6 2.11  15 2.11  22 2.11
  42  0.250  1.000  0.650-  29 2.11  13 2.11  20 2.11  12 2.11  10 2.14
  43  0.500  0.250  0.650-  21 2.11  13 2.11  28 2.11  12 2.11  11 2.14
  44  0.250  0.250  0.550-  12 2.10  18 2.11  27 2.11  11 2.11  10 2.11   8 2.12
  45  0.500  0.000  0.550-  13 2.11  26 2.11  10 2.11  11 2.11  19 2.11   9 2.12
  46  0.250  0.500  0.451-  14 2.11   8 2.11  16 2.11  17 2.11  33 2.11  18 2.12
  47  0.500  0.750  0.451-  15 2.11   9 2.11  16 2.11  17 2.11  32 2.11  19 2.12
  48  0.250  0.750  0.352-  16 2.11  14 2.11  15 2.11   6 2.11  31 2.11
  49  0.500  0.500  0.352-  17 2.11  14 2.11  15 2.11   7 2.11  30 2.11
  50  0.250  0.500  0.650-  21 2.11  37 2.11  12 2.11  20 2.11  18 2.14
  51  0.500  0.750  0.650-  21 2.11  13 2.11  20 2.11  36 2.11  19 2.14
  52  0.250  0.750  0.550-  20 2.10  18 2.11  35 2.11  19 2.11  10 2.11  16 2.12
  53  0.500  0.500  0.550-  21 2.11  18 2.11  34 2.11  11 2.11  19 2.11  17 2.12
  54  0.750  0.000  0.451-  22 2.11   9 2.11  24 2.11  25 2.11  32 2.11  26 2.12
  55  0.000  0.250  0.451-  23 2.11   8 2.11  24 2.11  25 2.11  33 2.11  27 2.12
  56  0.750  0.250  0.352-  24 2.11  22 2.11  23 2.11   7 2.11  30 2.11
  57  0.000  0.000  0.352-  25 2.11  22 2.11  23 2.11   6 2.11  31 2.11
  58  0.750  0.000  0.650-  29 2.11  13 2.11  36 2.11  28 2.11  26 2.14
  59  1.000  0.250  0.650-  29 2.11  12 2.11  28 2.11  37 2.11  27 2.14
  60  0.750  0.250  0.550-  28 2.10  34 2.11  27 2.11  11 2.11  26 2.11  24 2.12
  61  1.000  0.000  0.550-  29 2.11  26 2.11  10 2.11  35 2.11  27 2.11  25 2.12
  62  0.750  0.500  0.451-  30 2.11  24 2.11  17 2.11  32 2.11  33 2.11  34 2.12
  63  0.000  0.750  0.451-  31 2.11  25 2.11  16 2.11  32 2.11  33 2.11  35 2.12
  64  0.750  0.750  0.352-  32 2.11  22 2.11  30 2.11  31 2.11  15 2.11
  65  0.000  0.500  0.352-  33 2.11  23 2.11  30 2.11  31 2.11  14 2.11
  66  0.750  0.500  0.650-  21 2.11  37 2.11  28 2.11  36 2.11  34 2.14
  67  1.000  0.750  0.650-  29 2.11  36 2.11  20 2.11  37 2.11  35 2.14
  68  0.750  0.750  0.550-  36 2.10  34 2.11  35 2.11  19 2.11  26 2.11  32 2.12
  69  1.000  0.500  0.550-  37 2.11  27 2.11  35 2.11  34 2.11  18 2.11  33 2.12


IMPORTANT INFORMATION: All symmetrisations will be switched off!
NOSYMM: (Re-)initialisation of all symmetry stuff for point group C_1.


----------------------------------------------------------------------------------------

                                     Primitive cell                                     

  volume of cell :    1519.6535

  direct lattice vectors                    reciprocal lattice vectors
     8.440582262  0.000000000  0.000000000     0.118475239  0.000000000  0.000000000
     0.000000000  8.440582262  0.000000000     0.000000000  0.118475239  0.000000000
     0.000000000  0.000000000 21.330436697     0.000000000  0.000000000  0.046881366

  length of vectors
     8.440582262  8.440582262 21.330436697     0.118475239  0.118475239  0.046881366

  position of ions in fractional coordinates (direct lattice)
     0.500000041  0.500000012  0.797463966
     0.500000076  0.606527698  0.827014036
     0.500000030  0.393472277  0.827014013
     0.607160848  0.500000008  0.768063393
     0.392839224  0.500000054  0.768063405
     0.250000000  0.000000000  0.351610242
     0.500000000  0.250000000  0.351610242
     0.250000000  0.250000000  0.450536747
     0.500000000  0.000000000  0.450536747
     0.249998874  0.999999996  0.549984610
     0.500000002  0.250034006  0.550000018
     0.249975469  0.249984441  0.648007833
     0.499999989  0.000000012  0.648561969
     0.250000000  0.500000000  0.351610242
     0.500000000  0.750000000  0.351610242
     0.250000000  0.750000000  0.450536747
     0.500000000  0.500000000  0.450536747
     0.250036621  0.500000001  0.550021839
     0.499999998  0.749965991  0.550000023
     0.249975484  0.750015560  0.648007846
     0.499999988  0.499999999  0.648632446
     0.750000000  0.000000000  0.351610242
     0.000000000  0.250000000  0.351610242
     0.750000000  0.250000000  0.450536747
     0.000000000  0.000000000  0.450536747
     0.750001109  0.000000006  0.549984610
     0.999999991  0.250007392  0.549987069
     0.750024506  0.249984464  0.648007854
     0.999999994  0.000000010  0.648589343
     0.750000000  0.500000000  0.351610242
     0.000000000  0.750000000  0.351610242
     0.750000000  0.750000000  0.450536747
     0.000000000  0.500000000  0.450536747
     0.749963380  0.499999995  0.550021839
     0.999999993  0.749992618  0.549987075
     0.750024508  0.750015549  0.648007843
     0.999999991  0.499999993  0.648616023
     0.250000000  0.000000000  0.450536747
     0.500000000  0.250000000  0.450536747
     0.250000000  0.250000000  0.351610242
     0.500000000  0.000000000  0.351610242
     0.249998653  0.999999998  0.650198881
     0.499999990  0.250012714  0.650224644
     0.249999823  0.250012693  0.549692047
     0.500000000  0.000000009  0.549706576
     0.250000000  0.500000000  0.450536747
     0.500000000  0.750000000  0.450536747
     0.250000000  0.750000000  0.351610242
     0.500000000  0.500000000  0.351610242
     0.250032587  0.500000000  0.650256940
     0.499999985  0.749987306  0.650224646
     0.249999832  0.749987304  0.549692050
     0.499999999  0.499999986  0.549746893
     0.750000000  0.000000000  0.450536747
     0.000000000  0.250000000  0.450536747
     0.750000000  0.250000000  0.351610242
     0.000000000  0.000000000  0.351610242
     0.750001332  0.000000005  0.650198888
     0.999999989  0.249973249  0.650194937
     0.750000173  0.250012701  0.549692048
     0.999999990  0.000000005  0.549711691
     0.750000000  0.500000000  0.450536747
     0.000000000  0.750000000  0.450536747
     0.750000000  0.750000000  0.351610242
     0.000000000  0.500000000  0.351610242
     0.749967399  0.499999996  0.650256937
     0.999999995  0.750026757  0.650194938
     0.750000166  0.749987304  0.549692044
     0.999999997  0.499999998  0.549737689

  ion indices of the primitive-cell ions
   primitive index   ion index
                 1           1
                 2           2
                 3           3
                 4           4
                 5           5
                 6           6
                 7           7
                 8           8
                 9           9
                10          10
                11          11
                12          12
                13          13
                14          14
                15          15
                16          16
                17          17
                18          18
                19          19
                20          20
                21          21
                22          22
                23          23
                24          24
                25          25
                26          26
                27          27
                28          28
                29          29
                30          30
                31          31
                32          32
                33          33
                34          34
                35          35
                36          36
                37          37
                38          38
                39          39
                40          40
                41          41
                42          42
                43          43
                44          44
                45          45
                46          46
                47          47
                48          48
                49          49
                50          50
                51          51
                52          52
                53          53
                54          54
                55          55
                56          56
                57          57
                58          58
                59          59
                60          60
                61          61
                62          62
                63          63
                64          64
                65          65
                66          66
                67          67
                68          68
                69          69

----------------------------------------------------------------------------------------



 KPOINTS: pymatgen v2020.8.13 with grid density = 

Automatic generation of k-mesh.
 Grid dimensions read from file:
 generate k-points for:    2    2    1

 Generating k-lattice:

  Cartesian coordinates                     Fractional coordinates (reciprocal lattice)
     0.059237619  0.000000000  0.000000000     0.500000000  0.000000000  0.000000000
     0.000000000  0.059237619  0.000000000     0.000000000  0.500000000  0.000000000
     0.000000000  0.000000000  0.046881366     0.000000000  0.000000000  1.000000000

  Length of vectors
     0.059237619  0.059237619  0.046881366

  Shift w.r.t. Gamma in fractional coordinates (k-lattice)
     0.000000000  0.000000000  0.000000000

 
 Subroutine IBZKPT returns following result:
 ===========================================
 
 Found      4 irreducible k-points:
 
 Following reciprocal coordinates:
            Coordinates               Weight
  0.000000  0.000000  0.000000      1.000000
  0.500000  0.000000  0.000000      1.000000
  0.000000  0.500000  0.000000      1.000000
  0.500000  0.500000  0.000000      1.000000
 
 Following cartesian coordinates:
            Coordinates               Weight
  0.000000  0.000000  0.000000      1.000000
  0.059238  0.000000  0.000000      1.000000
  0.000000  0.059238  0.000000      1.000000
  0.059238  0.059238  0.000000      1.000000
 


--------------------------------------------------------------------------------------------------------




 Dimension of arrays:
   k-points           NKPTS =      4   k-points in BZ     NKDIM =      4   number of bands    NBANDS=    320
   number of dos      NEDOS =    301   number of ions     NIONS =     69
   non local maximal  LDIM  =      5   non local SUM 2l+1 LMDIM =     13
   total plane-waves  NPLWV = 882000
   max r-space proj   IRMAX =      1   max aug-charges    IRDMAX=  11637
   dimension x,y,z NGX =    70 NGY =   70 NGZ =  180
   dimension x,y,z NGXF=   140 NGYF=  140 NGZF=  360
   support grid    NGXF=   140 NGYF=  140 NGZF=  360
   ions per type =               1   4  32  32
   NGX,Y,Z   is equivalent  to a cutoff of  13.79, 13.79, 14.03 a.u.
   NGXF,Y,Z  is equivalent  to a cutoff of  27.57, 27.57, 28.06 a.u.

 SYSTEM =  MgO-rocksalt                            
 POSCAR =   C  H Mg  O                             

--------------------------------------------------------------------------------------------------------


  energy-cutoff  :      600.00
  volume of cell :     1519.65
      direct lattice vectors                 reciprocal lattice vectors
     8.440582262  0.000000000  0.000000000     0.118475239  0.000000000  0.000000000
     0.000000000  8.440582262  0.000000000     0.000000000  0.118475239  0.000000000
     0.000000000  0.000000000 21.330436697     0.000000000  0.000000000  0.046881366

  length of vectors
     8.440582262  8.440582262 21.330436697     0.118475239  0.118475239  0.046881366



 k-points in units of 2pi/SCALE and weight: pymatgen v2020.8.13 with grid density = 
   0.00000000  0.00000000  0.00000000       0.250
   0.05923762  0.00000000  0.00000000       0.250
   0.00000000  0.05923762  0.00000000       0.250
   0.05923762  0.05923762  0.00000000       0.250

 k-points in reciprocal lattice and weights: pymatgen v2020.8.13 with grid density = 
   0.00000000  0.00000000  0.00000000       0.250
   0.50000000  0.00000000  0.00000000       0.250
   0.00000000  0.50000000  0.00000000       0.250
   0.50000000  0.50000000  0.00000000       0.250

 position of ions in fractional coordinates (direct lattice) 
   0.50000004  0.50000001  0.79746397
   0.50000008  0.60652770  0.82701404
   0.50000003  0.39347228  0.82701401
   0.60716085  0.50000001  0.76806339
   0.39283922  0.50000005  0.76806340
   0.25000000  0.00000000  0.35161024
   0.50000000  0.25000000  0.35161024
   0.25000000  0.25000000  0.45053675
   0.50000000  0.00000000  0.45053675
   0.24999887  1.00000000  0.54998461
   0.50000000  0.25003401  0.55000002
   0.24997547  0.24998444  0.64800783
   0.49999999  0.00000001  0.64856197
   0.25000000  0.50000000  0.35161024
   0.50000000  0.75000000  0.35161024
   0.25000000  0.75000000  0.45053675
   0.50000000  0.50000000  0.45053675
   0.25003662  0.50000000  0.55002184
   0.50000000  0.74996599  0.55000002
   0.24997548  0.75001556  0.64800785
   0.49999999  0.50000000  0.64863245
   0.75000000  0.00000000  0.35161024
   0.00000000  0.25000000  0.35161024
   0.75000000  0.25000000  0.45053675
   0.00000000  0.00000000  0.45053675
   0.75000111  0.00000001  0.54998461
   0.99999999  0.25000739  0.54998707
   0.75002451  0.24998446  0.64800785
   0.99999999  0.00000001  0.64858934
   0.75000000  0.50000000  0.35161024
   0.00000000  0.75000000  0.35161024
   0.75000000  0.75000000  0.45053675
   0.00000000  0.50000000  0.45053675
   0.74996338  0.49999999  0.55002184
   0.99999999  0.74999262  0.54998708
   0.75002451  0.75001555  0.64800784
   0.99999999  0.49999999  0.64861602
   0.25000000  0.00000000  0.45053675
   0.50000000  0.25000000  0.45053675
   0.25000000  0.25000000  0.35161024
   0.50000000  0.00000000  0.35161024
   0.24999865  1.00000000  0.65019888
   0.49999999  0.25001271  0.65022464
   0.24999982  0.25001269  0.54969205
   0.50000000  0.00000001  0.54970658
   0.25000000  0.50000000  0.45053675
   0.50000000  0.75000000  0.45053675
   0.25000000  0.75000000  0.35161024
   0.50000000  0.50000000  0.35161024
   0.25003259  0.50000000  0.65025694
   0.49999998  0.74998731  0.65022465
   0.24999983  0.74998730  0.54969205
   0.50000000  0.49999999  0.54974689
   0.75000000  0.00000000  0.45053675
   0.00000000  0.25000000  0.45053675
   0.75000000  0.25000000  0.35161024
   0.00000000  0.00000000  0.35161024
   0.75000133  0.00000001  0.65019889
   0.99999999  0.24997325  0.65019494
   0.75000017  0.25001270  0.54969205
   0.99999999  0.00000001  0.54971169
   0.75000000  0.50000000  0.45053675
   0.00000000  0.75000000  0.45053675
   0.75000000  0.75000000  0.35161024
   0.00000000  0.50000000  0.35161024
   0.74996740  0.50000000  0.65025694
   1.00000000  0.75002676  0.65019494
   0.75000017  0.74998730  0.54969204
   1.00000000  0.50000000  0.54973769

 position of ions in cartesian coordinates  (Angst):
   4.22029148  4.22029123 17.01025464
   4.22029177  5.11944693 17.64057054
   4.22029138  3.32113512 17.64057004
   5.12479108  4.22029120 16.38312759
   3.31579178  4.22029158 16.38312783
   2.11014557  0.00000000  7.50000000
   4.22029113  2.11014557  7.50000000
   2.11014557  2.11014557  9.61014557
   4.22029113  0.00000000  9.61014557
   2.11013606  8.44058223 11.73141191
   4.22029115  2.11043260 11.73174056
   2.10993851  2.11001424 13.82229006
   4.22029104  0.00000010 13.83411002
   2.11014557  4.22029113  7.50000000
   4.22029113  6.33043670  7.50000000
   2.11014557  6.33043670  9.61014557
   4.22029113  4.22029113  9.61014557
   2.11045467  4.22029114 11.73220601
   4.22029111  6.33014964 11.73174066
   2.10993863  6.33056803 13.82229034
   4.22029103  4.22029112 13.83561334
   6.33043670  0.00000000  7.50000000
   0.00000000  2.11014557  7.50000000
   6.33043670  2.11014557  9.61014557
   0.00000000  0.00000000  9.61014557
   6.33044606  0.00000005 11.73141192
   8.44058219  2.11020796 11.73146436
   6.33064354  2.11001443 13.82229051
   8.44058221  0.00000008 13.83469393
   6.33043670  4.22029113  7.50000000
   0.00000000  6.33043670  7.50000000
   6.33043670  6.33043670  9.61014557
   0.00000000  4.22029113  9.61014557
   6.33012760  4.22029109 11.73220603
   8.44058220  6.33037439 11.73146449
   6.33064355  6.33056794 13.82229027
   8.44058219  4.22029107 13.83526302
   2.11014557  0.00000000  9.61014557
   4.22029113  2.11014557  9.61014557
   2.11014557  2.11014557  7.50000000
   4.22029113  0.00000000  7.50000000
   2.11013420  8.44058225 13.86902608
   4.22029105  2.11025288 13.86957562
   2.11014407  2.11025270 11.72517141
   4.22029114  0.00000008 11.72548133
   2.11014557  4.22029113  9.61014557
   4.22029113  6.33043670  9.61014557
   2.11014557  6.33043670  7.50000000
   4.22029113  4.22029113  7.50000000
   2.11042062  4.22029113 13.87026449
   4.22029100  6.33032955 13.86957565
   2.11014415  6.33032953 11.72517147
   4.22029113  4.22029102 11.72634129
   6.33043670  0.00000000  9.61014557
   0.00000000  2.11014557  9.61014557
   6.33043670  2.11014557  7.50000000
   0.00000000  0.00000000  7.50000000
   6.33044794  0.00000005 13.86902622
   8.44058217  2.10991977 13.86894194
   6.33043816  2.11025277 11.72517144
   8.44058218  0.00000004 11.72559042
   6.33043670  4.22029113  9.61014557
   0.00000000  6.33043670  9.61014557
   6.33043670  6.33043670  7.50000000
   0.00000000  4.22029113  7.50000000
   6.33016153  4.22029109 13.87026444
   8.44058222  6.33066254 13.86894196
   6.33043809  6.33032953 11.72517136
   8.44058223  4.22029111 11.72614498



--------------------------------------------------------------------------------------------------------

--------------------------------------- Iteration      FINAL  ---------------------------------------


--------------------OUTCAR has been truncated-------------------------


--------------------OUTCAR has been truncated-------------------------


--------------------OUTCAR has been truncated-------------------------


--------------------OUTCAR has been truncated-------------------------


--------------------OUTCAR has been truncated-------------------------


--------------------OUTCAR has been truncated-------------------------


--------------------OUTCAR has been truncated-------------------------


--------------------OUTCAR has been truncated-------------------------


--------------------OUTCAR has been truncated-------------------------


--------------------OUTCAR has been truncated-------------------------


  DFT-D2 method for vdW energy calculation
  -------------------------------------------------------------------

  Parameters of vdW forcefield:
         C6(Jnm^6/mol)     R0(A)
   -----------------------------
   C        1.750          1.452
   H        0.140          1.001
   Mg       0.630          1.243
   O        0.700          1.342

  vdW correction parametrized for the method pbe       

  IVDW =   1
  VDW_RADIUS =    50.000 A
  VDW_S6 =     0.750
  VDW_SR =     1.000
  VDW_D =    20.000
  LVDW_EWALD = F

  Number of pair interactions contributing to vdW energy:  838448
  Edisp (eV):   -3.74208
    FORVDW:  cpu time      0.1228: real time      0.1228

  FORCE on cell =-STRESS in cart. coord.  units (eV):
  Direction    XX          YY          ZZ          XY          YZ          ZX
  --------------------------------------------------------------------------------------
  Alpha Z   900.07294   900.07294   900.07294
  Ewald  158804.42592158802.17116************    -0.00001     0.00002    -0.00003
  Hartree169014.31531169013.10197************    -0.00001     0.00002    -0.00002
  E(xc)   -2484.12746 -2484.14395 -2489.18770    -0.00000     0.00000    -0.00000
  Local  ************************337759.79837     0.00003    -0.00004     0.00005
  n-local -2827.88455 -2827.87785 -2848.16625     0.00000     0.00000     0.00000
  augment  1047.90076  1047.90273  1038.75949    -0.00000     0.00000    -0.00000
  Kinetic  7405.06137  7405.11638  7446.76093    -0.00000    -0.00000     0.00000
  Fock        0.00000     0.00000     0.00000     0.00000     0.00000     0.00000
  vdW        -5.32036    -5.31591    -4.59104     0.00000    -0.00000    -0.00000
  -------------------------------------------------------------------------------------
  Total     -23.94594   -23.91507     1.47953     0.00001     0.00000     0.00000
  in kB     -25.24631   -25.21376     1.55988     0.00001     0.00000     0.00000
  external pressure =      -16.30 kB  Pullay stress =        0.00 kB


 VOLUME and BASIS-vectors are now :
 -----------------------------------------------------------------------------
  energy-cutoff  :      600.00
  volume of cell :     1519.65
      direct lattice vectors                 reciprocal lattice vectors
     8.440582262  0.000000000  0.000000000     0.118475239  0.000000000  0.000000000
     0.000000000  8.440582262  0.000000000     0.000000000  0.118475239  0.000000000
     0.000000000  0.000000000 21.330436697     0.000000000  0.000000000  0.046881366

  length of vectors
     8.440582262  8.440582262 21.330436697     0.118475239  0.118475239  0.046881366


 FORCES acting on ions:
    Electron-Ion                     Ewald-Force                    Non-Local-Force
 -----------------------------------------------------------------------------------------------
   -.839E-09 -.226E-05 -.923E+03   0.637E-06 -.398E-06 0.923E+03   0.548E-06 0.515E-06 -.509E-01
   -.139E-04 -.429E+02 -.228E+03   0.153E-04 0.473E+02 0.231E+03   -.157E-05 -.450E+01 -.315E+01
   0.489E-05 0.429E+02 -.228E+03   -.560E-05 -.473E+02 0.231E+03   0.372E-06 0.450E+01 -.315E+01
   -.430E+02 -.663E-06 -.233E+03   0.475E+02 0.363E-07 0.230E+03   -.455E+01 -.774E-08 0.305E+01
   0.430E+02 -.166E-04 -.233E+03   -.475E+02 0.185E-04 0.230E+03   0.455E+01 -.165E-05 0.305E+01
   0.144E+00 0.814E-05 0.208E+04   -.144E+00 -.274E-05 -.207E+04   -.211E-03 -.367E-06 -.704E+01
   0.374E-05 0.163E+00 0.208E+04   -.626E-06 -.163E+00 -.207E+04   0.495E-05 -.337E-03 -.705E+01
   0.636E+00 0.622E+00 0.710E+03   -.633E+00 -.619E+00 -.710E+03   -.185E-02 -.174E-02 0.487E+00
   0.791E-05 0.174E-04 0.710E+03   -.364E-05 -.148E-04 -.710E+03   -.175E-06 -.733E-06 0.456E+00
   0.223E+01 0.173E-04 -.652E+03   -.222E+01 -.175E-04 0.652E+03   -.121E-01 -.209E-06 -.296E+00
   0.611E-05 0.419E+01 -.646E+03   -.329E-05 -.421E+01 0.646E+03   0.916E-05 0.843E-02 -.354E+00
   0.139E+02 0.148E+02 -.200E+04   -.138E+02 -.148E+02 0.199E+04   -.501E-01 0.376E-01 0.622E+01
   -.184E-04 0.144E-04 -.201E+04   0.196E-04 -.121E-04 0.200E+04   -.281E-06 -.321E-05 0.623E+01
   0.170E+00 -.452E-05 0.208E+04   -.169E+00 0.282E-05 -.207E+04   -.496E-03 0.242E-05 -.704E+01
   -.591E-06 -.163E+00 0.208E+04   -.745E-06 0.163E+00 -.207E+04   0.737E-05 0.333E-03 -.705E+01
   0.636E+00 -.622E+00 0.710E+03   -.634E+00 0.619E+00 -.710E+03   -.185E-02 0.174E-02 0.487E+00
   0.622E-05 -.184E-04 0.711E+03   -.223E-05 0.164E-04 -.712E+03   -.137E-06 -.376E-05 0.480E+00
   0.412E+01 -.222E-04 -.646E+03   -.412E+01 0.241E-04 0.646E+03   -.208E-02 -.209E-05 -.277E+00
   -.902E-05 -.419E+01 -.646E+03   0.795E-05 0.421E+01 0.646E+03   0.103E-04 -.843E-02 -.354E+00
   0.139E+02 -.148E+02 -.200E+04   -.138E+02 0.148E+02 0.199E+04   -.501E-01 -.376E-01 0.622E+01
   0.446E-05 -.409E-04 -.195E+04   -.734E-05 0.372E-04 0.195E+04   0.276E-05 0.528E-05 0.598E+01
   -.144E+00 0.826E-05 0.208E+04   0.144E+00 -.259E-05 -.207E+04   0.212E-03 -.233E-06 -.704E+01
   -.518E-05 0.138E+00 0.208E+04   0.678E-06 -.138E+00 -.207E+04   -.344E-05 -.596E-04 -.704E+01
   -.636E+00 0.622E+00 0.710E+03   0.633E+00 -.619E+00 -.710E+03   0.185E-02 -.174E-02 0.487E+00
   -.705E-05 0.149E-04 0.709E+03   0.195E-05 -.139E-04 -.709E+03   0.644E-06 0.181E-05 0.473E+00
   -.223E+01 0.224E-04 -.652E+03   0.222E+01 -.230E-04 0.652E+03   0.121E-01 0.121E-04 -.296E+00
   -.135E-04 0.233E+01 -.652E+03   0.120E-04 -.233E+01 0.652E+03   -.698E-05 -.385E-02 -.281E+00
   -.139E+02 0.148E+02 -.200E+04   0.138E+02 -.148E+02 0.199E+04   0.501E-01 0.376E-01 0.622E+01
   0.115E-04 0.304E-04 -.202E+04   -.168E-04 -.307E-04 0.201E+04   -.732E-06 0.752E-06 0.623E+01
   -.170E+00 -.669E-05 0.208E+04   0.169E+00 0.271E-05 -.207E+04   0.495E-03 0.144E-05 -.704E+01
   -.416E-05 -.138E+00 0.208E+04   0.839E-06 0.138E+00 -.207E+04   -.627E-05 0.575E-04 -.704E+01
   -.636E+00 -.622E+00 0.710E+03   0.634E+00 0.619E+00 -.710E+03   0.184E-02 0.173E-02 0.487E+00
   -.103E-04 -.190E-04 0.710E+03   0.599E-05 0.177E-04 -.710E+03   0.317E-05 -.147E-05 0.479E+00
   -.412E+01 -.459E-04 -.646E+03   0.412E+01 0.430E-04 0.646E+03   0.208E-02 -.539E-05 -.277E+00
   -.165E-04 -.233E+01 -.652E+03   0.150E-04 0.233E+01 0.652E+03   -.588E-06 0.384E-02 -.281E+00
   -.139E+02 -.148E+02 -.200E+04   0.138E+02 0.148E+02 0.199E+04   0.501E-01 -.376E-01 0.622E+01
   -.290E-04 -.507E-04 -.201E+04   0.290E-04 0.486E-04 0.200E+04   0.431E-05 0.912E-05 0.627E+01
   0.406E+00 0.824E-05 0.531E+03   -.403E+00 -.769E-05 -.531E+03   -.517E-02 0.456E-06 -.856E-01
   0.128E-04 0.549E+00 0.532E+03   -.238E-05 -.553E+00 -.532E+03   -.802E-06 0.553E-02 -.917E-01
   0.118E+00 0.113E+00 0.156E+04   -.117E+00 -.113E+00 -.156E+04   -.849E-03 -.355E-03 0.349E+01
   -.542E-06 0.239E-05 0.156E+04   -.444E-06 -.203E-05 -.156E+04   0.218E-05 0.234E-05 0.349E+01
   0.575E+01 -.434E-05 -.153E+04   -.572E+01 0.243E-05 0.153E+04   -.444E-01 0.347E-05 -.485E+01
   0.191E-04 0.184E+02 -.151E+04   -.204E-04 -.184E+02 0.151E+04   0.304E-05 -.926E-01 -.503E+01
   0.230E+01 0.240E+01 -.480E+03   -.229E+01 -.241E+01 0.480E+03   -.206E-01 0.830E-02 0.368E+00
   0.859E-05 0.319E-04 -.483E+03   -.105E-04 -.315E-04 0.483E+03   0.185E-05 0.866E-06 0.198E+00
   0.567E+00 -.129E-04 0.532E+03   -.568E+00 0.916E-05 -.532E+03   0.390E-03 0.767E-06 -.909E-01
   0.223E-05 -.549E+00 0.532E+03   -.219E-05 0.553E+00 -.532E+03   -.440E-06 -.553E-02 -.917E-01
   0.118E+00 -.113E+00 0.156E+04   -.117E+00 0.113E+00 -.156E+04   -.847E-03 0.351E-03 0.349E+01
   0.477E-05 0.213E-05 0.156E+04   -.545E-06 0.208E-05 -.156E+04   0.140E-06 -.270E-05 0.349E+01
   0.185E+02 -.840E-05 -.151E+04   -.184E+02 0.654E-05 0.151E+04   -.130E+00 0.118E-05 -.485E+01
   -.315E-04 -.184E+02 -.151E+04   0.309E-04 0.184E+02 0.151E+04   0.291E-05 0.926E-01 -.503E+01
   0.230E+01 -.240E+01 -.480E+03   -.229E+01 0.241E+01 0.480E+03   -.206E-01 -.830E-02 0.368E+00
   0.228E-05 -.399E-04 -.477E+03   0.966E-06 0.364E-04 0.476E+03   -.186E-05 0.897E-06 0.203E+00
   -.406E+00 0.150E-04 0.531E+03   0.403E+00 -.833E-05 -.531E+03   0.517E-02 -.200E-05 -.856E-01
   -.119E-04 0.391E+00 0.531E+03   0.422E-05 -.391E+00 -.531E+03   0.824E-06 0.307E-03 -.834E-01
   -.118E+00 0.113E+00 0.156E+04   0.117E+00 -.113E+00 -.156E+04   0.849E-03 -.353E-03 0.349E+01
   0.315E-05 -.469E-05 0.156E+04   0.409E-06 -.216E-05 -.156E+04   -.365E-05 0.256E-05 0.349E+01
   -.575E+01 0.181E-04 -.153E+04   0.572E+01 -.191E-04 0.153E+04   0.444E-01 0.830E-06 -.485E+01
   -.869E-05 0.617E+01 -.153E+04   0.860E-05 -.618E+01 0.153E+04   -.749E-07 0.185E-01 -.482E+01
   -.230E+01 0.240E+01 -.480E+03   0.229E+01 -.241E+01 0.480E+03   0.206E-01 0.830E-02 0.368E+00
   0.539E-05 0.195E-04 -.486E+03   -.593E-05 -.156E-04 0.486E+03   0.128E-05 -.276E-05 0.226E+00
   -.567E+00 -.209E-04 0.532E+03   0.568E+00 0.100E-04 -.532E+03   -.389E-03 0.193E-05 -.909E-01
   -.783E-05 -.391E+00 0.531E+03   0.519E-05 0.391E+00 -.531E+03   0.157E-05 -.306E-03 -.834E-01
   -.118E+00 -.113E+00 0.156E+04   0.117E+00 0.113E+00 -.156E+04   0.843E-03 0.355E-03 0.349E+01
   -.226E-05 0.464E-05 0.156E+04   0.650E-06 0.227E-05 -.156E+04   0.539E-06 -.471E-05 0.349E+01
   -.185E+02 -.522E-04 -.151E+04   0.184E+02 0.496E-04 0.151E+04   0.130E+00 0.127E-06 -.485E+01
   0.351E-05 -.617E+01 -.153E+04   -.180E-05 0.618E+01 0.153E+04   -.622E-06 -.185E-01 -.482E+01
   -.230E+01 -.240E+01 -.480E+03   0.229E+01 0.241E+01 0.480E+03   0.206E-01 -.830E-02 0.368E+00
   -.214E-04 -.419E-04 -.483E+03   0.219E-04 0.402E-04 0.483E+03   -.185E-05 -.935E-06 0.228E+00
 -----------------------------------------------------------------------------------------------
   -.259E-05 -.280E-05 0.152E+02   0.263E-12 0.107E-12 -.460E-11   0.721E-05 -.185E-05 -.152E+02


 POSITION                                       TOTAL-FORCE (eV/Angst)
 -----------------------------------------------------------------------------------
      4.22029      4.22029     17.01025         0.000001     -0.000002      0.000290
      4.22029      5.11945     17.64057        -0.000000     -0.018355     -0.010699
      4.22029      3.32114     17.64057        -0.000000      0.018357     -0.010700
      5.12479      4.22029     16.38313        -0.015111     -0.000001     -0.009177
      3.31579      4.22029     16.38313         0.015109      0.000000     -0.009178
      2.11015      0.00000      7.50000         0.000116      0.000005      0.349093
      4.22029      2.11015      7.50000         0.000008      0.000090      0.349368
      2.11015      2.11015      9.61015         0.000825      0.000669      0.022890
      4.22029      0.00000      9.61015         0.000004      0.000002      0.030888
      2.11014      8.44058     11.73141         0.004896     -0.000000      0.006383
      4.22029      2.11043     11.73174         0.000012     -0.006427      0.017680
      2.10994      2.11001     13.82229         0.021054     -0.010580      0.012127
      4.22029      0.00000     13.83411         0.000001     -0.000001     -0.060191
      2.11015      4.22029      7.50000         0.000181      0.000001      0.349154
      4.22029      6.33044      7.50000         0.000006     -0.000097      0.349384
      2.11015      6.33044      9.61015         0.000826     -0.000668      0.022894
      4.22029      4.22029      9.61015         0.000004     -0.000006      0.028902
      2.11045      4.22029     11.73221        -0.002409     -0.000000     -0.001329
      4.22029      6.33015     11.73174         0.000009      0.006426      0.017678
      2.10994      6.33057     13.82229         0.021053      0.010579      0.012125
      4.22029      4.22029     13.83561        -0.000000      0.000002      0.053913
      6.33044      0.00000      7.50000        -0.000110      0.000006      0.349096
      0.00000      2.11015      7.50000        -0.000008      0.000017      0.348865
      6.33044      2.11015      9.61015        -0.000826      0.000671      0.022876
      0.00000      0.00000      9.61015        -0.000005      0.000003      0.026570
      6.33045      0.00000     11.73141        -0.004892      0.000012      0.006384
      8.44058      2.11021     11.73146        -0.000009      0.000577      0.001247
      6.33064      2.11001     13.82229        -0.021063     -0.010589      0.012114
      8.44058      0.00000     13.83469        -0.000006      0.000001     -0.065679
      6.33044      4.22029      7.50000        -0.000181     -0.000002      0.349154
      0.00000      6.33044      7.50000        -0.000010     -0.000021      0.348875
      6.33044      6.33044      9.61015        -0.000828     -0.000673      0.022883
      0.00000      4.22029      9.61015        -0.000001     -0.000003      0.029089
      6.33013      4.22029     11.73221         0.002405     -0.000008     -0.001333
      8.44058      6.33037     11.73146        -0.000002     -0.000581      0.001249
      6.33064      6.33057     13.82229        -0.021056      0.010586      0.012123
      8.44058      4.22029     13.83526         0.000004      0.000007     -0.084763
      2.11015      0.00000      9.61015        -0.001409      0.000001      0.053346
      4.22029      2.11015      9.61015         0.000010      0.001522      0.053140
      2.11015      2.11015      7.50000        -0.000236     -0.000101     -0.517066
      4.22029      0.00000      7.50000         0.000001      0.000003     -0.517460
      2.11013      8.44058     13.86903        -0.011278      0.000002      0.109327
      4.22029      2.11025     13.86958         0.000002     -0.022148      0.068192
      2.11014      2.11025     11.72517        -0.005321      0.002176     -0.008205
      4.22029      0.00000     11.72548        -0.000000      0.000001     -0.000401
      2.11015      4.22029      9.61015        -0.000035     -0.000003      0.055618
      4.22029      6.33044      9.61015        -0.000000     -0.001523      0.053137
      2.11015      6.33044      7.50000        -0.000240      0.000100     -0.517063
      4.22029      4.22029      7.50000         0.000004      0.000002     -0.517542
      2.11042      4.22029     13.87026        -0.038642     -0.000001      0.113081
      4.22029      6.33033     13.86958         0.000002      0.022148      0.068197
      2.11014      6.33033     11.72517        -0.005320     -0.002178     -0.008204
      4.22029      4.22029     11.72634         0.000001     -0.000003      0.002128
      6.33044      0.00000      9.61015         0.001408      0.000005      0.053341
      0.00000      2.11015      9.61015        -0.000007      0.000193      0.054220
      6.33044      2.11015      7.50000         0.000236     -0.000101     -0.517079
      0.00000      0.00000      7.50000        -0.000000     -0.000004     -0.517117
      6.33045      0.00000     13.86903         0.011276     -0.000000      0.109325
      8.44058      2.10992     13.86894        -0.000000      0.007991      0.118194
      6.33044      2.11025     11.72517         0.005317      0.002181     -0.008198
      8.44058      0.00000     11.72559         0.000001      0.000001      0.009790
      6.33044      4.22029      9.61015         0.000037     -0.000009      0.055619
      0.00000      6.33044      9.61015        -0.000001     -0.000185      0.054218
      6.33044      6.33044      7.50000         0.000239      0.000102     -0.517070
      0.00000      4.22029      7.50000        -0.000001      0.000002     -0.517100
      6.33016      4.22029     13.87026         0.038642     -0.000002      0.113082
      8.44058      6.33066     13.86894         0.000001     -0.007991      0.118196
      6.33044      6.33033     11.72517         0.005321     -0.002175     -0.008201
      8.44058      4.22029     11.72614        -0.000001     -0.000003      0.008310
 -----------------------------------------------------------------------------------
    total drift:                                0.000005     -0.000005      0.009430


--------------------------------------------------------------------------------------------------------



  FREE ENERGIE OF THE ION-ELECTRON SYSTEM (eV)
  ---------------------------------------------------
  free  energy   TOTEN  =      -399.96295600 eV

  energy  without entropy=     -399.96295600  energy(sigma->0) =     -399.96295600



--------------------------------------------------------------------------------------------------------


    POTLOK:  cpu time      0.1676: real time      0.1676


--------------------------------------------------------------------------------------------------------


     LOOP+:  cpu time     63.5146: real time     63.6486
    4ORBIT:  cpu time      0.0000: real time      0.0000

 total amount of memory used by VASP MPI-rank0    67165. kBytes
=======================================================================

   base      :      30000. kBytes
   nonl-proj :      17715. kBytes
   fftplans  :       4923. kBytes
   grid      :       8190. kBytes
   one-center:         73. kBytes
   wavefun   :       6264. kBytes

  
  
 General timing and accounting informations for this job:
 ========================================================
  
                  Total CPU time used (sec):       96.434
                            User time (sec):       94.823
                          System time (sec):        1.611
                         Elapsed time (sec):      106.159
  
                   Maximum memory used (kb):      164560.
                   Average memory used (kb):          N/A
  
                          Minor page faults:        33585
                          Major page faults:            0
                 Voluntary context switches:        12370
