 **********************************************************************
                          MRCC program system
 **********************************************************************
 
                              Written by
     Mihaly Kallay, Peter R. Nagy, David Mester, Laszlo Gyevi-Nagy,
        Jozsef Csoka, P. Bernat Szabo, Zoltan Rolik, Gyula Samu,
     Jozsef Csontos, Bence Hegely, Adam Ganyecz, Istvan Ladjanszki,
       Lorant Szegedy, Bence Ladoczki, Klara Petrov, Mate Farkas,
                    Pal D. Mezei, and Reka A. Horvath
 
        Department of Physical Chemistry and Materials Science
            Budapest University of Technology and Economics
                  Budapest P.O.Box 91, H-1521 Hungary
 
                              www.mrcc.hu
 
                      Release date: March 18, 2022

 ************************ 2023-04-11 19:14:23 *************************
 Executing minp...

 Reading input from MINP...
 
 Input file:
 
calc=LNO-CCSD(T)
scftype=rhf
verbosity=3
mem=220GB
symm=off
unit=angs
scfiguess=small
scfmaxit=1000
scfalg=locfit1


lcorthr=tight
bpedo=0.99999
ccmaxit=400
usedisk=0
ccsdalg=dfdirect
ccsdthreads=4
ccsdmkl=thr
ptthreads=4

charge=-22
core=78

basis=special
aug-cc-pVDZ
aug-cc-pVDZ
aug-cc-pVDZ
aug-cc-pVDZ
cc-pVDZ
aug-cc-pVDZ
aug-cc-pVDZ
aug-cc-pVDZ
aug-cc-pVDZ
aug-cc-pVDZ
cc-pVDZ
cc-pVDZ
cc-pVDZ
aug-cc-pVDZ
aug-cc-pVDZ
cc-pVDZ
cc-pVDZ
aug-cc-pVDZ
aug-cc-pVDZ
aug-cc-pVDZ
aug-cc-pVDZ
aug-cc-pVDZ
aug-cc-pVDZ
aug-cc-pVDZ
aug-cc-pVDZ
aug-cc-pVDZ
aug-cc-pVDZ
aug-cc-pVDZ
aug-cc-pVDZ
aug-cc-pVDZ
aug-cc-pVDZ
aug-cc-pVDZ
aug-cc-pVDZ
nothing
nothing
nothing
nothing
nothing
nothing
nothing
nothing
nothing
nothing
nothing
nothing
nothing
nothing
nothing
nothing
nothing
nothing
nothing
nothing
nothing
nothing
nothing
nothing
nothing
nothing
nothing
nothing
nothing
nothing
nothing
nothing
nothing
nothing
nothing
nothing
nothing
nothing
nothing
nothing
nothing
nothing
nothing
nothing
nothing
nothing
nothing
nothing
nothing
nothing
nothing
nothing
nothing
nothing
nothing
nothing
nothing
nothing
nothing
nothing
nothing
nothing
nothing
nothing
nothing
nothing
nothing
nothing

basis_sm=special
def2-SVP
def2-SVP
def2-SVP
def2-SVP
def2-SVP
def2-SVP
def2-SVP
def2-SVP
def2-SVP
def2-SVP
def2-SVP
def2-SVP
def2-SVP
def2-SVP
def2-SVP
def2-SVP
def2-SVP
def2-SVP
def2-SVP
def2-SVP
def2-SVP
def2-SVP
def2-SVP
def2-SVP
def2-SVP
def2-SVP
def2-SVP
def2-SVP
def2-SVP
def2-SVP
def2-SVP
def2-SVP
def2-SVP
nothing
nothing
nothing
nothing
nothing
nothing
nothing
nothing
nothing
nothing
nothing
nothing
nothing
nothing
nothing
nothing
nothing
nothing
nothing
nothing
nothing
nothing
nothing
nothing
nothing
nothing
nothing
nothing
nothing
nothing
nothing
nothing
nothing
nothing
nothing
nothing
nothing
nothing
nothing
nothing
nothing
nothing
nothing
nothing
nothing
nothing
nothing
nothing
nothing
nothing
nothing
nothing
nothing
nothing
nothing
nothing
nothing
nothing
nothing
nothing
nothing
nothing
nothing
nothing
nothing
nothing
nothing
nothing

dfbasis_scf=special
def2-QZVPP-RI-JK
def2-QZVPP-RI-JK
def2-QZVPP-RI-JK
def2-QZVPP-RI-JK
def2-QZVPP-RI-JK
def2-QZVPP-RI-JK
def2-QZVPP-RI-JK
def2-QZVPP-RI-JK
def2-QZVPP-RI-JK
def2-QZVPP-RI-JK
def2-QZVPP-RI-JK
def2-QZVPP-RI-JK
def2-QZVPP-RI-JK
def2-QZVPP-RI-JK
def2-QZVPP-RI-JK
def2-QZVPP-RI-JK
def2-QZVPP-RI-JK
def2-QZVPP-RI-JK
def2-QZVPP-RI-JK
def2-QZVPP-RI-JK
def2-QZVPP-RI-JK
def2-QZVPP-RI-JK
def2-QZVPP-RI-JK
def2-QZVPP-RI-JK
def2-QZVPP-RI-JK
def2-QZVPP-RI-JK
def2-QZVPP-RI-JK
def2-QZVPP-RI-JK
def2-QZVPP-RI-JK
def2-QZVPP-RI-JK
def2-QZVPP-RI-JK
def2-QZVPP-RI-JK
def2-QZVPP-RI-JK
nothing
nothing
nothing
nothing
nothing
nothing
nothing
nothing
nothing
nothing
nothing
nothing
nothing
nothing
nothing
nothing
nothing
nothing
nothing
nothing
nothing
nothing
nothing
nothing
nothing
nothing
nothing
nothing
nothing
nothing
nothing
nothing
nothing
nothing
nothing
nothing
nothing
nothing
nothing
nothing
nothing
nothing
nothing
nothing
nothing
nothing
nothing
nothing
nothing
nothing
nothing
nothing
nothing
nothing
nothing
nothing
nothing
nothing
nothing
nothing
nothing
nothing
nothing
nothing
nothing
nothing
nothing
nothing

dfbasis_cor=special
aug-cc-pVDZ-RI
aug-cc-pVDZ-RI
aug-cc-pVDZ-RI
aug-cc-pVDZ-RI
cc-pVDZ-RI
aug-cc-pVDZ-RI
aug-cc-pVDZ-RI
aug-cc-pVDZ-RI
aug-cc-pVDZ-RI
aug-cc-pVDZ-RI
cc-pVDZ-RI
cc-pVDZ-RI
cc-pVDZ-RI
aug-cc-pVDZ-RI
aug-cc-pVDZ-RI
cc-pVDZ-RI
cc-pVDZ-RI
aug-cc-pVDZ-RI
aug-cc-pVDZ-RI
aug-cc-pVDZ-RI
aug-cc-pVDZ-RI
aug-cc-pVDZ-RI
aug-cc-pVDZ-RI
aug-cc-pVDZ-RI
aug-cc-pVDZ-RI
aug-cc-pVDZ-RI
aug-cc-pVDZ-RI
aug-cc-pVDZ-RI
aug-cc-pVDZ-RI
aug-cc-pVDZ-RI
aug-cc-pVDZ-RI
aug-cc-pVDZ-RI
aug-cc-pVDZ-RI
nothing
nothing
nothing
nothing
nothing
nothing
nothing
nothing
nothing
nothing
nothing
nothing
nothing
nothing
nothing
nothing
nothing
nothing
nothing
nothing
nothing
nothing
nothing
nothing
nothing
nothing
nothing
nothing
nothing
nothing
nothing
nothing
nothing
nothing
nothing
nothing
nothing
nothing
nothing
nothing
nothing
nothing
nothing
nothing
nothing
nothing
nothing
nothing
nothing
nothing
nothing
nothing
nothing
nothing
nothing
nothing
nothing
nothing
nothing
nothing
nothing
nothing
nothing
nothing
nothing
nothing
nothing
nothing

ecp=special
none
none
none
none
none
none
none
none
none
none
none
none
none
none
none
none
none
none
none
none
none
none
none
none
none
none
none
none
none
none
none
none
none
ECP-22
ECP-22
ECP-22
ECP-22
ECP-22
ECP-22
ECP-22
ECP-22
ECP-22
ECP-22
ECP-22
ECP-22
ECP-22
ECP-22
ECP-22
ECP-22
ECP-22
ECP-22
ECP-22
ECP-22
ECP-22
ECP-22
ECP-22
ECP-22
ECP-22
ECP-22
ECP-22
ECP-22
ECP-22
ECP-22
ECP-22
ECP-22
ECP-22
ECP-22
ECP-22
ECP-22
ECP-22
ECP-22
ECP-22
ECP-22
ECP-22
ECP-22
ECP-22
ECP-22
ECP-22
ECP-22
ECP-22
ECP-22
ECP-22
ECP-22
ECP-22
ECP-22
ECP-22
ECP-22
ECP-22
ECP-22
ECP-22
ECP-22
ECP-22
ECP-22
ECP-22
ECP-22
ECP-22
ECP-22
ECP-22
ECP-22
ECP-22
ECP-22

unit=angs
geom=xyz
101
N1 H3 Ti6 O23 ECP68
N     1.08696518842   -0.00000009305    1.23710519961
H     0.44123724179   -0.00000009812    2.02707937735
H     1.69411477679   -0.81895599788    1.31372553080
H     1.69411473181    0.81895581130    1.31372550327
Ti    0.00000000000    0.00000000000   -0.78470163195
O    -1.65931196752   -0.00000001427    0.00000000000
O    -0.96790782391    0.00000013002   -2.39107888348
O     0.48191419882    1.92321403687   -0.74930529898
O     0.48191412838   -1.92321415670   -0.74930552111
O     1.92020220131   -0.00000003587   -1.56437186685
Ti   -2.78551524383   -0.00000001235   -1.47979682550
Ti    2.29583925195    1.89297887512   -1.56954627905
Ti    2.29583935517   -1.89297894838   -1.56954597647
O    -3.19665888055    1.89067000888   -1.48726276009
O    -3.19665877773   -1.89066985771   -1.48726276379
Ti   -0.03135911375    3.80500941194   -0.94966962225
Ti   -0.03135918251   -3.80500946216   -0.94966978715
O     1.92443748297    1.90563485787   -3.57765260380
O     1.92443762326   -1.90563474989   -3.57765245533
O     3.45781091878    1.86311336808   -0.08518513178
O     3.45781086578   -1.86311359979   -0.08518468892
O    -1.63761086029    3.78282509145   -0.06190784883
O    -1.63761071632   -3.78282496517   -0.06190774746
O    -3.22826352143    0.00000008085   -3.53515073139
O    -0.96526835796    3.82054731076   -2.46159115225
O    -0.96526860954   -3.82054738327   -2.46159099566
O     1.94720627492    3.79681203299   -1.53357399023
O     1.94720637729   -3.79681191215   -1.53357406093
O    -4.66706421519    0.00000006401   -0.70471652657
O     4.18439463610    1.89814687122   -2.47677521113
O     4.18439487625   -1.89814672348   -2.47677473053
O     0.49922028254    5.68440688894   -0.69227213573
O     0.49922028254   -5.68440676355   -0.69227213573
Ti   -1.44640900919    0.00000017332   -4.31400762541
Ti   -2.82534088990    3.78184218887   -1.49800854206
Ti   -2.82534095751   -3.78184229517   -1.49800831449
Ti    0.80236692900    1.89278918463   -5.15129598517
Ti    0.80236705796   -1.89278908691   -5.15129596957
Ti    5.08352345696    1.88226488583   -0.94355012178
Ti    5.08352338689   -1.88226490382   -0.94354943776
Ti   -1.46558215868    3.79032654937   -4.40061977897
Ti   -1.46558220591   -3.79032635210   -4.40061971890
Ti    3.68319111435    1.88778934557   -4.42532529261
Ti    3.68319109055   -1.88778916210   -4.42532477106
Ti   -5.19023539879    1.88226488583   -0.94355012178
Ti   -5.19023546887   -1.88226490382   -0.94354943776
Ti   -4.29168100755    0.00000008082   -5.12407161964
Ti    2.32871315604    5.68440676087   -1.51330047985
Ti    2.32871315604   -5.68440689162   -1.51330047985
Ti    0.80887157667    5.68440683623   -5.14118576391
Ti    0.80887157667   -5.68440681625   -5.14118576391
Ti   -4.32345221993    3.79102367205   -5.13079265213
Ti   -4.32345204933   -3.79102349861   -5.13079264059
Ti    5.98207784820    0.00000008082   -5.12407161964
Ti    7.48824361192   -0.00000001235   -1.47979682550
Ti   -0.03135918251    7.56380419033   -0.94966978715
Ti   -0.03135911375   -7.56380424054   -0.94966962225
Ti   -2.88019247095    0.00000005303   -7.85623897039
Ti    5.10782386795    5.68440672118   -0.94223014971
Ti    5.10782386795   -5.68440693131   -0.94223014971
Ti    3.67110834666    5.68440699055   -4.41143187556
Ti    3.67110834666   -5.68440666194   -4.41143187556
Ti   -5.16593498780    5.68440672118   -0.94223014971
Ti   -5.16593498780   -5.68440693131   -0.94223014971
Ti    2.26183013555    1.88997558762   -7.89497226960
Ti    2.26183022865   -1.88997549430   -7.89497208171
Ti   -6.59056774140    1.88778934557   -4.42532529261
Ti   -6.59056776520   -1.88778916210   -4.42532477106
Ti   -2.82534095751    7.58697135732   -1.49800831449
Ti   -2.82534088990   -7.58697146362   -1.49800854206
Ti   -0.63709652879    1.89216875818   -8.69711430410
Ti   -0.63709650426   -1.89216874489   -8.69711434248
Ti   -7.97791960380    1.89297887512   -1.56954627905
Ti   -7.97791950059   -1.89297894838   -1.56954597647
Ti    5.95030663582    3.79102367205   -5.13079265213
Ti    5.95030680642   -3.79102349861   -5.13079264059
Ti    7.44841796585    3.78184218887   -1.49800854206
Ti    7.44841789824   -3.78184229517   -1.49800831449
Ti   -1.46558220591    7.57848730039   -4.40061971890
Ti   -1.46558215868   -7.57848710311   -4.40061977897
Ti   -2.88371040657    3.78913064626   -7.88600038557
Ti   -2.88371040319   -3.78913055880   -7.88600034313
Ti    2.25747928656    5.68440682373   -7.89252169922
Ti    2.25747928656   -5.68440682875   -7.89252169922
Ti   -6.60265050910    5.68440699055   -4.41143187556
Ti   -6.60265050910   -5.68440666194   -4.41143187556
Ti    8.82734984656    0.00000017332   -4.31400762541
Ti   -4.32345204933    7.57779015387   -5.13079264059
Ti   -4.32345221993   -7.57778998044   -5.13079265213
Ti    2.29583935517    9.47583470410   -1.56954597647
Ti    2.29583925195   -9.47583477736   -1.56954627905
Ti   -5.75300898674    0.00000014869   -8.69906095549
Ti    8.80817669707    3.79032654937   -4.40061977897
Ti    8.80817664985   -3.79032635210   -4.40061971890
Ti  -10.27375885575   -0.00000000000   -0.78470163195
Ti    0.80236705796    9.47602456558   -5.15129596957
Ti    0.80236692900   -9.47602446786   -5.15129598517
Ti    5.08352338689    9.48654874867   -0.94354943776
Ti    5.08352345696   -9.48654876666   -0.94355012178
Ti    0.00000000000   11.36881365249   -0.78470163195
Ti    0.00000000000  -11.36881365249   -0.78470163195



ghost=serialno


qmmm=Amber
pointcharges
9549
     -1.44640900919    0.00000017332   -4.31400762541    4.00000000000
     -1.04882864926    1.89421937006   -4.44987908068   -2.00000000000
     -1.04882863217   -1.89421924982   -4.44987902837   -2.00000000000
      0.45003336295   -0.00000002896   -5.03260928993   -2.00000000000
--------------------Output has been truncated-------------------------


--------------------Output has been truncated-------------------------


--------------------Output has been truncated-------------------------


--------------------Output has been truncated-------------------------


--------------------Output has been truncated-------------------------


--------------------Output has been truncated-------------------------


--------------------Output has been truncated-------------------------


--------------------Output has been truncated-------------------------


--------------------Output has been truncated-------------------------


--------------------Output has been truncated-------------------------


 
 Final local CC results:
 
 Minimum number of correlated electrons:        42       ( 21.9%)
 Maximum number of correlated electrons:       132       ( 68.8%)
 Average number of correlated electrons:        76.5     ( 39.8%)
 Minimum number of correlated orbitals:         95       ( 12.5%)
 Maximum number of correlated orbitals:        270       ( 35.6%)
 Average number of correlated orbitals:        157.0     ( 20.7%)
 
 CPU time for integral calculations [min]:                 20.138
 Wall time for integral calculations [min]:                 7.973
 
 CPU time for SCF calculation [min]:                      561.138
 Wall time for SCF calculation [min]:                      15.757
 
 CPU time for orbital localization [min]:                   0.295
 Wall time for orbital localization [min]:                  0.046
 
 CPU time for integral transformations [min]:            4274.495
 Wall time for integral transformations [min]:            131.018
 
 Reference energy [au]:                                -88960.637205550229
 
 LMP2 correlation energy [au]:                             -5.800095215841
 Total LMP2 energy [au]:                               -88966.437300766076
 
 Total MP2 correction for dropped NAFs [au]:                0.001650024886
 Total MP2 correction [au]:                                -0.015928251672
 
 CPU time for CCSD calculations [min]:                   4090.971
 Total CPU time for CCSD [min]:                          8947.036
 Wall time for CCSD calculations [min]:                   162.237
 Total wall time for CCSD [min]:                          317.029
 
 CCSD correlation energy [au]:                             -5.711529341980
 Total CCSD energy [au]:                               -88966.348734892206
 CCSD correlation energy + 0.5 MP2 corrections [au]:       -5.719493467816
 Total LNO-CCSD energy with MP2 corrections [au]:      -88966.356699018041
 
 CPU time for (T) corrections [min]:                     3914.555
 Total CPU time for CCSD(T) [min]:                      12861.591
 Wall time for (T) corrections [min]:                     114.647
 Total wall time for CCSD(T) [min]:                       431.676
 
 Total (T) correlation energy contribution [au]:           -0.265974911230
 Total (T) correlation energy+0.5 MP2 correction [au]:     -0.273939037066
 CCSD(T) correlation energy [au]:                          -5.977504253209
 Total CCSD(T) energy [au]:                            -88966.614709803442
 CCSD(T) correlation energy + MP2 corrections [au]:        -5.993432504881
 Total LNO-CCSD(T) energy with MP2 corrections [au]:   -88966.630638055110
 
 ======================================================================
 ======================================================================
 
 ************************ 2023-04-12 02:34:47 *************************
                      Normal termination of mrcc.
 **********************************************************************
