 **********************************************************************
                          MRCC program system
 **********************************************************************
 
                              Written by
     Mihaly Kallay, Peter R. Nagy, David Mester, Laszlo Gyevi-Nagy,
        Jozsef Csoka, P. Bernat Szabo, Zoltan Rolik, Gyula Samu,
     Jozsef Csontos, Bence Hegely, Adam Ganyecz, Istvan Ladjanszki,
       Lorant Szegedy, Bence Ladoczki, Klara Petrov, Mate Farkas,
                    Pal D. Mezei, and Reka A. Horvath
 
        Department of Physical Chemistry and Materials Science
            Budapest University of Technology and Economics
                  Budapest P.O.Box 91, H-1521 Hungary
 
                              www.mrcc.hu
 
                      Release date: March 18, 2022

 ************************ 2023-02-05 13:24:32 *************************
 Executing minp...

 Reading input from MINP...
 
 Input file:
 
calc=FNO-CCSD(T)
verbosity=3
mem=220GB
unit=angs
scfiguess=small
scfalg=locfit1
ccmaxit=400
ccsdalg=dfdirect
ccsdthreads=4
ccsdmkl=thr
ptthreads=4
lnoepsv=1e-5
naf_cor=1e-2
basis=aug-cc-pVTZ
basis_sm=def2-SVP
dfbasis_scf=def2-QZVPP-RI-JK
dfbasis_cor=aug-cc-pVTZ-RI
unit=angs
geom=xyz
16

C    34.41670262    34.07107264    10.41543014
C    33.11117461    33.45680459    10.91530835
H    34.24160149    35.00442132     9.86225048
H    34.94674030    33.36940783     9.75379242
H    35.10002891    34.30603621    11.24227357
H    32.42643037    33.26105434    10.07939442
H    32.59136835    34.12756100    11.61262818
H    33.28915165    32.50678735    11.43686767
C    20.41949695    36.18152134    10.40840413
C    21.71921254    35.56768136    10.92356358
H    19.89421274    35.47732643     9.74574003
H    20.60154528    37.11247849     9.85293887
H    19.72845280    36.42212532    11.22701403
H    22.41312130    35.37102181    10.09557036
H    21.53496881    34.61815933    11.44395536
H    22.23131028    36.23927251    11.62583355

--------------------Output has been truncated-------------------------


--------------------Output has been truncated-------------------------


--------------------Output has been truncated-------------------------


--------------------Output has been truncated-------------------------


--------------------Output has been truncated-------------------------


--------------------Output has been truncated-------------------------


--------------------Output has been truncated-------------------------


--------------------Output has been truncated-------------------------


--------------------Output has been truncated-------------------------


--------------------Output has been truncated-------------------------


 
 Reference energy [au]:                      -158.519089090879
 DF-MP2 singlet pair energy [au]:              -0.600511013160
 DF-MP2 triplet pair energy [au]:              -0.150064495201
 DF-SCS-MP2 correlation energy [au]:           -0.770634714192
 DF-SCS-MP2 energy [au]:                     -159.289723805071
 DF-SOS-MP2 correlation energy [au]:           -0.780664317108
 DF-SOS-MP2 energy [au]:                     -159.299753407987
 DF-MP2 correlation energy [au]:               -0.750575508361
 DF-MP2 energy [au]:                         -159.269664599239

 Results in FNO basis:
 
 
 Reference energy [au]:                      -158.519089090879
 DF-MP2 singlet pair energy [au]:              -0.598170329079
 DF-MP2 triplet pair energy [au]:              -0.149851882358
 DF-SCS-MP2 correlation energy [au]:           -0.767755022347
 DF-SCS-MP2 energy [au]:                     -159.286844113226
 DF-SOS-MP2 correlation energy [au]:           -0.777621427803
 DF-SOS-MP2 energy [au]:                     -159.296710518681
 DF-MP2 correlation energy [au]:               -0.748022211437
 DF-MP2 energy [au]:                         -159.267111302316

 Results in NAF basis:
 
 
 Reference energy [au]:                      -158.519089090879
 DF-MP2 singlet pair energy [au]:              -0.598049247049
 DF-MP2 triplet pair energy [au]:              -0.149930224712
 DF-SCS-MP2 correlation energy [au]:           -0.767635838030
 DF-SCS-MP2 energy [au]:                     -159.286724928909
 DF-SOS-MP2 correlation energy [au]:           -0.777464021164
 DF-SOS-MP2 energy [au]:                     -159.296553112043
 DF-MP2 correlation energy [au]:               -0.747979471761
 DF-MP2 energy [au]:                         -159.267068562640

 ************************ 2023-02-05 13:25:16 *************************
 Executing ccsd...

 Allocation of 220.0 Gbytes of memory...

 Direct DF-CCSD(T) calculation
 
 Convergence criterion:  1.0E-06
 
 Number of occupied/virtual/auxiliary orbitals:    14   278   756
   3422.71 MB is the minimal memory requirement for (T)
    780.99 MB is the minimal memory requirement for CCSD
 
 Reference energy [au]:            -158.519089090879
 T1 contribution [au]:                0.000000000000
 Same spin MP2 energy [au]:          -0.149890935430
 Opposite spin MP2 energy [au]:      -0.598109446820
 MP2 correlation energy [au]:        -0.748000382250
 Total MP2 energy [au]:            -159.267089473129
 MP2 correction [au]:                -0.002575126110
 
 
 CPU time [min]:     0.901                   Wall time [min]:     0.137
 
 Starting CCSD iterations...
 
                     Residual norm          Energy
 Iteration  1        0.241423394511     -159.308946216579
 Iteration  2        0.060038486487     -159.328076178956
 Iteration  3        0.015976029180     -159.329988362180
 Iteration  4        0.003604230626     -159.330004996249
 Iteration  5        0.000758973207     -159.330015411207
 Iteration  6        0.000215377866     -159.330021565782
 Iteration  7        0.000051277589     -159.330021135060
 Iteration  8        0.000013081091     -159.330021718315
 Iteration  9        0.000002622802     -159.330021666269
 
 CCSD iteration has converged in  9 steps.
    23656.02 MB memory was utilized by CCSD
 
 T1 diagnostic:      7.817E-03            D1 diagnostic:      1.354E-02
 
 T1 contribution [au]:                                  0.000000000000
 PPL energy contribution [au]:                          0.205823778705
 Scaled PPL energy contribution [au]:                   0.206541137220

 OS-PPL energy contribution [au]:                       0.179923286682
 Scaled OS-PPL energy contribution [au]:                0.180665436941
 SS-PPL energy contribution [au]:                       0.025900492023
 Scaled SS-PPL energy contribution [au]:                0.025924116774

 Opposite spin CCSD energy [au]:                       -0.668570135368
 Same spin CCSD energy [au]:                           -0.142399495378
 CCSD correlation energy [au]:                         -0.810969630747
 CCSD correlation energy + MP2 correction [au]:        -0.813544756857
 CCSD correlation energy + MP2 + PPL corr. [au]:       -0.812827398342
 Total CCSD energy [au]:                             -159.330058721626
 Total CCSD energy + MP2 correction [au]:            -159.332633847736
 Total CCSD energy + MP2 + PPL corr. [au]:           -159.331916489221
 
 CPU time [min]:    53.385                   Wall time [min]:     1.830
 
 Calculation of (T) correction...
 
 
     4429.83 MB memory is utilized for (T)

 0%       25%       50%       75%       100%
 |---------|---------|---------|---------| 
 
 (T) correction [au]:                                    -0.027918214248
 (T*) correction [au]:                                   -0.028014327731
 (T+) correction [au]:                                   -0.028013152912
 CCSD(T) correlation energy [au]:                        -0.838887844995
 CCSD(T) correlation energy + MP2 correction [au]:       -0.841462971105
 CCSD(T+) correlation en. + MP2 + PPL corr. [au]:        -0.840840551255
 Total CCSD(T) energy [au]:                            -159.357976935873
 Total CCSD(T) energy + MP2 correction [au]:           -159.360552061984
 Total CCSD(T+) energy + MP2 + PPL corr. [au]:         -159.359929642134
 
 CPU time [min]:   110.073                   Wall time [min]:     3.500
 
 ************************ 2023-02-05 13:28:46 *************************
                      Normal termination of mrcc.
 **********************************************************************
