 vasp.6.3.0 20Jan22 (build Aug 21 2024 11:13:42) complex                         
 executed on        HPECrayEX_GCC date 2024.11.26  19:42:08
 running  512 mpi-ranks, with    1 threads/rank
 distrk:  each k-point on  512 cores,    1 groups
 distr:  one band on NCORE=  16 cores,   32 groups


--------------------------------------------------------------------------------------------------------


 INCAR:
   SYSTEM = TiO2
   ISMEAR = 0
   SIGMA = 0.05
   EDIFF = 1E-4
   ALGO = ALL
   ISTART = 0
   IBRION = -1
   NSW = 0
   ISYM = 0
   ISIF = 2
   EDIFFG = -0.01
   DIPOL = 0.5 0.5 0.5
   IDIPOL = 3
   LDIPOL = .TRUE.
   GGA = MK
   LUSE_VDW = .TRUE.
   PARAM1 = 0.1234
   PARAM2 = 0.711357
   ZAB_VDW = -1.8867
   AGGAC = 0.0
   ENCUT = 600
   PREC = Accurate
   LASPH = .TRUE.
   LREAL = .FALSE.
   ISPIN = 1
   NELM = 200
   NELMIN = 8
   NCORE = 16
   KPAR = 1
   LWAVE = .FALSE.
   LCHARG = .FALSE.

 POTCAR:    PAW_PBE C 08Apr2002                   
 POTCAR:    PAW_PBE O 08Apr2002                   
 POTCAR:    PAW_PBE Ti_pv 07Sep2000               
 POTCAR:    PAW_PBE O 08Apr2002                   
 -----------------------------------------------------------------------------
|                                                                             |
|               ----> ADVICE to this user running VASP <----                  |
|                                                                             |
|     You have switched on vdW-DFT.                                           |
|     This routine was written and supplied by Jiri Klimes. We recommend      |
|     that you carefully read and cite the following publications:            |
|       J. Klimes, D.R. Bowler, A. Michelides                                 |
|          J. Phys.: Cond Matt. 22 022201 (2010)                              |
|       J. Klimes, D.R. Bowler, A. Michelides                                 |
|          Phys. Rev. B. 83, 195131 (2011)                                    |
|     and references therein.                                                 |
|                                                                             |
 -----------------------------------------------------------------------------

 POTCAR:    PAW_PBE C 08Apr2002                   
   SHA256 =  253f7b50bb8d59471dbedb8285d89021f4a42ed1a2c5d38a03a736e69125dd95 C/POTCAR              
   COPYR  = (c) Copyright 08Apr2002 Georg Kresse                                                    
   COPYR  = This file is part of the software VASP. Any use, copying, and all other rights are regul
   COPYR  = If you do not have a valid VASP license, you may not use, copy or distribute this file. 
   VRHFIN =C: s2p2                                                                                  
   LEXCH  = PE                                                                                      
   EATOM  =   147.1560 eV,   10.8157 Ry                                                             
                                                                                                    
   TITEL  = PAW_PBE C 08Apr2002                                                                     
   LULTRA =        F    use ultrasoft PP ?                                                          
   IUNSCR =        1    unscreen: 0-lin 1-nonlin 2-no                                               
   RPACOR =    1.200    partial core radius                                                         
   POMASS =   12.011; ZVAL   =    4.000    mass and valenz                                          
   RCORE  =    1.500    outmost cutoff radius                                                       
   RWIGS  =    1.630; RWIGS  =    0.863    wigner-seitz radius (au A)                               
   ENMAX  =  400.000; ENMIN  =  300.000 eV                                                          
   ICORE  =        2    local potential                                                             
   LCOR   =        T    correct aug charges                                                         
   LPAW   =        T    paw PP                                                                      
   EAUG   =  644.873                                                                                
   DEXC   =    0.000                                                                                
   RMAX   =    1.529    core radius for proj-oper                                                   
   RAUG   =    1.300    factor for augmentation sphere                                              
   RDEP   =    1.501    radius for radial grids                                                     
   RDEPT  =    1.300    core radius for aug-charge                                                  
                                                                                                    
   Atomic configuration                                                                             
    4 entries                                                                                       
     n  l   j            E        occ.                                                              
     1  0  0.50      -273.3789   2.0000                                                             
     2  0  0.50       -13.7508   2.0000                                                             
     2  1  0.50        -5.2854   2.0000                                                             
     3  2  1.50        -5.4423   0.0000                                                             
   Description                                                                                      
     l       E           TYP  RCUT    TYP  RCUT                                                     
     0    -13.7508458     23  1.200                                                                 
     0     -8.2022199     23  1.200                                                                 
     1     -5.2854383     23  1.500                                                                 
     1     34.0145650     23  1.500                                                                 
     2     -5.4423304      7  1.500                                                                 
  local pseudopotential read in
  partial core-charges read in
  partial kinetic energy density read in
  atomic valenz-charges read in
  non local Contribution for L=           0  read in
    real space projection operators read in
  non local Contribution for L=           0  read in
    real space projection operators read in
  non local Contribution for L=           1  read in
    real space projection operators read in
  non local Contribution for L=           1  read in
    real space projection operators read in
    PAW grid and wavefunctions read in

   number of l-projection  operators is LMAX  =           4
   number of lm-projection operators is LMMAX =           8

 POTCAR:    PAW_PBE O 08Apr2002                   
   SHA256 =  818f92134a0a090dccd8ba1447fa70422a3b330e708bb4f08108d8ae51209ddf O/POTCAR              
   COPYR  = (c) Copyright 08Apr2002 Georg Kresse                                                    
   COPYR  = This file is part of the software VASP. Any use, copying, and all other rights are regul
   COPYR  = If you do not have a valid VASP license, you may not use, copy or distribute this file. 
   VRHFIN =O: s2p4                                                                                  
   LEXCH  = PE                                                                                      
   EATOM  =   432.3788 eV,   31.7789 Ry                                                             
                                                                                                    
   TITEL  = PAW_PBE O 08Apr2002                                                                     
   LULTRA =        F    use ultrasoft PP ?                                                          
   IUNSCR =        1    unscreen: 0-lin 1-nonlin 2-no                                               
   RPACOR =    1.200    partial core radius                                                         
   POMASS =   16.000; ZVAL   =    6.000    mass and valenz                                          
   RCORE  =    1.520    outmost cutoff radius                                                       
   RWIGS  =    1.550; RWIGS  =    0.820    wigner-seitz radius (au A)                               
   ENMAX  =  400.000; ENMIN  =  300.000 eV                                                          
   ICORE  =        2    local potential                                                             
   LCOR   =        T    correct aug charges                                                         
   LPAW   =        T    paw PP                                                                      
   EAUG   =  605.392                                                                                
   DEXC   =    0.000                                                                                
   RMAX   =    1.553    core radius for proj-oper                                                   
   RAUG   =    1.300    factor for augmentation sphere                                              
   RDEP   =    1.550    radius for radial grids                                                     
   RDEPT  =    1.329    core radius for aug-charge                                                  
                                                                                                    
   Atomic configuration                                                                             
    4 entries                                                                                       
     n  l   j            E        occ.                                                              
     1  0  0.50      -514.6923   2.0000                                                             
     2  0  0.50       -23.9615   2.0000                                                             
     2  1  0.50        -9.0305   4.0000                                                             
     3  2  1.50        -9.5241   0.0000                                                             
   Description                                                                                      
     l       E           TYP  RCUT    TYP  RCUT                                                     
     0    -23.9615318     23  1.200                                                                 
     0     -9.5240782     23  1.200                                                                 
     1     -9.0304911     23  1.520                                                                 
     1      8.1634956     23  1.520                                                                 
     2     -9.5240782      7  1.500                                                                 
  local pseudopotential read in
  partial core-charges read in
  partial kinetic energy density read in
  kinetic energy density of atom read in
  atomic valenz-charges read in
  non local Contribution for L=           0  read in
    real space projection operators read in
  non local Contribution for L=           0  read in
    real space projection operators read in
  non local Contribution for L=           1  read in
    real space projection operators read in
  non local Contribution for L=           1  read in
    real space projection operators read in
    PAW grid and wavefunctions read in

   number of l-projection  operators is LMAX  =           4
   number of lm-projection operators is LMMAX =           8

 POTCAR:    PAW_PBE Ti_pv 07Sep2000               
   SHA256 =  f757a1b2c6d082f4c628fa3d987464a8763bf92e53844ac0500b0e2ddc9ce5c0 Ti_pv/POTCAR          
   COPYR  = (c) Copyright 07Sep2000 Georg Kresse                                                    
   COPYR  = This file is part of the software VASP. Any use, copying, and all other rights are regul
   COPYR  = If you do not have a valid VASP license, you may not use, copy or distribute this file. 
   VRHFIN =Ti: d3 s1                                                                                
   LEXCH  = PE                                                                                      
   EATOM  =  1042.5995 eV,   76.6289 Ry                                                             
                                                                                                    
   TITEL  = PAW_PBE Ti_pv 07Sep2000                                                                 
   LULTRA =        F    use ultrasoft PP ?                                                          
   IUNSCR =        1    unscreen: 0-lin 1-nonlin 2-no                                               
   RPACOR =    2.200    partial core radius                                                         
   POMASS =   47.880; ZVAL   =   10.000    mass and valenz                                          
   RCORE  =    2.500    outmost cutoff radius                                                       
   RWIGS  =    2.500; RWIGS  =    1.323    wigner-seitz radius (au A)                               
   ENMAX  =  222.335; ENMIN  =  166.751 eV                                                          
   RCLOC  =    1.701    cutoff for local pot                                                        
   LCOR   =        T    correct aug charges                                                         
   LPAW   =        T    paw PP                                                                      
   EAUG   =  482.848                                                                                
   DEXC   =    0.000                                                                                
   RMAX   =    2.564    core radius for proj-oper                                                   
   RAUG   =    1.300    factor for augmentation sphere                                              
   RDEP   =    2.538    radius for radial grids                                                     
   RDEPT  =    1.952    core radius for aug-charge                                                  
                                                                                                    
   Atomic configuration                                                                             
    8 entries                                                                                       
     n  l   j            E        occ.                                                              
     1  0  0.50     -4865.3608   2.0000                                                             
     2  0  0.50      -533.1368   2.0000                                                             
     2  1  1.50      -440.5031   6.0000                                                             
     3  0  0.50       -59.3186   2.0000                                                             
     3  1  1.50       -35.7012   6.0000                                                             
     3  2  2.50        -1.9157   3.0000                                                             
     4  0  0.50        -3.7291   1.0000                                                             
     4  3  2.50        -1.3606   0.0000                                                             
   Description                                                                                      
     l       E           TYP  RCUT    TYP  RCUT                                                     
     1    -35.7012140     23  2.300                                                                 
     1     -1.3605826     23  2.300                                                                 
     2     -1.9156996     23  2.500                                                                 
     2     -0.4063033     23  2.500                                                                 
     0     -3.7290856     23  2.500                                                                 
     0     20.4087390     23  2.500                                                                 
  local pseudopotential read in
  partial core-charges read in
  partial kinetic energy density read in
  atomic valenz-charges read in
  non local Contribution for L=           1  read in
    real space projection operators read in
  non local Contribution for L=           1  read in
    real space projection operators read in
  non local Contribution for L=           2  read in
    real space projection operators read in
  non local Contribution for L=           2  read in
    real space projection operators read in
  non local Contribution for L=           0  read in
    real space projection operators read in
  non local Contribution for L=           0  read in
    real space projection operators read in
    PAW grid and wavefunctions read in

   number of l-projection  operators is LMAX  =           6
   number of lm-projection operators is LMMAX =          18

 POTCAR:    PAW_PBE O 08Apr2002                   
   SHA256 =  818f92134a0a090dccd8ba1447fa70422a3b330e708bb4f08108d8ae51209ddf O/POTCAR              
   COPYR  = (c) Copyright 08Apr2002 Georg Kresse                                                    
   COPYR  = This file is part of the software VASP. Any use, copying, and all other rights are regul
   COPYR  = If you do not have a valid VASP license, you may not use, copy or distribute this file. 
   VRHFIN =O: s2p4                                                                                  
   LEXCH  = PE                                                                                      
   EATOM  =   432.3788 eV,   31.7789 Ry                                                             
                                                                                                    
   TITEL  = PAW_PBE O 08Apr2002                                                                     
   LULTRA =        F    use ultrasoft PP ?                                                          
   IUNSCR =        1    unscreen: 0-lin 1-nonlin 2-no                                               
   RPACOR =    1.200    partial core radius                                                         
   POMASS =   16.000; ZVAL   =    6.000    mass and valenz                                          
   RCORE  =    1.520    outmost cutoff radius                                                       
   RWIGS  =    1.550; RWIGS  =    0.820    wigner-seitz radius (au A)                               
   ENMAX  =  400.000; ENMIN  =  300.000 eV                                                          
   ICORE  =        2    local potential                                                             
   LCOR   =        T    correct aug charges                                                         
   LPAW   =        T    paw PP                                                                      
   EAUG   =  605.392                                                                                
   DEXC   =    0.000                                                                                
   RMAX   =    1.553    core radius for proj-oper                                                   
   RAUG   =    1.300    factor for augmentation sphere                                              
   RDEP   =    1.550    radius for radial grids                                                     
   RDEPT  =    1.329    core radius for aug-charge                                                  
                                                                                                    
   Atomic configuration                                                                             
    4 entries                                                                                       
     n  l   j            E        occ.                                                              
     1  0  0.50      -514.6923   2.0000                                                             
     2  0  0.50       -23.9615   2.0000                                                             
     2  1  0.50        -9.0305   4.0000                                                             
     3  2  1.50        -9.5241   0.0000                                                             
   Description                                                                                      
     l       E           TYP  RCUT    TYP  RCUT                                                     
     0    -23.9615318     23  1.200                                                                 
     0     -9.5240782     23  1.200                                                                 
     1     -9.0304911     23  1.520                                                                 
     1      8.1634956     23  1.520                                                                 
     2     -9.5240782      7  1.500                                                                 
  local pseudopotential read in
  partial core-charges read in
  partial kinetic energy density read in
  kinetic energy density of atom read in
  atomic valenz-charges read in
  non local Contribution for L=           0  read in
    real space projection operators read in
  non local Contribution for L=           0  read in
    real space projection operators read in
  non local Contribution for L=           1  read in
    real space projection operators read in
  non local Contribution for L=           1  read in
    real space projection operators read in
    PAW grid and wavefunctions read in

   number of l-projection  operators is LMAX  =           4
   number of lm-projection operators is LMMAX =           8

 -----------------------------------------------------------------------------
|                                                                             |
|               ----> ADVICE to this user running VASP <----                  |
|                                                                             |
|     You have a (more or less) 'large supercell' and for larger cells it     |
|     might be more efficient to use real-space projection operators.         |
|     Therefore, try LREAL= Auto in the INCAR file.                           |
|     Mind: For very accurate calculation, you might also keep the            |
|     reciprocal projection scheme (i.e. LREAL=.FALSE.).                      |
|                                                                             |
 -----------------------------------------------------------------------------

 -----------------------------------------------------------------------------
|                                                                             |
|               ----> ADVICE to this user running VASP <----                  |
|                                                                             |
|     You enforced a specific xc type in the INCAR file but a different       |
|     type was found in the POTCAR file.                                      |
|     I HOPE YOU KNOW WHAT YOU ARE DOING!                                     |
|                                                                             |
 -----------------------------------------------------------------------------

  PAW_PBE C 08Apr2002                   :
 energy of atom  1       EATOM= -147.1560
 kinetic energy error for atom=    0.0057 (will be added to EATOM!!)
  PAW_PBE O 08Apr2002                   :
 energy of atom  2       EATOM= -432.3788
 kinetic energy error for atom=    0.0168 (will be added to EATOM!!)
  PAW_PBE Ti_pv 07Sep2000               :
 energy of atom  3       EATOM=-1042.5995
 kinetic energy error for atom=    0.0007 (will be added to EATOM!!)
  PAW_PBE O 08Apr2002                   :
 energy of atom  4       EATOM= -432.3788
 kinetic energy error for atom=    0.0168 (will be added to EATOM!!)


 POSCAR:  C  O Ti  O
  positions in direct lattice
  No initial velocities read in
 exchange correlation table for  LEXCH =       43
   RHO(1)=    0.500       N(1)  =     2000
   RHO(2)=  100.500       N(2)  =     4000



--------------------------------------------------------------------------------------------------------


 ion  position               nearest neighbor table
   1  0.500  0.607  0.835-   2 1.16   3 1.17
   2  0.500  0.704  0.843-   1 1.16
   3  0.500  0.511  0.825-   1 1.17  83 2.56
   4  0.750  0.625  0.265-  84 1.94  85 1.94 144 1.94 145 1.94 166 1.96  87 1.96  14 2.94  34 2.94

   5  0.000  0.750  0.265-  87 1.94 107 1.94 106 1.94  86 1.94  88 1.96  35 2.94  15 2.94
   6  0.000  0.625  0.382-  88 1.94  89 1.94 148 1.94 149 1.94  90 1.96  91 1.96  16 2.94  36 2.94

   7  0.750  0.750  0.382- 171 1.94 191 1.94  90 1.94 110 1.94  92 1.96  85 1.96  17 2.94  37 2.94

   8  0.750  0.625  0.500-  92 1.94  93 1.94 152 1.94 153 1.94 174 1.96  95 1.96  18 2.94  38 2.94

   9  0.000  0.750  0.500-  95 1.94 115 1.94 114 1.94  94 1.94  89 1.96  96 1.98  19 2.94  39 2.94

  10  1.000  0.625  0.616-  96 1.89 156 1.89  99 1.94  98 1.94 157 2.00  97 2.00  20 2.94  40 2.94

  11  0.750  0.750  0.622- 100 1.86 199 1.96 179 1.96 118 1.96  98 1.96  93 2.09  21 2.94  41 2.94

  12  0.750  0.625  0.743- 101 1.83 161 1.83 103 2.01 182 2.01 100 2.07 160 2.07  22 2.94  42 2.94

  13  1.000  0.750  0.731-  97 1.81 122 1.93 123 1.93 102 1.93 103 1.93  23 2.94  43 2.94
  14  0.750  0.875  0.265-  84 1.94  85 1.94 104 1.94 105 1.94 186 1.96 107 1.96   4 2.94  24 2.94

  15  0.000  0.000  0.265- 107 1.94 127 1.94 126 1.94 106 1.94 108 1.96  25 2.94   5 2.94
  16  0.000  0.875  0.382-  88 1.94  89 1.94 108 1.94 109 1.94 110 1.96 111 1.96   6 2.94  26 2.94

  17  0.750  0.000  0.382- 191 1.94 211 1.94 110 1.94 130 1.94 112 1.96 105 1.96   7 2.94  27 2.94

  18  0.750  0.875  0.500-  92 1.94  93 1.94 112 1.94 113 1.94 194 1.96 115 1.96   8 2.94  28 2.94

  19  0.000  0.000  0.500- 115 1.94 135 1.94 134 1.94 114 1.94 109 1.96 116 1.98   9 2.94  29 2.94

  20  1.000  0.875  0.616- 116 1.89  96 1.89 119 1.94 118 1.94 117 2.00  97 2.00  30 2.94  10 2.94

  21  0.750  0.000  0.622- 120 1.86 219 1.96 199 1.96 138 1.96 118 1.96 113 2.09  31 2.94  11 2.94

  22  0.750  0.875  0.744- 121 1.83 101 1.83 202 2.01 123 2.02 120 2.07 100 2.08  12 2.94  32 2.94

  23  1.000  0.000  0.731- 117 1.81 142 1.93 143 1.93 122 1.93 123 1.93  13 2.94  33 2.94
  24  0.750  0.125  0.265- 104 1.94 105 1.94 124 1.94 125 1.94 206 1.96 127 1.96  14 2.94  34 2.94

  25  0.000  0.250  0.265- 127 1.94 147 1.94 146 1.94 126 1.94 128 1.96  35 2.94  15 2.94
  26  0.000  0.125  0.382- 108 1.94 109 1.94 128 1.94 129 1.94 130 1.96 131 1.96  16 2.94  36 2.94

  27  0.750  0.250  0.382- 211 1.94 231 1.94 130 1.94 150 1.94 132 1.96 125 1.96  17 2.94  37 2.94

  28  0.750  0.125  0.500- 112 1.94 113 1.94 132 1.94 133 1.94 214 1.96 135 1.96  18 2.94  38 2.94

  29  0.000  0.250  0.500- 135 1.94 155 1.94 154 1.94 134 1.94 129 1.96 136 1.98  19 2.94  39 2.94

  30  1.000  0.125  0.616- 136 1.89 116 1.89 139 1.94 138 1.94 117 2.00 137 2.00  20 2.94  40 2.94

  31  0.750  0.250  0.622- 140 1.86 219 1.96 239 1.96 158 1.96 138 1.96 133 2.09  21 2.94  41 2.94

  32  0.750  0.125  0.744- 141 1.83 121 1.83 222 2.01 143 2.02 140 2.07 120 2.08  22 2.94  42 2.94

  33  1.000  0.250  0.731- 137 1.81 142 1.93 143 1.93 162 1.93 163 1.93  23 2.94  43 2.94
  34  0.750  0.375  0.265- 124 1.94 125 1.94 144 1.94 145 1.94 226 1.96 147 1.96   4 2.94  24 2.94

  35  0.000  0.500  0.265-  87 1.94 147 1.94 146 1.94  86 1.94 148 1.96  25 2.94   5 2.94
  36  0.000  0.375  0.382- 128 1.94 129 1.94 148 1.94 149 1.94 150 1.96 151 1.96   6 2.94  26 2.94

  37  0.750  0.500  0.382- 171 1.94 231 1.94  90 1.94 150 1.94 145 1.96 152 1.96   7 2.94  27 2.94

  38  0.750  0.375  0.500- 132 1.94 133 1.94 152 1.94 153 1.94 234 1.96 155 1.96   8 2.94  28 2.94

  39  0.000  0.500  0.500-  95 1.94 155 1.94 154 1.94  94 1.94 149 1.96 156 1.98   9 2.94  29 2.94

  40  1.000  0.375  0.616- 136 1.89 156 1.89 159 1.94 158 1.94 137 2.00 157 2.00  30 2.94  10 2.94

  41  0.750  0.500  0.622- 160 1.86 239 1.96 179 1.96 158 1.96  98 1.96 153 2.09  31 2.94  11 2.94

  42  0.750  0.375  0.744- 141 1.83 161 1.83 242 2.01 163 2.01 160 2.07 140 2.08  32 2.94  12 2.94

  43  1.000  0.500  0.731- 157 1.81 162 1.93 163 1.93 102 1.93 103 1.93  13 2.94  33 2.94
  44  0.250  0.625  0.265- 164 1.94 165 1.94 224 1.94 225 1.94  86 1.96 167 1.96  54 2.94  74 2.94

  45  0.500  0.750  0.265- 167 1.94 187 1.94 186 1.94 166 1.94 168 1.96  75 2.94  55 2.94
  46  0.500  0.625  0.382- 168 1.94 169 1.94 228 1.94 229 1.94 170 1.96 171 1.96  56 2.94  76 2.94

  47  0.250  0.750  0.382-  91 1.94 111 1.94 170 1.94 190 1.94 172 1.96 165 1.96  57 2.94  77 2.94

  48  0.250  0.625  0.500- 172 1.94 173 1.94 232 1.94 233 1.94  94 1.96 175 1.96  58 2.94  78 2.94

  49  0.500  0.750  0.500- 175 1.94 195 1.94 194 1.94 174 1.94 169 1.96 176 1.98  59 2.94  79 2.94

  50  0.500  0.625  0.616- 236 1.89 176 1.90 179 1.94 178 1.94 177 1.99 237 1.99  80 2.93  60 2.94

  51  0.250  0.750  0.622- 180 1.86 198 1.96 178 1.96 119 1.96  99 1.96 173 2.09  61 2.94  81 2.94

  52  0.250  0.625  0.743- 181 1.83 241 1.83 102 2.01 183 2.01 180 2.07 240 2.07  62 2.94  82 2.94

  53  0.500  0.751  0.731- 177 1.81 182 1.93 183 1.93 202 1.93 203 1.93  63 2.93  83 2.96
  54  0.250  0.875  0.265- 164 1.94 165 1.94 184 1.94 185 1.94 106 1.96 187 1.96  44 2.94  64 2.94

  55  0.500  0.000  0.265- 187 1.94 207 1.94 206 1.94 186 1.94 188 1.96  65 2.94  45 2.94
  56  0.500  0.875  0.382- 168 1.94 169 1.94 188 1.94 189 1.94 190 1.96 191 1.96  46 2.94  66 2.94

  57  0.250  0.000  0.382- 111 1.94 131 1.94 190 1.94 210 1.94 192 1.96 185 1.96  47 2.94  67 2.94

  58  0.250  0.875  0.500- 172 1.94 173 1.94 192 1.94 193 1.94 114 1.96 195 1.96  48 2.94  68 2.94

  59  0.500  0.000  0.500- 195 1.94 215 1.94 214 1.94 194 1.94 189 1.96 196 1.98  49 2.94  69 2.94

  60  0.500  0.875  0.615- 176 1.89 196 1.89 199 1.94 198 1.94 177 1.99 197 2.00  50 2.94  70 2.95

  61  0.250  0.000  0.622- 200 1.86 218 1.96 198 1.96 139 1.96 119 1.96 193 2.09  71 2.94  51 2.94

  62  0.250  0.875  0.744- 201 1.83 181 1.83 203 2.01 122 2.02 200 2.07 180 2.08  52 2.94  72 2.94

  63  0.500  0.000  0.731- 197 1.81 202 1.93 203 1.93 222 1.93 223 1.93  53 2.93  73 2.93
  64  0.250  0.125  0.265- 184 1.94 185 1.94 204 1.94 205 1.94 126 1.96 207 1.96  54 2.94  74 2.94

  65  0.500  0.250  0.265- 207 1.94 227 1.94 226 1.94 206 1.94 208 1.96  75 2.94  55 2.94
  66  0.500  0.125  0.382- 188 1.94 189 1.94 208 1.94 209 1.94 210 1.96 211 1.96  56 2.94  76 2.94

  67  0.250  0.250  0.382- 131 1.94 151 1.94 210 1.94 230 1.94 212 1.96 205 1.96  57 2.94  77 2.94

  68  0.250  0.125  0.500- 192 1.94 193 1.94 212 1.94 213 1.94 134 1.96 215 1.96  58 2.94  78 2.94

  69  0.500  0.250  0.500- 215 1.94 235 1.94 234 1.94 214 1.94 209 1.96 216 1.98  59 2.94  79 2.94

  70  0.500  0.125  0.615- 216 1.89 196 1.89 219 1.94 218 1.94 217 1.99 197 2.00  80 2.94  60 2.95

  71  0.250  0.250  0.622- 220 1.86 218 1.96 238 1.96 159 1.96 139 1.96 213 2.09  61 2.94  81 2.94

  72  0.250  0.125  0.744- 221 1.83 201 1.83 223 2.01 142 2.02 220 2.07 200 2.08  62 2.94  82 2.94

  73  0.500  0.250  0.731- 217 1.81 242 1.92 243 1.92 222 1.93 223 1.93  83 2.93  63 2.93
  74  0.250  0.375  0.265- 204 1.94 205 1.94 224 1.94 225 1.94 146 1.96 227 1.96  44 2.94  64 2.94

  75  0.500  0.500  0.265- 167 1.94 227 1.94 226 1.94 166 1.94 228 1.96  65 2.94  45 2.94
  76  0.500  0.375  0.382- 208 1.94 209 1.94 228 1.94 229 1.94 230 1.96 231 1.96  46 2.94  66 2.94

  77  0.250  0.500  0.382-  91 1.94 151 1.94 170 1.94 230 1.94 225 1.96 232 1.96  47 2.94  67 2.94

  78  0.250  0.375  0.500- 212 1.94 213 1.94 232 1.94 233 1.94 154 1.96 235 1.96  48 2.94  68 2.94

  79  0.500  0.500  0.500- 175 1.94 235 1.94 234 1.94 174 1.94 229 1.96 236 1.99  49 2.94  69 2.94

  80  0.500  0.376  0.616- 236 1.89 216 1.90 239 1.94 238 1.94 217 1.99 237 1.99  50 2.93  70 2.94

  81  0.250  0.500  0.622- 240 1.86 238 1.96 178 1.96 159 1.96  99 1.96 233 2.09  71 2.94  51 2.94

  82  0.250  0.375  0.744- 221 1.83 241 1.83 243 2.01 162 2.01 240 2.07 220 2.08  72 2.94  52 2.94

  83  0.500  0.499  0.732- 237 1.83 242 1.92 243 1.92 182 1.94 183 1.94   3 2.56  73 2.93  53 2.96

  84  0.750  0.750  0.219-   4 1.94  14 1.94
  85  0.750  0.750  0.311-   4 1.94  14 1.94   7 1.96
  86  0.098  0.625  0.265-   5 1.94  35 1.94  44 1.96
  87  0.902  0.625  0.265-   5 1.94  35 1.94   4 1.96
  88  0.000  0.750  0.336-   6 1.94  16 1.94   5 1.96
  89  0.000  0.750  0.428-   6 1.94  16 1.94   9 1.96
  90  0.848  0.625  0.382-   7 1.94  37 1.94   6 1.96
  91  0.152  0.625  0.382-  47 1.94  77 1.94   6 1.96
  92  0.750  0.750  0.454-   8 1.94  18 1.94   7 1.96
  93  0.750  0.750  0.546-   8 1.94  18 1.94  11 2.09
  94  0.098  0.625  0.500-   9 1.94  39 1.94  48 1.96
  95  0.902  0.625  0.500-   9 1.94  39 1.94   8 1.96
  96  1.000  0.750  0.572-  20 1.89  10 1.89   9 1.98
  97  0.000  0.750  0.665-  13 1.81  20 2.00  10 2.00
  98  0.850  0.625  0.618-  10 1.94  11 1.96  41 1.96
  99  0.150  0.625  0.618-  10 1.94  51 1.96  81 1.96
 100  0.751  0.750  0.690-  11 1.86  12 2.07  22 2.08
 101  0.749  0.750  0.783-  12 1.83  22 1.83
 102  0.094  0.625  0.743-  43 1.93  13 1.93  52 2.01
 103  0.906  0.625  0.743-  43 1.93  13 1.93  12 2.01
 104  0.750  0.000  0.219-  14 1.94  24 1.94
 105  0.750  0.000  0.311-  14 1.94  24 1.94  17 1.96
 106  0.098  0.875  0.265-   5 1.94  15 1.94  54 1.96
 107  0.902  0.875  0.265-   5 1.94  15 1.94  14 1.96
 108  0.000  0.000  0.336-  16 1.94  26 1.94  15 1.96
 109  0.000  0.000  0.428-  16 1.94  26 1.94  19 1.96
 110  0.848  0.875  0.382-   7 1.94  17 1.94  16 1.96
 111  0.152  0.875  0.382-  47 1.94  57 1.94  16 1.96
 112  0.750  0.000  0.454-  18 1.94  28 1.94  17 1.96
 113  0.750  0.000  0.546-  18 1.94  28 1.94  21 2.09
 114  0.098  0.875  0.500-   9 1.94  19 1.94  58 1.96
 115  0.902  0.875  0.500-   9 1.94  19 1.94  18 1.96
 116  1.000  0.000  0.572-  20 1.89  30 1.89  19 1.98
 117  0.000  0.000  0.665-  23 1.81  20 2.00  30 2.00
 118  0.850  0.875  0.619-  20 1.94  11 1.96  21 1.96
 119  0.150  0.875  0.619-  20 1.94  51 1.96  61 1.96
 120  0.750  0.000  0.690-  21 1.86  22 2.07  32 2.08
 121  0.750  0.000  0.783-  22 1.83  32 1.83
 122  0.094  0.875  0.743-  13 1.93  23 1.93  62 2.02
 123  0.906  0.875  0.743-  13 1.93  23 1.93  22 2.02
 124  0.750  0.250  0.219-  24 1.94  34 1.94
 125  0.750  0.250  0.311-  24 1.94  34 1.94  27 1.96
 126  0.098  0.125  0.265-  15 1.94  25 1.94  64 1.96
 127  0.902  0.125  0.265-  15 1.94  25 1.94  24 1.96
 128  0.000  0.250  0.336-  26 1.94  36 1.94  25 1.96
 129  0.000  0.250  0.428-  26 1.94  36 1.94  29 1.96
 130  0.848  0.125  0.382-  17 1.94  27 1.94  26 1.96
 131  0.152  0.125  0.382-  57 1.94  67 1.94  26 1.96
 132  0.750  0.250  0.454-  28 1.94  38 1.94  27 1.96
 133  0.750  0.250  0.546-  28 1.94  38 1.94  31 2.09
 134  0.098  0.125  0.500-  19 1.94  29 1.94  68 1.96
 135  0.902  0.125  0.500-  19 1.94  29 1.94  28 1.96
 136  1.000  0.250  0.572-  30 1.89  40 1.89  29 1.98
 137  0.000  0.250  0.665-  33 1.81  40 2.00  30 2.00
 138  0.850  0.125  0.619-  30 1.94  21 1.96  31 1.96
 139  0.150  0.125  0.619-  30 1.94  61 1.96  71 1.96
 140  0.751  0.250  0.690-  31 1.86  32 2.07  42 2.08
 141  0.750  0.250  0.783-  42 1.83  32 1.83
 142  0.094  0.125  0.743-  33 1.93  23 1.93  72 2.02
 143  0.906  0.125  0.743-  33 1.93  23 1.93  32 2.02
 144  0.750  0.500  0.219-   4 1.94  34 1.94
 145  0.750  0.500  0.311-   4 1.94  34 1.94  37 1.96
 146  0.098  0.375  0.265-  25 1.94  35 1.94  74 1.96
 147  0.902  0.375  0.265-  25 1.94  35 1.94  34 1.96
 148  0.000  0.500  0.336-   6 1.94  36 1.94  35 1.96
 149  0.000  0.500  0.428-   6 1.94  36 1.94  39 1.96
 150  0.848  0.375  0.382-  27 1.94  37 1.94  36 1.96
 151  0.152  0.375  0.382-  67 1.94  77 1.94  36 1.96
 152  0.750  0.500  0.454-   8 1.94  38 1.94  37 1.96
 153  0.750  0.500  0.546-   8 1.94  38 1.94  41 2.09
 154  0.098  0.375  0.500-  29 1.94  39 1.94  78 1.96
 155  0.902  0.375  0.500-  29 1.94  39 1.94  38 1.96
 156  1.000  0.500  0.572-  40 1.89  10 1.89  39 1.98
 157  0.000  0.500  0.665-  43 1.81  10 2.00  40 2.00
 158  0.850  0.375  0.618-  40 1.94  31 1.96  41 1.96
 159  0.150  0.375  0.618-  40 1.94  71 1.96  81 1.96
 160  0.751  0.500  0.690-  41 1.86  12 2.07  42 2.07
 161  0.748  0.500  0.783-  42 1.83  12 1.83
 162  0.094  0.375  0.743-  43 1.93  33 1.93  82 2.01
 163  0.906  0.375  0.743-  43 1.93  33 1.93  42 2.01
 164  0.250  0.750  0.219-  44 1.94  54 1.94
 165  0.250  0.750  0.311-  44 1.94  54 1.94  47 1.96
 166  0.598  0.625  0.265-  45 1.94  75 1.94   4 1.96
 167  0.402  0.625  0.265-  45 1.94  75 1.94  44 1.96
 168  0.500  0.750  0.336-  46 1.94  56 1.94  45 1.96
 169  0.500  0.750  0.428-  46 1.94  56 1.94  49 1.96
 170  0.348  0.625  0.382-  47 1.94  77 1.94  46 1.96
 171  0.652  0.625  0.382-   7 1.94  37 1.94  46 1.96
 172  0.250  0.750  0.454-  48 1.94  58 1.94  47 1.96
 173  0.250  0.750  0.546-  48 1.94  58 1.94  51 2.09
 174  0.598  0.625  0.500-  49 1.94  79 1.94   8 1.96
 175  0.402  0.625  0.500-  49 1.94  79 1.94  48 1.96
 176  0.500  0.749  0.572-  60 1.89  50 1.90  49 1.98
 177  0.500  0.751  0.665-  53 1.81  60 1.99  50 1.99
 178  0.350  0.625  0.619-  50 1.94  81 1.96  51 1.96
 179  0.650  0.625  0.619-  50 1.94  41 1.96  11 1.96
 180  0.249  0.750  0.690-  51 1.86  52 2.07  62 2.08
 181  0.251  0.750  0.783-  52 1.83  62 1.83
 182  0.594  0.626  0.742-  53 1.93  83 1.94  12 2.01
 183  0.406  0.626  0.742-  53 1.93  83 1.94  52 2.01
 184  0.250  0.000  0.219-  54 1.94  64 1.94
 185  0.250  0.000  0.311-  54 1.94  64 1.94  57 1.96
 186  0.598  0.875  0.265-  45 1.94  55 1.94  14 1.96
 187  0.402  0.875  0.265-  45 1.94  55 1.94  54 1.96
 188  0.500  0.000  0.336-  56 1.94  66 1.94  55 1.96
 189  0.500  0.000  0.428-  56 1.94  66 1.94  59 1.96
 190  0.348  0.875  0.382-  47 1.94  57 1.94  56 1.96
 191  0.652  0.875  0.382-   7 1.94  17 1.94  56 1.96
 192  0.250  0.000  0.454-  58 1.94  68 1.94  57 1.96
 193  0.250  0.000  0.546-  58 1.94  68 1.94  61 2.09
 194  0.598  0.875  0.500-  49 1.94  59 1.94  18 1.96
 195  0.402  0.875  0.500-  49 1.94  59 1.94  58 1.96
 196  0.500  0.000  0.572-  60 1.89  70 1.89  59 1.98
 197  0.500  0.000  0.665-  63 1.81  70 2.00  60 2.00
 198  0.350  0.875  0.618-  60 1.94  51 1.96  61 1.96
 199  0.650  0.875  0.618-  60 1.94  11 1.96  21 1.96
 200  0.250  0.000  0.690-  61 1.86  62 2.07  72 2.08
 201  0.250  0.000  0.783-  62 1.83  72 1.83
 202  0.594  0.876  0.742-  63 1.93  53 1.93  22 2.01
 203  0.406  0.876  0.742-  63 1.93  53 1.93  62 2.01
 204  0.250  0.250  0.219-  64 1.94  74 1.94
 205  0.250  0.250  0.311-  64 1.94  74 1.94  67 1.96
 206  0.598  0.125  0.265-  55 1.94  65 1.94  24 1.96
 207  0.402  0.125  0.265-  55 1.94  65 1.94  64 1.96
 208  0.500  0.250  0.336-  66 1.94  76 1.94  65 1.96
 209  0.500  0.250  0.428-  66 1.94  76 1.94  69 1.96
 210  0.348  0.125  0.382-  57 1.94  67 1.94  66 1.96
 211  0.652  0.125  0.382-  17 1.94  27 1.94  66 1.96
 212  0.250  0.250  0.454-  68 1.94  78 1.94  67 1.96
 213  0.250  0.250  0.546-  68 1.94  78 1.94  71 2.09
 214  0.598  0.125  0.500-  59 1.94  69 1.94  28 1.96
 215  0.402  0.125  0.500-  59 1.94  69 1.94  68 1.96
 216  0.500  0.251  0.572-  70 1.89  80 1.90  69 1.98
 217  0.500  0.249  0.665-  73 1.81  70 1.99  80 1.99
 218  0.350  0.125  0.618-  70 1.94  61 1.96  71 1.96
 219  0.650  0.125  0.618-  70 1.94  21 1.96  31 1.96
 220  0.249  0.250  0.690-  71 1.86  72 2.07  82 2.08
 221  0.250  0.250  0.783-  82 1.83  72 1.83
 222  0.594  0.125  0.742-  63 1.93  73 1.93  32 2.01
 223  0.406  0.125  0.742-  63 1.93  73 1.93  72 2.01
 224  0.250  0.500  0.219-  44 1.94  74 1.94
 225  0.250  0.500  0.311-  44 1.94  74 1.94  77 1.96
 226  0.598  0.375  0.265-  65 1.94  75 1.94  34 1.96
 227  0.402  0.375  0.265-  65 1.94  75 1.94  74 1.96
 228  0.500  0.500  0.336-  46 1.94  76 1.94  75 1.96
 229  0.500  0.500  0.428-  46 1.94  76 1.94  79 1.96
 230  0.348  0.375  0.382-  67 1.94  77 1.94  76 1.96
 231  0.652  0.375  0.382-  27 1.94  37 1.94  76 1.96
 232  0.250  0.500  0.454-  48 1.94  78 1.94  77 1.96
 233  0.250  0.500  0.546-  48 1.94  78 1.94  81 2.09
 234  0.598  0.375  0.500-  69 1.94  79 1.94  38 1.96
 235  0.402  0.375  0.500-  69 1.94  79 1.94  78 1.96
 236  0.500  0.500  0.573-  80 1.89  50 1.89  79 1.99
 237  0.500  0.500  0.665-  83 1.83  50 1.99  80 1.99
 238  0.350  0.375  0.619-  80 1.94  81 1.96  71 1.96
 239  0.650  0.375  0.619-  80 1.94  41 1.96  31 1.96
 240  0.249  0.500  0.690-  81 1.86  52 2.07  82 2.07
 241  0.252  0.500  0.783-  82 1.83  52 1.83
 242  0.594  0.374  0.742-  83 1.92  73 1.92  42 2.01
 243  0.406  0.374  0.742-  83 1.92  73 1.92  82 2.01


IMPORTANT INFORMATION: All symmetrisations will be switched off!
NOSYMM: (Re-)initialisation of all symmetry stuff for point group C_1.


----------------------------------------------------------------------------------------

                                     Primitive cell                                     

  volume of cell :    4157.1448

  direct lattice vectors                    reciprocal lattice vectors
    12.893495846  0.000000000  0.000000000     0.077558485  0.000000000  0.000000000
     0.000000000 11.761907618  0.000000000     0.000000000  0.085020222  0.000000000
     0.000000000  0.000000000 27.412377441     0.000000000  0.000000000  0.036479871

  length of vectors
    12.893495846 11.761907618 27.412377441     0.077558485  0.085020222  0.036479871

  position of ions in fractional coordinates (direct lattice)
     0.499999790  0.607330465  0.834958925
     0.499999821  0.703845565  0.843368478
     0.499999750  0.510570097  0.825254775
     0.750000000  0.625000000  0.264823466
     0.000000000  0.750000000  0.264823466
     0.000000000  0.625000000  0.382411733
     0.750000000  0.750000000  0.382411733
     0.750000000  0.625000000  0.500000000
     0.000000000  0.750000000  0.500000000
     0.999999948  0.625070351  0.615614390
     0.750044021  0.750117307  0.622067359
     0.750153077  0.625331002  0.743136888
     0.999999764  0.750180935  0.730992750
     0.750000000  0.875000000  0.264823466
     0.000000000  0.000000000  0.264823466
     0.000000000  0.875000000  0.382411733
     0.750000000  0.000000000  0.382411733
     0.750000000  0.875000000  0.500000000
     0.000000000  0.000000000  0.500000000
     0.999999948  0.875075913  0.615643176
     0.750002571  0.000087391  0.622227781
     0.749940400  0.875218848  0.743610448
     0.999999755  0.000097702  0.731023981
     0.750000000  0.125000000  0.264823466
     0.000000000  0.250000000  0.264823466
     0.000000000  0.125000000  0.382411733
     0.750000000  0.250000000  0.382411733
     0.750000000  0.125000000  0.500000000
     0.000000000  0.250000000  0.500000000
     0.999999949  0.125032309  0.615663614
     0.750048210  0.250026461  0.622210000
     0.749996422  0.125173497  0.743617304
     0.999999770  0.250086097  0.731021188
     0.750000000  0.375000000  0.264823466
     0.000000000  0.500000000  0.264823466
     0.000000000  0.375000000  0.382411733
     0.750000000  0.500000000  0.382411733
     0.750000000  0.375000000  0.500000000
     0.000000000  0.500000000  0.500000000
     0.999999962  0.375025542  0.615619235
     0.750106886  0.500041742  0.622099569
     0.750165989  0.375187454  0.743508368
     0.999999769  0.500148881  0.730972091
     0.250000000  0.625000000  0.264823466
     0.500000000  0.750000000  0.264823466
     0.500000000  0.625000000  0.382411733
     0.250000000  0.750000000  0.382411733
     0.250000000  0.625000000  0.500000000
     0.500000000  0.750000000  0.500000000
     0.499999947  0.624541757  0.616110920
     0.249955792  0.750117305  0.622067364
     0.249846370  0.625330977  0.743136948
     0.499999744  0.750935535  0.730646544
     0.250000000  0.875000000  0.264823466
     0.500000000  0.000000000  0.264823466
     0.500000000  0.875000000  0.382411733
     0.250000000  0.000000000  0.382411733
     0.250000000  0.875000000  0.500000000
     0.500000000  0.000000000  0.500000000
     0.499999944  0.874848071  0.615308807
     0.249997229  0.000087388  0.622227768
     0.250059013  0.875218811  0.743610447
     0.499999754  0.000234133  0.730642078
     0.250000000  0.125000000  0.264823466
     0.500000000  0.250000000  0.264823466
     0.500000000  0.125000000  0.382411733
     0.250000000  0.250000000  0.382411733
     0.250000000  0.125000000  0.500000000
     0.500000000  0.250000000  0.500000000
     0.499999944  0.125300352  0.615328963
     0.249951605  0.250026463  0.622209988
     0.250002983  0.125173502  0.743617268
     0.499999742  0.249711241  0.730735608
     0.250000000  0.375000000  0.264823466
     0.500000000  0.500000000  0.264823466
     0.500000000  0.375000000  0.382411733
     0.250000000  0.500000000  0.382411733
     0.250000000  0.375000000  0.500000000
     0.500000000  0.500000000  0.500000000
     0.499999943  0.375534980  0.616089507
     0.249892943  0.500041754  0.622099577
     0.249833464  0.375187496  0.743508395
     0.499999777  0.499118417  0.732169595
     0.750000000  0.750000000  0.218879228
     0.750000000  0.750000000  0.310767704
     0.097680320  0.625000000  0.264823466
     0.902319680  0.625000000  0.264823466
     0.000000000  0.750000000  0.336467495
     0.000000000  0.750000000  0.428355971
     0.847680320  0.625000000  0.382411733
     0.152319680  0.625000000  0.382411733
     0.750000000  0.750000000  0.454055762
     0.750000000  0.750000000  0.545944238
     0.097680320  0.625000000  0.500000000
     0.902319680  0.625000000  0.500000000
     0.999999770  0.750103791  0.572339543
     0.000000050  0.750042377  0.664859075
     0.849918779  0.625127263  0.618429456
     0.150081009  0.625127256  0.618429145
     0.750625928  0.750326965  0.690074777
     0.749411122  0.749862087  0.783078938
     0.093699548  0.625108421  0.742746334
     0.906299877  0.625108429  0.742746182
     0.750000000  0.000000000  0.218879228
     0.750000000  0.000000000  0.310767704
     0.097680320  0.875000000  0.264823466
     0.902319680  0.875000000  0.264823466
     0.000000000  0.000000000  0.336467495
     0.000000000  0.000000000  0.428355971
     0.847680320  0.875000000  0.382411733
     0.152319680  0.875000000  0.382411733
     0.750000000  0.000000000  0.454055762
     0.750000000  0.000000000  0.545944238
     0.097680320  0.875000000  0.500000000
     0.902319680  0.875000000  0.500000000
     0.999999767  0.000072220  0.572354798
     0.000000060  0.000031101  0.664892089
     0.849903270  0.875130363  0.618503701
     0.150096508  0.875130346  0.618503386
     0.750273965  0.000132521  0.690199343
     0.750227754  0.000115076  0.783215676
     0.093705646  0.875048458  0.742699311
     0.906293759  0.875048472  0.742699152
     0.750000000  0.250000000  0.218879228
     0.750000000  0.250000000  0.310767704
     0.097680320  0.125000000  0.264823466
     0.902319680  0.125000000  0.264823466
     0.000000000  0.250000000  0.336467495
     0.000000000  0.250000000  0.428355971
     0.847680320  0.125000000  0.382411733
     0.152319680  0.125000000  0.382411733
     0.750000000  0.250000000  0.454055762
     0.750000000  0.250000000  0.545944238
     0.097680320  0.125000000  0.500000000
     0.902319680  0.125000000  0.500000000
     0.999999763  0.249984702  0.572354255
     0.000000063  0.250129226  0.664889228
     0.849913790  0.125005684  0.618546353
     0.150085983  0.125005690  0.618546024
     0.750622614  0.249913971  0.690171099
     0.749968543  0.250308824  0.783164337
     0.093663690  0.125153388  0.742680070
     0.906335694  0.125153385  0.742679887
     0.750000000  0.500000000  0.218879228
     0.750000000  0.500000000  0.310767704
     0.097680320  0.375000000  0.264823466
     0.902319680  0.375000000  0.264823466
     0.000000000  0.500000000  0.336467495
     0.000000000  0.500000000  0.428355971
     0.847680320  0.375000000  0.382411733
     0.152319680  0.375000000  0.382411733
     0.750000000  0.500000000  0.454055762
     0.750000000  0.500000000  0.545944238
     0.097680320  0.375000000  0.500000000
     0.902319680  0.375000000  0.500000000
     0.999999751  0.500038906  0.572337369
     0.000000060  0.500087345  0.664838765
     0.849920544  0.374992897  0.618456514
     0.150079243  0.374992922  0.618456208
     0.750991863  0.500098921  0.690082170
     0.748495405  0.500499546  0.783007343
     0.093696535  0.375258865  0.742780093
     0.906302919  0.375258841  0.742780002
     0.250000000  0.750000000  0.218879228
     0.250000000  0.750000000  0.310767704
     0.597680320  0.625000000  0.264823466
     0.402319680  0.625000000  0.264823466
     0.500000000  0.750000000  0.336467495
     0.500000000  0.750000000  0.428355971
     0.347680320  0.625000000  0.382411733
     0.652319680  0.625000000  0.382411733
     0.250000000  0.750000000  0.454055762
     0.250000000  0.750000000  0.545944238
     0.597680320  0.625000000  0.500000000
     0.402319680  0.625000000  0.500000000
     0.499999771  0.749461021  0.572353668
     0.500000043  0.750664729  0.664563967
     0.349738692  0.625029708  0.618735485
     0.650261096  0.625029700  0.618735190
     0.249373165  0.750326931  0.690074775
     0.250588452  0.749862090  0.783078983
     0.593955291  0.626128565  0.741767432
     0.406044118  0.626128543  0.741767331
     0.250000000  0.000000000  0.218879228
     0.250000000  0.000000000  0.310767704
     0.597680320  0.875000000  0.264823466
     0.402319680  0.875000000  0.264823466
     0.500000000  0.000000000  0.336467495
     0.500000000  0.000000000  0.428355971
     0.347680320  0.875000000  0.382411733
     0.652319680  0.875000000  0.382411733
     0.250000000  0.000000000  0.454055762
     0.250000000  0.000000000  0.545944238
     0.597680320  0.875000000  0.500000000
     0.402319680  0.875000000  0.500000000
     0.499999770  0.000065509  0.572157511
     0.500000056  0.000174017  0.664517494
     0.349766754  0.875081510  0.618479724
     0.650233028  0.875081504  0.618479413
     0.249725033  0.000132510  0.690199320
     0.249771847  0.000115082  0.783215639
     0.593919523  0.875621679  0.742187100
     0.406079854  0.875621684  0.742186948
     0.250000000  0.250000000  0.218879228
     0.250000000  0.250000000  0.310767704
     0.597680320  0.125000000  0.264823466
     0.402319680  0.125000000  0.264823466
     0.500000000  0.250000000  0.336467495
     0.500000000  0.250000000  0.428355971
     0.347680320  0.125000000  0.382411733
     0.652319680  0.125000000  0.382411733
     0.250000000  0.250000000  0.454055762
     0.250000000  0.250000000  0.545944238
     0.597680320  0.125000000  0.500000000
     0.402319680  0.125000000  0.500000000
     0.499999775  0.250652061  0.572348674
     0.500000041  0.249426728  0.664611818
     0.349747886  0.125067956  0.618483515
     0.650251897  0.125067962  0.618483207
     0.249376461  0.249914006  0.690171070
     0.250031020  0.250308816  0.783164319
     0.593880200  0.124926419  0.742454630
     0.406119149  0.124926407  0.742454436
     0.250000000  0.500000000  0.218879228
     0.250000000  0.500000000  0.310767704
     0.597680320  0.375000000  0.264823466
     0.402319680  0.375000000  0.264823466
     0.500000000  0.500000000  0.336467495
     0.500000000  0.500000000  0.428355971
     0.347680320  0.375000000  0.382411733
     0.652319680  0.375000000  0.382411733
     0.250000000  0.500000000  0.454055762
     0.250000000  0.500000000  0.545944238
     0.597680320  0.375000000  0.500000000
     0.402319680  0.375000000  0.500000000
     0.499999775  0.500039261  0.572538173
     0.500000027  0.500041501  0.665390755
     0.349737600  0.375083782  0.618758595
     0.650262191  0.375083781  0.618758295
     0.249007287  0.500098936  0.690082169
     0.251504126  0.500499534  0.783007428
     0.594168018  0.374118333  0.741558285
     0.405831422  0.374118356  0.741558235

  ion indices of the primitive-cell ions
   primitive index   ion index
                 1           1
                 2           2
                 3           3
                 4           4
                 5           5
                 6           6
                 7           7
                 8           8
                 9           9
                10          10
                11          11
                12          12
                13          13
                14          14
                15          15
                16          16
                17          17
                18          18
                19          19
                20          20
                21          21
                22          22
                23          23
                24          24
                25          25
                26          26
                27          27
                28          28
                29          29
                30          30
                31          31
                32          32
                33          33
                34          34
                35          35
                36          36
                37          37
                38          38
                39          39
                40          40
                41          41
                42          42
                43          43
                44          44
                45          45
                46          46
                47          47
                48          48
                49          49
                50          50
                51          51
                52          52
                53          53
                54          54
                55          55
                56          56
                57          57
                58          58
                59          59
                60          60
                61          61
                62          62
                63          63
                64          64
                65          65
                66          66
                67          67
                68          68
                69          69
                70          70
                71          71
                72          72
                73          73
                74          74
                75          75
                76          76
                77          77
                78          78
                79          79
                80          80
                81          81
                82          82
                83          83
                84          84
                85          85
                86          86
                87          87
                88          88
                89          89
                90          90
                91          91
                92          92
                93          93
                94          94
                95          95
                96          96
                97          97
                98          98
                99          99
               100         100
               101         101
               102         102
               103         103
               104         104
               105         105
               106         106
               107         107
               108         108
               109         109
               110         110
               111         111
               112         112
               113         113
               114         114
               115         115
               116         116
               117         117
               118         118
               119         119
               120         120
               121         121
               122         122
               123         123
               124         124
               125         125
               126         126
               127         127
               128         128
               129         129
               130         130
               131         131
               132         132
               133         133
               134         134
               135         135
               136         136
               137         137
               138         138
               139         139
               140         140
               141         141
               142         142
               143         143
               144         144
               145         145
               146         146
               147         147
               148         148
               149         149
               150         150
               151         151
               152         152
               153         153
               154         154
               155         155
               156         156
               157         157
               158         158
               159         159
               160         160
               161         161
               162         162
               163         163
               164         164
               165         165
               166         166
               167         167
               168         168
               169         169
               170         170
               171         171
               172         172
               173         173
               174         174
               175         175
               176         176
               177         177
               178         178
               179         179
               180         180
               181         181
               182         182
               183         183
               184         184
               185         185
               186         186
               187         187
               188         188
               189         189
               190         190
               191         191
               192         192
               193         193
               194         194
               195         195
               196         196
               197         197
               198         198
               199         199
               200         200
               201         201
               202         202
               203         203
               204         204
               205         205
               206         206
               207         207
               208         208
               209         209
               210         210
               211         211
               212         212
               213         213
               214         214
               215         215
               216         216
               217         217
               218         218
               219         219
               220         220
               221         221
               222         222
               223         223
               224         224
               225         225
               226         226
               227         227
               228         228
               229         229
               230         230
               231         231
               232         232
               233         233
               234         234
               235         235
               236         236
               237         237
               238         238
               239         239
               240         240
               241         241
               242         242
               243         243

----------------------------------------------------------------------------------------



 KPOINTS: pymatgen v2020.8.13 with grid density = 

Automatic generation of k-mesh.
 Grid dimensions read from file:
 generate k-points for:    2    2    1

 Generating k-lattice:

  Cartesian coordinates                     Fractional coordinates (reciprocal lattice)
     0.038779242  0.000000000  0.000000000     0.500000000  0.000000000  0.000000000
     0.000000000  0.042510111  0.000000000     0.000000000  0.500000000  0.000000000
     0.000000000  0.000000000  0.036479871     0.000000000  0.000000000  1.000000000

  Length of vectors
     0.038779242  0.042510111  0.036479871

  Shift w.r.t. Gamma in fractional coordinates (k-lattice)
     0.000000000  0.000000000  0.000000000

 
 Subroutine IBZKPT returns following result:
 ===========================================
 
 Found      4 irreducible k-points:
 
 Following reciprocal coordinates:
            Coordinates               Weight
  0.000000  0.000000  0.000000      1.000000
  0.500000  0.000000  0.000000      1.000000
  0.000000  0.500000  0.000000      1.000000
  0.500000  0.500000  0.000000      1.000000
 
 Following cartesian coordinates:
            Coordinates               Weight
  0.000000  0.000000  0.000000      1.000000
  0.038779  0.000000  0.000000      1.000000
  0.000000  0.042510  0.000000      1.000000
  0.038779  0.042510  0.000000      1.000000
 


--------------------------------------------------------------------------------------------------------




 Dimension of arrays:
   k-points           NKPTS =      4   k-points in BZ     NKDIM =      4   number of bands    NBANDS=   1088
   number of dos      NEDOS =    301   number of ions     NIONS =    243
   non local maximal  LDIM  =      6   non local SUM 2l+1 LMDIM =     18
   total plane-waves  NPLWV = ******
   max r-space proj   IRMAX =      1   max aug-charges    IRDMAX=  21887
   dimension x,y,z NGX =   108 NGY =   96 NGZ =  224
   dimension x,y,z NGXF=   216 NGYF=  192 NGZF=  448
   support grid    NGXF=   216 NGYF=  192 NGZF=  448
   ions per type =               1   2  80 160
   NGX,Y,Z   is equivalent  to a cutoff of  13.93, 13.57, 13.58 a.u.
   NGXF,Y,Z  is equivalent  to a cutoff of  27.85, 27.14, 27.17 a.u.

 SYSTEM =  TiO2                                    
 POSCAR =   C  O Ti  O                             

--------------------------------------------------------------------------------------------------------


  energy-cutoff  :      600.00
  volume of cell :     4157.14
      direct lattice vectors                 reciprocal lattice vectors
    12.893495846  0.000000000  0.000000000     0.077558485  0.000000000  0.000000000
     0.000000000 11.761907618  0.000000000     0.000000000  0.085020222  0.000000000
     0.000000000  0.000000000 27.412377441     0.000000000  0.000000000  0.036479871

  length of vectors
    12.893495846 11.761907618 27.412377441     0.077558485  0.085020222  0.036479871



 k-points in units of 2pi/SCALE and weight: pymatgen v2020.8.13 with grid density = 
   0.00000000  0.00000000  0.00000000       0.250
   0.03877924  0.00000000  0.00000000       0.250
   0.00000000  0.04251011  0.00000000       0.250
   0.03877924  0.04251011  0.00000000       0.250

 k-points in reciprocal lattice and weights: pymatgen v2020.8.13 with grid density = 
   0.00000000  0.00000000  0.00000000       0.250
   0.50000000  0.00000000  0.00000000       0.250
   0.00000000  0.50000000  0.00000000       0.250
   0.50000000  0.50000000  0.00000000       0.250

 position of ions in fractional coordinates (direct lattice) 
   0.49999979  0.60733046  0.83495892
   0.49999982  0.70384556  0.84336848
   0.49999975  0.51057010  0.82525478
   0.75000000  0.62500000  0.26482347
   0.00000000  0.75000000  0.26482347
   0.00000000  0.62500000  0.38241173
   0.75000000  0.75000000  0.38241173
   0.75000000  0.62500000  0.50000000
   0.00000000  0.75000000  0.50000000
   0.99999995  0.62507035  0.61561439
   0.75004402  0.75011731  0.62206736
   0.75015308  0.62533100  0.74313689
   0.99999976  0.75018093  0.73099275
   0.75000000  0.87500000  0.26482347
   0.00000000  0.00000000  0.26482347
   0.00000000  0.87500000  0.38241173
   0.75000000  0.00000000  0.38241173
   0.75000000  0.87500000  0.50000000
   0.00000000  0.00000000  0.50000000
   0.99999995  0.87507591  0.61564318
   0.75000257  0.00008739  0.62222778
   0.74994040  0.87521885  0.74361045
   0.99999976  0.00009770  0.73102398
   0.75000000  0.12500000  0.26482347
   0.00000000  0.25000000  0.26482347
   0.00000000  0.12500000  0.38241173
   0.75000000  0.25000000  0.38241173
   0.75000000  0.12500000  0.50000000
   0.00000000  0.25000000  0.50000000
   0.99999995  0.12503231  0.61566361
   0.75004821  0.25002646  0.62221000
   0.74999642  0.12517350  0.74361730
   0.99999977  0.25008610  0.73102119
   0.75000000  0.37500000  0.26482347
   0.00000000  0.50000000  0.26482347
   0.00000000  0.37500000  0.38241173
   0.75000000  0.50000000  0.38241173
   0.75000000  0.37500000  0.50000000
   0.00000000  0.50000000  0.50000000
   0.99999996  0.37502554  0.61561923
   0.75010689  0.50004174  0.62209957
   0.75016599  0.37518745  0.74350837
   0.99999977  0.50014888  0.73097209
   0.25000000  0.62500000  0.26482347
   0.50000000  0.75000000  0.26482347
   0.50000000  0.62500000  0.38241173
   0.25000000  0.75000000  0.38241173
   0.25000000  0.62500000  0.50000000
   0.50000000  0.75000000  0.50000000
   0.49999995  0.62454176  0.61611092
   0.24995579  0.75011731  0.62206736
   0.24984637  0.62533098  0.74313695
   0.49999974  0.75093554  0.73064654
   0.25000000  0.87500000  0.26482347
   0.50000000  0.00000000  0.26482347
   0.50000000  0.87500000  0.38241173
   0.25000000  0.00000000  0.38241173
   0.25000000  0.87500000  0.50000000
   0.50000000  0.00000000  0.50000000
   0.49999994  0.87484807  0.61530881
   0.24999723  0.00008739  0.62222777
   0.25005901  0.87521881  0.74361045
   0.49999975  0.00023413  0.73064208
   0.25000000  0.12500000  0.26482347
   0.50000000  0.25000000  0.26482347
   0.50000000  0.12500000  0.38241173
   0.25000000  0.25000000  0.38241173
   0.25000000  0.12500000  0.50000000
   0.50000000  0.25000000  0.50000000
   0.49999994  0.12530035  0.61532896
   0.24995161  0.25002646  0.62220999
   0.25000298  0.12517350  0.74361727
   0.49999974  0.24971124  0.73073561
   0.25000000  0.37500000  0.26482347
   0.50000000  0.50000000  0.26482347
   0.50000000  0.37500000  0.38241173
   0.25000000  0.50000000  0.38241173
   0.25000000  0.37500000  0.50000000
   0.50000000  0.50000000  0.50000000
   0.49999994  0.37553498  0.61608951
   0.24989294  0.50004175  0.62209958
   0.24983346  0.37518750  0.74350839
   0.49999978  0.49911842  0.73216959
   0.75000000  0.75000000  0.21887923
   0.75000000  0.75000000  0.31076770
   0.09768032  0.62500000  0.26482347
   0.90231968  0.62500000  0.26482347
   0.00000000  0.75000000  0.33646749
   0.00000000  0.75000000  0.42835597
   0.84768032  0.62500000  0.38241173
   0.15231968  0.62500000  0.38241173
   0.75000000  0.75000000  0.45405576
   0.75000000  0.75000000  0.54594424
   0.09768032  0.62500000  0.50000000
   0.90231968  0.62500000  0.50000000
   0.99999977  0.75010379  0.57233954
   0.00000005  0.75004238  0.66485907
   0.84991878  0.62512726  0.61842946
   0.15008101  0.62512726  0.61842914
   0.75062593  0.75032696  0.69007478
   0.74941112  0.74986209  0.78307894
   0.09369955  0.62510842  0.74274633
   0.90629988  0.62510843  0.74274618
   0.75000000  0.00000000  0.21887923
   0.75000000  0.00000000  0.31076770
   0.09768032  0.87500000  0.26482347
   0.90231968  0.87500000  0.26482347
   0.00000000  0.00000000  0.33646749
   0.00000000  0.00000000  0.42835597
   0.84768032  0.87500000  0.38241173
   0.15231968  0.87500000  0.38241173
   0.75000000  0.00000000  0.45405576
   0.75000000  0.00000000  0.54594424
   0.09768032  0.87500000  0.50000000
   0.90231968  0.87500000  0.50000000
   0.99999977  0.00007222  0.57235480
   0.00000006  0.00003110  0.66489209
   0.84990327  0.87513036  0.61850370
   0.15009651  0.87513035  0.61850339
   0.75027396  0.00013252  0.69019934
   0.75022775  0.00011508  0.78321568
   0.09370565  0.87504846  0.74269931
   0.90629376  0.87504847  0.74269915
   0.75000000  0.25000000  0.21887923
   0.75000000  0.25000000  0.31076770
   0.09768032  0.12500000  0.26482347
   0.90231968  0.12500000  0.26482347
   0.00000000  0.25000000  0.33646749
   0.00000000  0.25000000  0.42835597
   0.84768032  0.12500000  0.38241173
   0.15231968  0.12500000  0.38241173
   0.75000000  0.25000000  0.45405576
   0.75000000  0.25000000  0.54594424
   0.09768032  0.12500000  0.50000000
   0.90231968  0.12500000  0.50000000
   0.99999976  0.24998470  0.57235425
   0.00000006  0.25012923  0.66488923
   0.84991379  0.12500568  0.61854635
   0.15008598  0.12500569  0.61854602
   0.75062261  0.24991397  0.69017110
   0.74996854  0.25030882  0.78316434
   0.09366369  0.12515339  0.74268007
   0.90633569  0.12515339  0.74267989
   0.75000000  0.50000000  0.21887923
   0.75000000  0.50000000  0.31076770
   0.09768032  0.37500000  0.26482347
   0.90231968  0.37500000  0.26482347
   0.00000000  0.50000000  0.33646749
   0.00000000  0.50000000  0.42835597
   0.84768032  0.37500000  0.38241173
   0.15231968  0.37500000  0.38241173
   0.75000000  0.50000000  0.45405576
   0.75000000  0.50000000  0.54594424
   0.09768032  0.37500000  0.50000000
   0.90231968  0.37500000  0.50000000
   0.99999975  0.50003891  0.57233737
   0.00000006  0.50008734  0.66483876
   0.84992054  0.37499290  0.61845651
   0.15007924  0.37499292  0.61845621
   0.75099186  0.50009892  0.69008217
   0.74849540  0.50049955  0.78300734
   0.09369654  0.37525887  0.74278009
   0.90630292  0.37525884  0.74278000
   0.25000000  0.75000000  0.21887923
   0.25000000  0.75000000  0.31076770
   0.59768032  0.62500000  0.26482347
   0.40231968  0.62500000  0.26482347
   0.50000000  0.75000000  0.33646749
   0.50000000  0.75000000  0.42835597
   0.34768032  0.62500000  0.38241173
   0.65231968  0.62500000  0.38241173
   0.25000000  0.75000000  0.45405576
   0.25000000  0.75000000  0.54594424
   0.59768032  0.62500000  0.50000000
   0.40231968  0.62500000  0.50000000
   0.49999977  0.74946102  0.57235367
   0.50000004  0.75066473  0.66456397
   0.34973869  0.62502971  0.61873549
   0.65026110  0.62502970  0.61873519
   0.24937317  0.75032693  0.69007477
   0.25058845  0.74986209  0.78307898
   0.59395529  0.62612857  0.74176743
   0.40604412  0.62612854  0.74176733
   0.25000000  0.00000000  0.21887923
   0.25000000  0.00000000  0.31076770
   0.59768032  0.87500000  0.26482347
   0.40231968  0.87500000  0.26482347
   0.50000000  0.00000000  0.33646749
   0.50000000  0.00000000  0.42835597
   0.34768032  0.87500000  0.38241173
   0.65231968  0.87500000  0.38241173
   0.25000000  0.00000000  0.45405576
   0.25000000  0.00000000  0.54594424
   0.59768032  0.87500000  0.50000000
   0.40231968  0.87500000  0.50000000
   0.49999977  0.00006551  0.57215751
   0.50000006  0.00017402  0.66451749
   0.34976675  0.87508151  0.61847972
   0.65023303  0.87508150  0.61847941
   0.24972503  0.00013251  0.69019932
   0.24977185  0.00011508  0.78321564
   0.59391952  0.87562168  0.74218710
   0.40607985  0.87562168  0.74218695
   0.25000000  0.25000000  0.21887923
   0.25000000  0.25000000  0.31076770
   0.59768032  0.12500000  0.26482347
   0.40231968  0.12500000  0.26482347
   0.50000000  0.25000000  0.33646749
   0.50000000  0.25000000  0.42835597
   0.34768032  0.12500000  0.38241173
   0.65231968  0.12500000  0.38241173
   0.25000000  0.25000000  0.45405576
   0.25000000  0.25000000  0.54594424
   0.59768032  0.12500000  0.50000000
   0.40231968  0.12500000  0.50000000
   0.49999977  0.25065206  0.57234867
   0.50000004  0.24942673  0.66461182
   0.34974789  0.12506796  0.61848352
   0.65025190  0.12506796  0.61848321
   0.24937646  0.24991401  0.69017107
   0.25003102  0.25030882  0.78316432
   0.59388020  0.12492642  0.74245463
   0.40611915  0.12492641  0.74245444
   0.25000000  0.50000000  0.21887923
   0.25000000  0.50000000  0.31076770
   0.59768032  0.37500000  0.26482347
   0.40231968  0.37500000  0.26482347
   0.50000000  0.50000000  0.33646749
   0.50000000  0.50000000  0.42835597
   0.34768032  0.37500000  0.38241173
   0.65231968  0.37500000  0.38241173
   0.25000000  0.50000000  0.45405576
   0.25000000  0.50000000  0.54594424
   0.59768032  0.37500000  0.50000000
   0.40231968  0.37500000  0.50000000
   0.49999978  0.50003926  0.57253817
   0.50000003  0.50004150  0.66539076
   0.34973760  0.37508378  0.61875860
   0.65026219  0.37508378  0.61875829
   0.24900729  0.50009894  0.69008217
   0.25150413  0.50049953  0.78300743
   0.59416802  0.37411833  0.74155829
   0.40583142  0.37411836  0.74155824

 position of ions in cartesian coordinates  (Angst):
   6.44674521  7.14336482 22.88820919
   6.44674561  8.27856651 23.11873503
   6.44674470  6.00527832 22.62219539
   9.67012188  7.35119226  7.25944080
   0.00000000  8.82143071  7.25944080
   0.00000000  7.35119226 10.48281476
   9.67012188  8.82143071 10.48281476
   9.67012188  7.35119226 13.70618872
   0.00000000  8.82143071 13.70618872
  12.89349518  7.35201972 16.87545401
   9.67068947  8.82281046 17.05234523
   9.67209558  7.35508547 20.37114886
  12.89349280  8.82355885 20.03824916
   9.67012188 10.29166917  7.25944080
   0.00000000  0.00000000  7.25944080
   0.00000000 10.29166917 10.48281476
   9.67012188  0.00000000 10.48281476
   9.67012188 10.29166917 13.70618872
   0.00000000  0.00000000 13.70618872
  12.89349517 10.29256205 16.87624312
   9.67015503  0.00102788 17.05674279
   9.66935344 10.29424323 20.38413027
  12.89349269  0.00114916 20.03910527
   9.67012188  1.47023845  7.25944080
   0.00000000  2.94047690  7.25944080
   0.00000000  1.47023845 10.48281476
   9.67012188  2.94047690 10.48281476
   9.67012188  1.47023845 13.70618872
   0.00000000  2.94047690 13.70618872
  12.89349519  1.47061847 16.87680335
   9.67074348  2.94078813 17.05625536
   9.67007575  1.47227911 20.38431822
  12.89349288  2.94148957 20.03902873
   9.67012188  4.41071536  7.25944080
   0.00000000  5.88095381  7.25944080
   0.00000000  4.41071536 10.48281476
   9.67012188  5.88095381 10.48281476
   9.67012188  4.41071536 13.70618872
   0.00000000  5.88095381 13.70618872
  12.89349536  4.41101577 16.87558683
   9.67150001  5.88144477 17.05322819
   9.67226206  4.41292017 20.38133202
  12.89349287  5.88270493 20.03768285
   3.22337396  7.35119226  7.25944080
   6.44674792  8.82143071  7.25944080
   6.44674792  7.35119226 10.48281476
   3.22337396  8.82143071 10.48281476
   3.22337396  7.35119226 13.70618872
   6.44674792  8.82143071 13.70618872
   6.44674724  7.34580244 16.88906509
   3.22280396  8.82281045 17.05234539
   3.22139314  7.35508518 20.37115050
   6.44674463  8.83243440 20.02875884
   3.22337396 10.29166917  7.25944080
   6.44674792  0.00000000  7.25944080
   6.44674792 10.29166917 10.48281476
   3.22337396  0.00000000 10.48281476
   3.22337396 10.29166917 13.70618872
   6.44674792  0.00000000 13.70618872
   6.44674721 10.28988219 16.86707725
   3.22333823  0.00102784 17.05674243
   3.22413484 10.29424281 20.38413023
   6.44674475  0.00275384 20.02863643
   3.22337396  1.47023845  7.25944080
   6.44674792  2.94047690  7.25944080
   6.44674792  1.47023845 10.48281476
   3.22337396  2.94047690 10.48281476
   3.22337396  1.47023845 13.70618872
   6.44674792  2.94047690 13.70618872
   6.44674720  1.47377117 16.86762979
   3.22274998  2.94078816 17.05625503
   3.22341242  1.47227916 20.38431723
   6.44674459  2.93708055 20.03120030
   3.22337396  4.41071536  7.25944080
   6.44674792  5.88095381  7.25944080
   6.44674792  4.41071536 10.48281476
   3.22337396  5.88095381 10.48281476
   3.22337396  4.41071536 13.70618872
   6.44674792  5.88095381 13.70618872
   6.44674719  4.41700774 16.88847810
   3.22199363  5.88144492 17.05322842
   3.22122672  4.41292067 20.38133275
   6.44674504  5.87058471 20.07050929
   9.67012188  8.82143071  6.00000000
   9.67012188  8.82143071  8.51888160
   1.25944080  7.35119226  7.25944080
  11.63405505  7.35119226  7.25944080
   0.00000000  8.82143071  9.22337396
   0.00000000  8.82143071 11.74225556
  10.92956268  7.35119226 10.48281476
   1.96393316  7.35119226 10.48281476
   9.67012188  8.82143071 12.44674792
   9.67012188  8.82143071 14.96562952
   1.25944080  7.35119226 13.70618872
  11.63405505  7.35119226 13.70618872
  12.89349288  8.82265149 15.68918759
   0.00000065  8.82192915 18.22536790
  10.95842425  7.35268912 16.95262167
   1.93506886  7.35268904 16.95261314
   9.67819228  8.82527644 18.91659024
   9.66252919  8.81980859 21.46605542
   1.20811473  7.35246750 20.36044285
  11.68537370  7.35246760 20.36043869
   9.67012188  0.00000000  6.00000000
   9.67012188  0.00000000  8.51888160
   1.25944080 10.29166917  7.25944080
  11.63405505 10.29166917  7.25944080
   0.00000000  0.00000000  9.22337396
   0.00000000  0.00000000 11.74225556
  10.92956268 10.29166917 10.48281476
   1.96393316 10.29166917 10.48281476
   9.67012188  0.00000000 12.44674792
   9.67012188  0.00000000 14.96562952
   1.25944080 10.29166917 13.70618872
  11.63405505 10.29166917 13.70618872
  12.89349284  0.00084945 15.68960576
   0.00000077  0.00036581 18.22627291
  10.95822428 10.29320249 16.95465689
   1.93526870 10.29320229 16.95464826
   9.67365425  0.00155870 18.92000491
   9.67305842  0.00135351 21.46980373
   1.20819336 10.29223912 20.35915384
  11.68529481 10.29223929 20.35914949
   9.67012188  2.94047690  6.00000000
   9.67012188  2.94047690  8.51888160
   1.25944080  1.47023845  7.25944080
  11.63405505  1.47023845  7.25944080
   0.00000000  2.94047690  9.22337396
   0.00000000  2.94047690 11.74225556
  10.92956268  1.47023845 10.48281476
   1.96393316  1.47023845 10.48281476
   9.67012188  2.94047690 12.44674792
   9.67012188  2.94047690 14.96562952
   1.25944080  1.47023845 13.70618872
  11.63405505  1.47023845 13.70618872
  12.89349279  2.94029697 15.68959086
   0.00000082  2.94199684 18.22619448
  10.95835992  1.47030530 16.95582610
   1.93513300  1.47030537 16.95581708
   9.67814955  2.93946504 18.91923067
   9.66971629  2.94410927 21.46839640
   1.20765240  1.47204259 20.35862640
  11.68583550  1.47204256 20.35862137
   9.67012188  5.88095381  6.00000000
   9.67012188  5.88095381  8.51888160
   1.25944080  4.41071536  7.25944080
  11.63405505  4.41071536  7.25944080
   0.00000000  5.88095381  9.22337396
   0.00000000  5.88095381 11.74225556
  10.92956268  4.41071536 10.48281476
   1.96393316  4.41071536 10.48281476
   9.67012188  5.88095381 12.44674792
   9.67012188  5.88095381 14.96562952
   1.25944080  4.41071536 13.70618872
  11.63405505  4.41071536 13.70618872
  12.89349264  5.88141142 15.68912799
   0.00000077  5.88198115 18.22481116
  10.95844700  4.41063182 16.95336338
   1.93504610  4.41063211 16.95335501
   9.68291046  5.88211730 18.91679291
   9.65072239  5.88682942 21.46409281
   1.20807589  4.41376010 20.36136828
  11.68541292  4.41375983 20.36136577
   3.22337396  8.82143071  6.00000000
   3.22337396  8.82143071  8.51888160
   7.70618872  7.35119226  7.25944080
   5.18730713  7.35119226  7.25944080
   6.44674792  8.82143071  9.22337396
   6.44674792  8.82143071 11.74225556
   4.48281476  7.35119226 10.48281476
   8.41068109  7.35119226 10.48281476
   3.22337396  8.82143071 12.44674792
   3.22337396  8.82143071 14.96562952
   7.70618872  7.35119226 13.70618872
   5.18730713  7.35119226 13.70618872
   6.44674497  8.81509129 15.68957479
   6.44674848  8.82924920 18.21727829
   4.50935437  7.35154168 16.96101066
   8.38413874  7.35154159 16.96100257
   3.21529187  8.82527604 18.91659018
   3.23096117  8.81980863 21.46605665
   7.65816008  7.36446634 20.33360882
   5.23532815  7.36446608 20.33360605
   3.22337396  0.00000000  6.00000000
[...]
      9.67008      1.47228     20.38432         0.001075     -0.001232      0.229332
     12.89349      2.94149     20.03903        -0.000073     -0.003460      0.040659
      9.67012      4.41072      7.25944        -0.000156     -0.001169     -3.645943
      0.00000      5.88095      7.25944         0.000033     -0.000269      2.510562
      0.00000      4.41072     10.48281         0.000033     -0.000379      0.541421
      9.67012      5.88095     10.48281        -0.000778     -0.000551     -0.735607
      9.67012      4.41072     13.70619        -0.007220     -0.016029      0.654483
      0.00000      5.88095     13.70619         0.000023     -0.002813     -0.644642
     12.89350      4.41102     16.87559         0.000026      0.001438     -0.025104
      9.67150      5.88144     17.05323        -0.004047      0.001879     -0.051648
      9.67226      4.41292     20.38133         0.005347      0.001441      0.229701
     12.89349      5.88270     20.03768         0.000106      0.004368      0.039264
      3.22337      7.35119      7.25944        -0.000027      0.000447     -3.645441
      6.44675      8.82143      7.25944        -0.000115      0.000837      2.512227
      6.44675      7.35119     10.48281        -0.000038      0.003825      0.543752
      3.22337      8.82143     10.48281         0.001020      0.000855     -0.735956
      3.22337      7.35119     13.70619         0.006917     -0.001530      0.642755
      6.44675      8.82143     13.70619        -0.000002     -0.007744     -0.606929
      6.44675      7.34580     16.88907         0.000003     -0.003478     -0.021513
      3.22280      8.82281     17.05235         0.004230     -0.001796     -0.049950
      3.22139      7.35509     20.37115        -0.004528     -0.000807      0.228862
      6.44674      8.83243     20.02876         0.000017     -0.011419      0.033390
      3.22337     10.29167      7.25944         0.000074      0.001093     -3.646286
      6.44675      0.00000      7.25944        -0.000093      0.000415      2.511818
      6.44675     10.29167     10.48281        -0.000057      0.002785      0.546614
      3.22337      0.00000     10.48281         0.001388      0.000455     -0.733667
      3.22337     10.29167     13.70619         0.003931      0.020152      0.654823
      6.44675      0.00000     13.70619        -0.000008      0.003561     -0.669653
      6.44675     10.28988     16.86708         0.000018     -0.002033     -0.025976
      3.22334      0.00103     17.05674         0.004181     -0.002164     -0.054533
      3.22413     10.29424     20.38413        -0.003703     -0.000553      0.228168
      6.44674      0.00275     20.02864        -0.000046     -0.001510      0.030779
      3.22337      1.47024      7.25944         0.000175     -0.000436     -3.646115
      6.44675      2.94048      7.25944         0.000016     -0.000846      2.511851
      6.44675      1.47024     10.48281        -0.000023     -0.002098      0.546939
      3.22337      2.94048     10.48281         0.001114     -0.000936     -0.733502
      3.22337      1.47024     13.70619         0.004091     -0.002832      0.666693
      6.44675      2.94048     13.70619        -0.000020      0.006788     -0.609179
      6.44675      1.47377     16.86763         0.000023     -0.001817     -0.025569
      3.22275      2.94079     17.05626         0.004049      0.001634     -0.054073
      3.22341      1.47228     20.38432        -0.001057     -0.001080      0.229319
      6.44674      2.93708     20.03120         0.000108      0.000746      0.024470
      3.22337      4.41072      7.25944        -0.000046     -0.001442     -3.645729
      6.44675      5.88095      7.25944        -0.000077     -0.000420      2.512443
      6.44675      4.41072     10.48281        -0.000023     -0.004583      0.544017
      3.22337      5.88095     10.48281         0.000777     -0.000536     -0.735656
      3.22337      4.41072     13.70619         0.007239     -0.016054      0.654482
      6.44675      5.88095     13.70619         0.000023     -0.002953     -0.598849
      6.44675      4.41701     16.88848        -0.000022      0.005889     -0.022095
      3.22199      5.88144     17.05323         0.004012      0.001845     -0.051651
      3.22123      4.41292     20.38133        -0.005323      0.001498      0.229728
      6.44675      5.87058     20.07051        -0.000019      0.005727      0.066912
      9.67012      8.82143      6.00000        -0.000174     -0.000588      1.506049
      9.67012      8.82143      8.51888         0.000137     -0.000448      1.954924
      1.25944      7.35119      7.25944        -1.627083     -0.000051     -0.761445
     11.63406      7.35119      7.25944         1.627078     -0.000101     -0.761484
      0.00000      8.82143      9.22337         0.000033     -0.000153     -1.619466
      0.00000      8.82143     11.74226        -0.000001     -0.000124      0.082184
     10.92956      7.35119     10.48281         0.651060     -0.000070      0.052422
      1.96393      7.35119     10.48281        -0.650985     -0.000043      0.052397
      9.67012      8.82143     12.44675         0.000859     -0.003619     -0.307658
      9.67012      8.82143     14.96563         0.000294     -0.002843      0.425799
      1.25944      7.35119     13.70619        -0.232660      0.000783      0.086444
     11.63406      7.35119     13.70619         0.232648      0.000784      0.086441
     12.89349      8.82265     15.68919         0.000011      0.000611     -0.137139
      0.00000      8.82193     18.22537         0.000000     -0.000547      0.198867
     10.95842      7.35269     16.95262         0.087876     -0.000880     -0.025530
      1.93507      7.35269     16.95261        -0.087866     -0.000904     -0.025510
      9.67819      8.82528     18.91659         0.000446      0.003777     -0.043504
      9.66253      8.81981     21.46606        -0.001889      0.001771      0.219624
      1.20811      7.35247     20.36044         0.185045     -0.001197      0.074959
     11.68537      7.35247     20.36044        -0.185012     -0.001203      0.074958
      9.67012      0.00000      6.00000        -0.000079     -0.000232      1.506829
      9.67012      0.00000      8.51888         0.000148     -0.000170      1.954424
      1.25944     10.29167      7.25944        -1.627189     -0.000277     -0.761288
     11.63406     10.29167      7.25944         1.627265     -0.000230     -0.761330
      0.00000      0.00000      9.22337         0.000026     -0.000147     -1.619317
      0.00000      0.00000     11.74226         0.000013     -0.000202      0.082430
     10.92956     10.29167     10.48281         0.651134     -0.000585      0.052401
      1.96393     10.29167     10.48281        -0.651111     -0.000602      0.052358
      9.67012      0.00000     12.44675         0.000517     -0.003287     -0.312140
      9.67012      0.00000     14.96563         0.003263     -0.000453      0.415707
      1.25944     10.29167     13.70619        -0.235080     -0.000813      0.085305
     11.63406     10.29167     13.70619         0.235089     -0.000827      0.085288
     12.89349      0.00085     15.68961         0.000008      0.001366     -0.136896
      0.00000      0.00037     18.22627        -0.000021      0.001034      0.196374
     10.95822     10.29320     16.95466         0.088269      0.000251     -0.025467
      1.93527     10.29320     16.95465        -0.088285      0.000256     -0.025450
      9.67365      0.00156     18.92000        -0.001196      0.000314     -0.042093
      9.67306      0.00135     21.46980        -0.004398      0.000414      0.209809
      1.20819     10.29224     20.35915         0.189365      0.001056      0.072358
     11.68529     10.29224     20.35915        -0.189324      0.001062      0.072330
      9.67012      2.94048      6.00000        -0.000111      0.000495      1.506476
      9.67012      2.94048      8.51888         0.000120      0.000398      1.954338
      1.25944      1.47024      7.25944        -1.627279      0.000115     -0.761277
     11.63406      1.47024      7.25944         1.627280      0.000073     -0.761326
      0.00000      2.94048      9.22337         0.000017      0.000165     -1.619374
      0.00000      2.94048     11.74226         0.000006      0.000384      0.082543
     10.92956      1.47024     10.48281         0.651235      0.000068      0.052278
      1.96393      1.47024     10.48281        -0.651227      0.000067      0.052244
      9.67012      2.94048     12.44675         0.000854      0.003850     -0.312293
      9.67012      2.94048     14.96563         0.001127      0.006315      0.422718
      1.25944      1.47024     13.70619        -0.237947      0.000734      0.084511
     11.63406      1.47024     13.70619         0.237956      0.000746      0.084509
     12.89349      2.94030     15.68959         0.000006     -0.000052     -0.137574
      0.00000      2.94200     18.22619         0.000021      0.000869      0.200415
     10.95836      1.47031     16.95583         0.088077      0.001011     -0.025988
      1.93513      1.47031     16.95582        -0.088090      0.001009     -0.025979
      9.67815      2.93947     18.91923        -0.000854      0.000539     -0.042458
      9.66972      2.94411     21.46840        -0.004544      0.000002      0.212325
      1.20765      1.47204     20.35863         0.189914      0.001495      0.072366
     11.68584      1.47204     20.35862        -0.189925      0.001455      0.072347
      9.67012      5.88095      6.00000        -0.000236      0.000239      1.505675
      9.67012      5.88095      8.51888         0.000089      0.000189      1.954793
      1.25944      4.41072      7.25944        -1.627111      0.000197     -0.761381
     11.63406      4.41072      7.25944         1.627131      0.000184     -0.761436
      0.00000      5.88095      9.22337        -0.000014      0.000078     -1.619430
      0.00000      5.88095     11.74226         0.000006      0.000376      0.082248
     10.92956      4.41072     10.48281         0.651140      0.000537      0.052329
      1.96393      4.41072     10.48281        -0.651107      0.000537      0.052336
      9.67012      5.88095     12.44675         0.001480      0.003553     -0.308094
      9.67012      5.88095     14.96563        -0.001625      0.003484      0.430269
      1.25944      4.41072     13.70619        -0.235763      0.001713      0.086029
     11.63406      4.41072     13.70619         0.235749      0.001703      0.085997
     12.89349      5.88141     15.68913         0.000004     -0.000750     -0.137668
      0.00000      5.88198     18.22481         0.000027     -0.000951      0.204060
     10.95845      4.41063     16.95336         0.087667      0.000067     -0.025859
      1.93505      4.41063     16.95336        -0.087642      0.000097     -0.025840
      9.68291      5.88212     18.91679        -0.002299     -0.002753     -0.044047
      9.65072      5.88683     21.46409        -0.000533     -0.003708      0.224657
      1.20808      4.41376     20.36137         0.187435     -0.001201      0.074122
     11.68541      4.41376     20.36137        -0.187436     -0.001239      0.074100
      3.22337      8.82143      6.00000         0.000201     -0.000564      1.506056
      3.22337      8.82143      8.51888        -0.000126     -0.000453      1.954932
      7.70619      7.35119      7.25944        -1.626997     -0.000283     -0.761800
      5.18731      7.35119      7.25944         1.626942     -0.000220     -0.761739
      6.44675      8.82143      9.22337        -0.000038     -0.001073     -1.621706
      6.44675      8.82143     11.74226        -0.000000     -0.002425      0.074526
      4.48281      7.35119     10.48281         0.649678     -0.000251      0.052210
      8.41068      7.35119     10.48281        -0.649712     -0.000261      0.052253
      3.22337      8.82143     12.44675        -0.000846     -0.003606     -0.307703
      3.22337      8.82143     14.96563        -0.000277     -0.002828      0.425778
      7.70619      7.35119     13.70619        -0.227667     -0.010050      0.082212
      5.18731      7.35119     13.70619         0.227660     -0.010034      0.082206
      6.44674      8.81509     15.68957        -0.000011      0.001327     -0.147346
      6.44675      8.82925     18.21728         0.000007     -0.001912      0.208848
      4.50935      7.35154     16.96101         0.084640      0.000557     -0.028472
      8.38414      7.35154     16.96100        -0.084644      0.000577     -0.028432
      3.21529      8.82528     18.91659        -0.000451      0.003765     -0.043490
      3.23096      8.81981     21.46606         0.001869      0.001782      0.219628
      7.65816      7.36447     20.33361         0.188850      0.006467      0.064685
      5.23533      7.36447     20.33361        -0.188878      0.006470      0.064690
      3.22337      0.00000      6.00000         0.000071     -0.000264      1.506932
      3.22337      0.00000      8.51888        -0.000169     -0.000230      1.954409
      7.70619     10.29167      7.25944        -1.627028     -0.000356     -0.761621
      5.18731     10.29167      7.25944         1.626949     -0.000409     -0.761566
      6.44675      0.00000      9.22337        -0.000045     -0.000211     -1.622502
      6.44675      0.00000     11.74226        -0.000003     -0.000275      0.066488
      4.48281     10.29167     10.48281         0.648937     -0.000687      0.052014
      8.41068     10.29167     10.48281        -0.648976     -0.000676      0.052057
      3.22337      0.00000     12.44675        -0.000527     -0.003290     -0.312131
      3.22337      0.00000     14.96563        -0.003264     -0.000454      0.415694
      7.70619     10.29167     13.70619        -0.228227     -0.006889      0.085324
      5.18731     10.29167     13.70619         0.228195     -0.006893      0.085332
      6.44674      0.00077     15.68420         0.000002      0.002198     -0.135449
      6.44675      0.00205     18.21600         0.000002     -0.000331      0.217514
      4.50972     10.29263     16.95400         0.085963      0.001300     -0.024474
      8.38378     10.29263     16.95399        -0.085982      0.001287     -0.024448
      3.21983      0.00156     18.92000         0.001221      0.000332     -0.042130
      3.22043      0.00135     21.46980         0.004423      0.000435      0.209807
      7.65770     10.29898     20.34511         0.187008      0.002887      0.074038
      5.23579     10.29898     20.34511        -0.187020      0.002910      0.074017
      3.22337      2.94048      6.00000         0.000114      0.000588      1.506525
      3.22337      2.94048      8.51888        -0.000116      0.000392      1.954378
      7.70619      1.47024      7.25944        -1.627091      0.000170     -0.761557
      5.18731      1.47024      7.25944         1.627061      0.000162     -0.761513
      6.44675      2.94048      9.22337        -0.000015      0.001072     -1.621783
      6.44675      2.94048     11.74226         0.000001      0.002684      0.073749
      4.48281      1.47024     10.48281         0.648965      0.000135      0.051899
      8.41068      1.47024     10.48281        -0.648978      0.000148      0.051943
      3.22337      2.94048     12.44675        -0.000857      0.003851     -0.312260
      3.22337      2.94048     14.96563        -0.001110      0.006321      0.422716
      7.70619      1.47024     13.70619        -0.230898      0.006268      0.084358
      5.18731      1.47024     13.70619         0.230891      0.006278      0.084383
      6.44675      2.94815     15.68944        -0.000003     -0.001108     -0.144980
      6.44675      2.93373     18.21859         0.000009      0.000721      0.220568
      4.50947      1.47104     16.95410         0.086598      0.000030     -0.024129
      8.38402      1.47104     16.95410        -0.086611      0.000063     -0.024123
      3.21533      2.93947     18.91923         0.000843      0.000558     -0.042448
      3.22377      2.94411     21.46840         0.004537     -0.000006      0.212319
      7.65719      1.46937     20.35245         0.185482      0.000964      0.072376
      5.23630      1.46937     20.35244        -0.185450      0.000965      0.072403
      3.22337      5.88095      6.00000         0.000289      0.000269      1.505689
      3.22337      5.88095      8.51888        -0.000091      0.000226      1.954878
      7.70619      4.41072      7.25944        -1.626988      0.000358     -0.761700
      5.18731      4.41072      7.25944         1.627040      0.000350     -0.761630
      6.44675      5.88095      9.22337        -0.000038      0.000182     -1.620736
      6.44675      5.88095     11.74226         0.000007      0.000471      0.089342
      4.48281      4.41072     10.48281         0.649729      0.000750      0.052113
      8.41068      4.41072     10.48281        -0.649751      0.000747      0.052116
      3.22337      5.88095     12.44675        -0.001482      0.003529     -0.308134
      3.22337      5.88095     14.96563         0.001642      0.003466      0.430320
      7.70619      4.41072     13.70619        -0.230121      0.013282      0.081203
      5.18731      4.41072     13.70619         0.230103      0.013281      0.081210
      6.44675      5.88142     15.69463         0.000014     -0.002270     -0.155199
      6.44675      5.88144     18.23994        -0.000008      0.002569      0.174131
      4.50934      4.41170     16.96164         0.085286     -0.001794     -0.027170
      8.38415      4.41170     16.96164        -0.085326     -0.001810     -0.027137
      3.21057      5.88212     18.91679         0.002295     -0.002779     -0.044032
      3.24277      5.88683     21.46410         0.000528     -0.003737      0.224643
      7.66090      4.40035     20.32788         0.189988     -0.010021      0.064077
      5.23259      4.40035     20.32787        -0.190024     -0.010018      0.064048
 -----------------------------------------------------------------------------------
    total drift:                               -0.000038      0.005031      0.103967


--------------------------------------------------------------------------------------------------------



  FREE ENERGIE OF THE ION-ELECTRON SYSTEM (eV)
  ---------------------------------------------------
  free  energy   TOTEN  =     -1758.17885909 eV

  energy  without entropy=    -1758.17885909  energy(sigma->0) =    -1758.17885909



--------------------------------------------------------------------------------------------------------


    POTLOK:  cpu time      1.2027: real time      1.2036


--------------------------------------------------------------------------------------------------------


     LOOP+:  cpu time    726.7367: real time    727.2058
    4ORBIT:  cpu time      0.0000: real time      0.0000

 total amount of memory used by VASP MPI-rank0   161594. kBytes
=======================================================================

   base      :      30000. kBytes
   nonl-proj :      53895. kBytes
   fftplans  :       7134. kBytes
   grid      :      12246. kBytes
   one-center:        248. kBytes
   wavefun   :      58071. kBytes

  
  
 General timing and accounting informations for this job:
 ========================================================
  
                  Total CPU time used (sec):      805.373
                            User time (sec):      793.471
                          System time (sec):       11.903
                         Elapsed time (sec):      819.558
  
                   Maximum memory used (kb):      646220.
                   Average memory used (kb):          N/A
  
                          Minor page faults:      1072056
                          Major page faults:          671
                 Voluntary context switches:        10963
