 vasp.6.3.0 20Jan22 (build Dec 25 2023 18:06:01) complex                         
 executed on        HPECrayEX_GCC date 2024.02.08  00:15:33
 running 1024 mpi-ranks, with    1 threads/rank
 distrk:  each k-point on 1024 cores,    1 groups
 distr:  one band on NCORE=   4 cores,  256 groups


--------------------------------------------------------------------------------------------------------


 INCAR:
   SYSTEM = TiO2
   ISMEAR = 0
   SIGMA = 0.05
   EDIFF = 1E-4
   ALGO = ALL
   ICHARG = 1
   IBRION = -1
   NSW = 0
   ISYM = 0
   ISIF = 2
   EDIFFG = -0.01
   DIPOL = 0.5 0.5 0.5
   IDIPOL = 3
   LDIPOL = .TRUE.
   LHFCALC = .TRUE.
   HFSCREEN = 0.2
   GGA = PE
   IVDW = 13
   VDW_S8 = 1.19528249
   VDW_A1 = 0.38663183
   VDW_A2 = 5.19133469
   ENCUT = 520
   PREC = Normal
   PRECFOCK = Fast
   LASPH = .TRUE.
   LREAL = .FALSE.
   ISPIN = 1
   NELM = 200
   NELMIN = 8
   NCORE = 4
   KPAR = 1
   NKREDX = 2
   NKREDY = 2
   LWAVE = .FALSE.
   LCHARG = .FALSE.

 POTCAR:    PAW_PBE Ti 08Apr2002                  
 POTCAR:    PAW_PBE O 08Apr2002                   
 POTCAR:    PAW_PBE Ti 08Apr2002                  
   SHA256 =  f8e8f1d080d9e9b45e792f1068744b07aba8441d1e7ce11486a5d4c0f5a1479e Ti/POTCAR             
   COPYR  = (c) Copyright 08Apr2002 Georg Kresse                                                    
   COPYR  = This file is part of the software VASP. Any use, copying, and all other rights are regul
   COPYR  = If you do not have a valid VASP license, you may not use, copy or distribute this file. 
   VRHFIN =Ti: d3 s1                                                                                
   LEXCH  = PE                                                                                      
   EATOM  =    94.7928 eV,    6.9671 Ry                                                             
                                                                                                    
   TITEL  = PAW_PBE Ti 08Apr2002                                                                    
   LULTRA =        F    use ultrasoft PP ?                                                          
   IUNSCR =        1    unscreen: 0-lin 1-nonlin 2-no                                               
   RPACOR =    2.200    partial core radius                                                         
   POMASS =   47.880; ZVAL   =    4.000    mass and valenz                                          
   RCORE  =    2.800    outmost cutoff radius                                                       
   RWIGS  =    2.500; RWIGS  =    1.323    wigner-seitz radius (au A)                               
   ENMAX  =  178.330; ENMIN  =  133.747 eV                                                          
   RCLOC  =    2.215    cutoff for local pot                                                        
   LCOR   =        T    correct aug charges                                                         
   LPAW   =        T    paw PP                                                                      
   EAUG   =  328.883                                                                                
   DEXC   =    0.000                                                                                
   RMAX   =    2.868    core radius for proj-oper                                                   
   RAUG   =    1.300    factor for augmentation sphere                                              
   RDEP   =    2.885    radius for radial grids                                                     
   RDEPT  =    2.320    core radius for aug-charge                                                  
                                                                                                    
   Atomic configuration                                                                             
    9 entries                                                                                       
     n  l   j            E        occ.                                                              
     1  0  0.50     -4865.3608   2.0000                                                             
     2  0  0.50      -533.1367   2.0000                                                             
     2  1  1.50      -440.5031   6.0000                                                             
     3  0  0.50       -59.3186   2.0000                                                             
     3  1  1.50       -35.7012   6.0000                                                             
     3  2  2.50        -1.9157   3.0000                                                             
     4  0  0.50        -3.7291   1.0000                                                             
     4  1  1.50        -4.0817   0.0000                                                             
     4  3  2.50        -1.3606   0.0000                                                             
   Description                                                                                      
     l       E           TYP  RCUT    TYP  RCUT                                                     
     2     -1.9156924     23  2.800                                                                 
     2     -0.4062961     23  2.800                                                                 
     0     -3.7290832     23  2.800                                                                 
     0     20.4087390     23  2.800                                                                 
     1     -5.4423304     23  2.800                                                                 
  local pseudopotential read in
  partial core-charges read in
  partial kinetic energy density read in
  atomic valenz-charges read in
  non local Contribution for L=           2  read in
    real space projection operators read in
  non local Contribution for L=           2  read in
    real space projection operators read in
  non local Contribution for L=           0  read in
    real space projection operators read in
  non local Contribution for L=           0  read in
    real space projection operators read in
  non local Contribution for L=           1  read in
    real space projection operators read in
    PAW grid and wavefunctions read in

   number of l-projection  operators is LMAX  =           5
   number of lm-projection operators is LMMAX =          15

 POTCAR:    PAW_PBE O 08Apr2002                   
   SHA256 =  818f92134a0a090dccd8ba1447fa70422a3b330e708bb4f08108d8ae51209ddf O/POTCAR              
   COPYR  = (c) Copyright 08Apr2002 Georg Kresse                                                    
   COPYR  = This file is part of the software VASP. Any use, copying, and all other rights are regul
   COPYR  = If you do not have a valid VASP license, you may not use, copy or distribute this file. 
   VRHFIN =O: s2p4                                                                                  
   LEXCH  = PE                                                                                      
   EATOM  =   432.3788 eV,   31.7789 Ry                                                             
                                                                                                    
   TITEL  = PAW_PBE O 08Apr2002                                                                     
   LULTRA =        F    use ultrasoft PP ?                                                          
   IUNSCR =        1    unscreen: 0-lin 1-nonlin 2-no                                               
   RPACOR =    1.200    partial core radius                                                         
   POMASS =   16.000; ZVAL   =    6.000    mass and valenz                                          
   RCORE  =    1.520    outmost cutoff radius                                                       
   RWIGS  =    1.550; RWIGS  =    0.820    wigner-seitz radius (au A)                               
   ENMAX  =  400.000; ENMIN  =  300.000 eV                                                          
   ICORE  =        2    local potential                                                             
   LCOR   =        T    correct aug charges                                                         
   LPAW   =        T    paw PP                                                                      
   EAUG   =  605.392                                                                                
   DEXC   =    0.000                                                                                
   RMAX   =    1.553    core radius for proj-oper                                                   
   RAUG   =    1.300    factor for augmentation sphere                                              
   RDEP   =    1.550    radius for radial grids                                                     
   RDEPT  =    1.329    core radius for aug-charge                                                  
                                                                                                    
   Atomic configuration                                                                             
    4 entries                                                                                       
     n  l   j            E        occ.                                                              
     1  0  0.50      -514.6923   2.0000                                                             
     2  0  0.50       -23.9615   2.0000                                                             
     2  1  0.50        -9.0305   4.0000                                                             
     3  2  1.50        -9.5241   0.0000                                                             
   Description                                                                                      
     l       E           TYP  RCUT    TYP  RCUT                                                     
     0    -23.9615318     23  1.200                                                                 
     0     -9.5240782     23  1.200                                                                 
     1     -9.0304911     23  1.520                                                                 
     1      8.1634956     23  1.520                                                                 
     2     -9.5240782      7  1.500                                                                 
  local pseudopotential read in
  partial core-charges read in
  partial kinetic energy density read in
  kinetic energy density of atom read in
  atomic valenz-charges read in
  non local Contribution for L=           0  read in
    real space projection operators read in
  non local Contribution for L=           0  read in
    real space projection operators read in
  non local Contribution for L=           1  read in
    real space projection operators read in
  non local Contribution for L=           1  read in
    real space projection operators read in
    PAW grid and wavefunctions read in

   number of l-projection  operators is LMAX  =           4
   number of lm-projection operators is LMMAX =           8

 -----------------------------------------------------------------------------
|                                                                             |
|               ----> ADVICE to this user running VASP <----                  |
|                                                                             |
|     You have a (more or less) 'large supercell' and for larger cells it     |
|     might be more efficient to use real-space projection operators.         |
|     Therefore, try LREAL= Auto in the INCAR file.                           |
|     Mind: For very accurate calculation, you might also keep the            |
|     reciprocal projection scheme (i.e. LREAL=.FALSE.).                      |
|                                                                             |
 -----------------------------------------------------------------------------

  PAW_PBE Ti 08Apr2002                  :
 energy of atom  1       EATOM=  -94.7928
 kinetic energy error for atom=    0.0002 (will be added to EATOM!!)
  PAW_PBE O 08Apr2002                   :
 energy of atom  2       EATOM= -432.3788
 kinetic energy error for atom=    0.0208 (will be added to EATOM!!)


 POSCAR: Ti  O
  positions in direct lattice
  No initial velocities read in
 -----------------------------------------------------------------------------
|                                                                             |
|           W    W    AA    RRRRR   N    N  II  N    N   GGGG   !!!           |
|           W    W   A  A   R    R  NN   N  II  NN   N  G    G  !!!           |
|           W    W  A    A  R    R  N N  N  II  N N  N  G       !!!           |
|           W WW W  AAAAAA  RRRRR   N  N N  II  N  N N  G  GGG   !            |
|           WW  WW  A    A  R   R   N   NN  II  N   NN  G    G                |
|           W    W  A    A  R    R  N    N  II  N    N   GGGG   !!!           |
|                                                                             |
|     Specifying the vdW parameters                                           |
|     VDW_S8 = 1.195                                                          |
|     VDW_A1 = 0.387                                                          |
|     VDW_A2 = 5.191                                                          |
|     in the INCAR file will overwrite the defaults for hse06. Please         |
|     make sure that is what you intended.                                    |
|                                                                             |
 -----------------------------------------------------------------------------

 exchange correlation table for  LEXCH =        8
   RHO(1)=    0.500       N(1)  =     2000
   RHO(2)=  100.500       N(2)  =     4000



--------------------------------------------------------------------------------------------------------


 ion  position               nearest neighbor table
   1  0.750  0.625  0.264-  82 1.94 142 1.94 141 1.94  81 1.94 163 1.97  84 1.97  11 2.94  31 2.94

   2  0.000  0.750  0.264-  84 1.94 104 1.94 103 1.94  83 1.94  85 1.97  32 2.94  12 2.94
   3  0.000  0.625  0.382-  86 1.94 146 1.94 145 1.94  85 1.94  87 1.97  88 1.97  13 2.94  33 2.94

   4  0.750  0.750  0.382- 168 1.94 188 1.94  87 1.94 107 1.94  89 1.97  82 1.97  14 2.94  34 2.94

   5  0.750  0.625  0.500-  89 1.94  90 1.94 149 1.94 150 1.94  92 1.97 171 1.97  15 2.94  35 2.94

   6  0.000  0.750  0.500-  91 1.94  92 1.94 111 1.94 112 1.94  86 1.97  93 1.98  16 2.94  36 2.94

   7  0.000  0.625  0.615-  93 1.89 153 1.89  96 1.94  95 1.94  94 1.99 154 1.99  17 2.94  37 2.94

   8  0.750  0.750  0.622-  97 1.87 196 1.96 176 1.96  95 1.96 115 1.96  90 2.08  18 2.94  38 2.94

   9  0.750  0.625  0.743-  98 1.83 158 1.83 100 2.02 179 2.02  97 2.07 157 2.07  19 2.94  39 2.94

  10  1.000  0.750  0.731-  94 1.82 119 1.93 120 1.93  99 1.93 100 1.93  20 2.94  40 2.94
  11  0.750  0.875  0.264-  82 1.94 102 1.94 101 1.94  81 1.94 183 1.97 104 1.97   1 2.94  21 2.94

  12  0.000  0.000  0.264- 104 1.94 124 1.94 123 1.94 103 1.94 105 1.97  22 2.94   2 2.94
  13  0.000  0.875  0.382-  86 1.94 106 1.94 105 1.94  85 1.94 107 1.97 108 1.97   3 2.94  23 2.94

  14  0.750  0.000  0.382- 188 1.94 208 1.94 107 1.94 127 1.94 109 1.97 102 1.97   4 2.94  24 2.94

  15  0.750  0.875  0.500-  89 1.94  90 1.94 109 1.94 110 1.94 112 1.97 191 1.97   5 2.94  25 2.94

  16  0.000  0.000  0.500- 111 1.94 112 1.94 131 1.94 132 1.94 106 1.97 113 1.98   6 2.94  26 2.94

  17  0.000  0.875  0.616-  93 1.89 113 1.89 116 1.94 115 1.94 114 1.99  94 1.99  27 2.94   7 2.94

  18  0.750  0.000  0.622- 117 1.86 216 1.96 196 1.96 135 1.96 115 1.96 110 2.08  28 2.94   8 2.94

  19  0.750  0.875  0.743- 118 1.83  98 1.83 199 2.02 120 2.02 117 2.07  97 2.07   9 2.94  29 2.94

  20  1.000  0.000  0.731- 114 1.82 139 1.93 140 1.93 120 1.93 119 1.93  10 2.94  30 2.94
  21  0.750  0.125  0.264- 102 1.94 122 1.94 121 1.94 101 1.94 203 1.97 124 1.97  11 2.94  31 2.94

  22  0.000  0.250  0.264- 124 1.94 144 1.94 143 1.94 123 1.94 125 1.97  32 2.94  12 2.94
  23  0.000  0.125  0.382- 106 1.94 126 1.94 125 1.94 105 1.94 127 1.97 128 1.97  13 2.94  33 2.94

  24  0.750  0.250  0.382- 208 1.94 228 1.94 127 1.94 147 1.94 129 1.97 122 1.97  14 2.94  34 2.94

  25  0.750  0.125  0.500- 109 1.94 110 1.94 129 1.94 130 1.94 132 1.97 211 1.97  15 2.94  35 2.94

  26  0.000  0.250  0.500- 131 1.94 132 1.94 151 1.94 152 1.94 126 1.97 133 1.98  16 2.94  36 2.94

  27  0.000  0.125  0.616- 133 1.89 113 1.89 136 1.94 135 1.94 114 1.99 134 2.00  17 2.94  37 2.94

  28  0.750  0.250  0.622- 137 1.86 236 1.96 216 1.96 155 1.96 135 1.96 130 2.08  18 2.94  38 2.94

  29  0.750  0.125  0.743- 118 1.83 138 1.83 219 2.02 140 2.02 137 2.07 117 2.07  19 2.94  39 2.94

  30  1.000  0.250  0.731- 134 1.82 140 1.93 139 1.93 159 1.93 160 1.93  20 2.94  40 2.94
  31  0.750  0.375  0.264- 122 1.94 142 1.94 141 1.94 121 1.94 223 1.97 144 1.97   1 2.94  21 2.94

  32  0.000  0.500  0.264-  84 1.94 144 1.94 143 1.94  83 1.94 145 1.97  22 2.94   2 2.94
  33  0.000  0.375  0.382- 126 1.94 146 1.94 145 1.94 125 1.94 147 1.97 148 1.97   3 2.94  23 2.94

  34  0.750  0.500  0.382- 168 1.94 228 1.94  87 1.94 147 1.94 142 1.97 149 1.97   4 2.94  24 2.94

  35  0.750  0.375  0.500- 129 1.94 130 1.94 149 1.94 150 1.94 152 1.97 231 1.97   5 2.94  25 2.94

  36  0.000  0.500  0.500-  91 1.94  92 1.94 151 1.94 152 1.94 146 1.97 153 1.98   6 2.94  26 2.94

  37  1.000  0.375  0.615- 153 1.89 133 1.89 156 1.94 155 1.94 134 1.99 154 1.99  27 2.94   7 2.94

  38  0.750  0.500  0.622- 157 1.86 176 1.96 236 1.96 155 1.96  95 1.96 150 2.08  28 2.94   8 2.94

  39  0.750  0.375  0.743- 138 1.83 158 1.83 239 2.02 160 2.02 157 2.07 137 2.07  29 2.94   9 2.94

  40  1.000  0.500  0.731- 154 1.82  99 1.93 100 1.93 159 1.93 160 1.93  10 2.94  30 2.94
  41  0.250  0.625  0.264- 162 1.94 222 1.94 221 1.94 161 1.94  83 1.97 164 1.97  51 2.94  71 2.94

  42  0.500  0.750  0.264- 164 1.94 184 1.94 183 1.94 163 1.94 165 1.97  72 2.94  52 2.94
  43  0.500  0.625  0.382- 166 1.94 226 1.94 225 1.94 165 1.94 167 1.97 168 1.97  53 2.94  73 2.94

  44  0.250  0.750  0.382-  88 1.94 108 1.94 167 1.94 187 1.94 169 1.97 162 1.97  54 2.94  74 2.94

  45  0.250  0.625  0.500- 169 1.94 170 1.94 229 1.94 230 1.94 172 1.97  91 1.97  55 2.94  75 2.94

  46  0.500  0.750  0.500- 171 1.94 191 1.94 172 1.94 192 1.94 166 1.97 173 1.98  56 2.94  76 2.94

  47  0.500  0.625  0.616- 233 1.89 173 1.90 176 1.95 175 1.95 174 1.99 234 1.99  77 2.93  57 2.94

  48  0.250  0.750  0.622- 177 1.87 195 1.96 175 1.96  96 1.96 116 1.96 170 2.08  58 2.94  78 2.94

  49  0.250  0.625  0.743- 178 1.83 238 1.83  99 2.02 180 2.02 177 2.07 237 2.07  59 2.94  79 2.94

  50  0.500  0.751  0.730- 174 1.81 179 1.93 180 1.93 199 1.93 200 1.93  60 2.93  80 2.96
  51  0.250  0.875  0.264- 162 1.94 182 1.94 181 1.94 161 1.94 103 1.97 184 1.97  41 2.94  61 2.94

  52  0.500  0.000  0.264- 184 1.94 204 1.94 203 1.94 183 1.94 185 1.97  62 2.94  42 2.94
  53  0.500  0.875  0.382- 166 1.94 186 1.94 185 1.94 165 1.94 187 1.97 188 1.97  43 2.94  63 2.94

  54  0.250  0.000  0.382- 108 1.94 128 1.94 187 1.94 207 1.94 189 1.97 182 1.97  44 2.94  64 2.94

  55  0.250  0.875  0.500- 169 1.94 170 1.94 189 1.94 190 1.94 192 1.97 111 1.97  45 2.94  65 2.94

  56  0.500  0.000  0.500- 191 1.94 211 1.94 192 1.94 212 1.94 186 1.97 193 1.98  46 2.94  66 2.94

  57  0.500  0.875  0.615- 173 1.89 193 1.89 196 1.95 195 1.95 174 1.99 194 2.00  67 2.94  47 2.94

  58  0.250  0.000  0.622- 197 1.86 215 1.96 195 1.96 136 1.96 116 1.96 190 2.08  68 2.94  48 2.94

  59  0.250  0.875  0.743- 198 1.83 178 1.83 200 2.02 119 2.02 197 2.07 177 2.07  49 2.94  69 2.94

  60  0.500  0.000  0.730- 194 1.81 199 1.93 200 1.93 219 1.93 220 1.93  50 2.93  70 2.94
  61  0.250  0.125  0.264- 182 1.94 202 1.94 201 1.94 181 1.94 123 1.97 204 1.97  51 2.94  71 2.94

  62  0.500  0.250  0.264- 204 1.94 224 1.94 223 1.94 203 1.94 205 1.97  72 2.94  52 2.94
  63  0.500  0.125  0.382- 186 1.94 206 1.94 205 1.94 185 1.94 207 1.97 208 1.97  53 2.94  73 2.94

  64  0.250  0.250  0.382- 128 1.94 148 1.94 207 1.94 227 1.94 209 1.97 202 1.97  54 2.94  74 2.94

  65  0.250  0.125  0.500- 189 1.94 190 1.94 209 1.94 210 1.94 212 1.97 131 1.97  55 2.94  75 2.94

  66  0.500  0.250  0.500- 211 1.94 231 1.94 212 1.94 232 1.94 206 1.97 213 1.98  56 2.94  76 2.94

  67  0.500  0.125  0.615- 213 1.89 193 1.89 216 1.95 215 1.95 214 1.99 194 2.00  77 2.94  57 2.94

  68  0.250  0.250  0.622- 217 1.86 235 1.96 215 1.96 156 1.96 136 1.96 210 2.08  58 2.94  78 2.94

  69  0.250  0.125  0.743- 198 1.83 218 1.83 220 2.02 139 2.02 217 2.07 197 2.07  59 2.94  79 2.94

  70  0.500  0.250  0.730- 214 1.81 239 1.93 240 1.93 220 1.93 219 1.93  80 2.93  60 2.94
  71  0.250  0.375  0.264- 202 1.94 222 1.94 221 1.94 201 1.94 143 1.97 224 1.97  41 2.94  61 2.94

  72  0.500  0.500  0.264- 164 1.94 224 1.94 223 1.94 163 1.94 225 1.97  62 2.94  42 2.94
  73  0.500  0.375  0.382- 206 1.94 226 1.94 225 1.94 205 1.94 227 1.97 228 1.97  43 2.94  63 2.94

  74  0.250  0.500  0.382-  88 1.94 148 1.94 167 1.94 227 1.94 222 1.97 229 1.97  44 2.94  64 2.94

  75  0.250  0.375  0.500- 209 1.94 210 1.94 229 1.94 230 1.94 232 1.97 151 1.97  45 2.94  65 2.94

  76  0.500  0.500  0.500- 171 1.94 231 1.94 172 1.94 232 1.94 226 1.97 233 1.99  46 2.94  66 2.94

  77  0.500  0.375  0.616- 233 1.89 213 1.90 236 1.95 235 1.95 214 1.99 234 1.99  47 2.93  67 2.94

  78  0.250  0.500  0.622- 237 1.86 175 1.96 235 1.96 156 1.96  96 1.96 230 2.08  68 2.94  48 2.94

  79  0.250  0.375  0.743- 218 1.83 238 1.83 240 2.02 159 2.02 237 2.07 217 2.07  69 2.94  49 2.94

  80  0.500  0.499  0.732- 234 1.83 239 1.93 240 1.93 179 1.94 180 1.94  70 2.93  50 2.96
  81  0.750  0.750  0.218-   1 1.94  11 1.94
  82  0.750  0.750  0.311-   1 1.94  11 1.94   4 1.97
  83  0.098  0.625  0.264-   2 1.94  32 1.94  41 1.97
  84  0.902  0.625  0.264-   2 1.94  32 1.94   1 1.97
  85  0.000  0.750  0.336-   3 1.94  13 1.94   2 1.97
  86  0.000  0.750  0.428-   3 1.94  13 1.94   6 1.97
  87  0.848  0.625  0.382-   4 1.94  34 1.94   3 1.97
  88  0.152  0.625  0.382-  44 1.94  74 1.94   3 1.97
  89  0.750  0.750  0.454-   5 1.94  15 1.94   4 1.97
  90  0.750  0.750  0.546-   5 1.94  15 1.94   8 2.08
  91  0.098  0.625  0.500-   6 1.94  36 1.94  45 1.97
  92  0.902  0.625  0.500-   6 1.94  36 1.94   5 1.97
  93  1.000  0.750  0.572-   7 1.89  17 1.89   6 1.98
  94  0.000  0.750  0.665-  10 1.82   7 1.99  17 1.99
  95  0.850  0.625  0.618-   7 1.94   8 1.96  38 1.96
  96  0.150  0.625  0.618-   7 1.94  48 1.96  78 1.96
  97  0.751  0.750  0.690-   8 1.87   9 2.07  19 2.07
  98  0.749  0.750  0.782-   9 1.83  19 1.83
  99  0.094  0.625  0.742-  40 1.93  10 1.93  49 2.02
 100  0.906  0.625  0.742-  40 1.93  10 1.93   9 2.02
 101  0.750  0.000  0.218-  11 1.94  21 1.94
 102  0.750  0.000  0.311-  11 1.94  21 1.94  14 1.97
 103  0.098  0.875  0.264-   2 1.94  12 1.94  51 1.97
 104  0.902  0.875  0.264-   2 1.94  12 1.94  11 1.97
 105  0.000  0.000  0.336-  13 1.94  23 1.94  12 1.97
 106  0.000  0.000  0.428-  13 1.94  23 1.94  16 1.97
 107  0.848  0.875  0.382-   4 1.94  14 1.94  13 1.97
 108  0.152  0.875  0.382-  44 1.94  54 1.94  13 1.97
 109  0.750  0.000  0.454-  15 1.94  25 1.94  14 1.97
 110  0.750  0.000  0.546-  15 1.94  25 1.94  18 2.08
 111  0.098  0.875  0.500-   6 1.94  16 1.94  55 1.97
 112  0.902  0.875  0.500-   6 1.94  16 1.94  15 1.97
 113  1.000  0.000  0.572-  17 1.89  27 1.89  16 1.98
 114  0.000  0.000  0.665-  20 1.82  27 1.99  17 1.99
 115  0.850  0.875  0.618-  17 1.94  18 1.96   8 1.96
 116  0.150  0.875  0.618-  17 1.94  58 1.96  48 1.96
 117  0.750  0.000  0.690-  18 1.86  19 2.07  29 2.07
 118  0.750  0.000  0.782-  19 1.83  29 1.83
 119  0.094  0.875  0.742-  10 1.93  20 1.93  59 2.02
 120  0.906  0.875  0.742-  10 1.93  20 1.93  19 2.02
 121  0.750  0.250  0.218-  21 1.94  31 1.94
 122  0.750  0.250  0.311-  21 1.94  31 1.94  24 1.97
 123  0.098  0.125  0.264-  12 1.94  22 1.94  61 1.97
 124  0.902  0.125  0.264-  12 1.94  22 1.94  21 1.97
 125  0.000  0.250  0.336-  23 1.94  33 1.94  22 1.97
 126  0.000  0.250  0.428-  23 1.94  33 1.94  26 1.97
 127  0.848  0.125  0.382-  14 1.94  24 1.94  23 1.97
 128  0.152  0.125  0.382-  54 1.94  64 1.94  23 1.97
 129  0.750  0.250  0.454-  25 1.94  35 1.94  24 1.97
 130  0.750  0.250  0.546-  25 1.94  35 1.94  28 2.08
 131  0.098  0.125  0.500-  16 1.94  26 1.94  65 1.97
 132  0.902  0.125  0.500-  16 1.94  26 1.94  25 1.97
 133  1.000  0.250  0.572-  27 1.89  37 1.89  26 1.98
 134  0.000  0.250  0.665-  30 1.82  37 1.99  27 2.00
 135  0.850  0.125  0.618-  27 1.94  18 1.96  28 1.96
 136  0.150  0.125  0.618-  27 1.94  58 1.96  68 1.96
 137  0.751  0.250  0.690-  28 1.86  29 2.07  39 2.07
 138  0.750  0.250  0.782-  39 1.83  29 1.83
 139  0.094  0.125  0.742-  30 1.93  20 1.93  69 2.02
 140  0.906  0.125  0.742-  30 1.93  20 1.93  29 2.02
 141  0.750  0.500  0.218-   1 1.94  31 1.94
 142  0.750  0.500  0.311-   1 1.94  31 1.94  34 1.97
 143  0.098  0.375  0.264-  22 1.94  32 1.94  71 1.97
 144  0.902  0.375  0.264-  22 1.94  32 1.94  31 1.97
 145  0.000  0.500  0.336-   3 1.94  33 1.94  32 1.97
 146  0.000  0.500  0.428-   3 1.94  33 1.94  36 1.97
 147  0.848  0.375  0.382-  24 1.94  34 1.94  33 1.97
 148  0.152  0.375  0.382-  64 1.94  74 1.94  33 1.97
 149  0.750  0.500  0.454-   5 1.94  35 1.94  34 1.97
 150  0.750  0.500  0.546-   5 1.94  35 1.94  38 2.08
 151  0.098  0.375  0.500-  26 1.94  36 1.94  75 1.97
 152  0.902  0.375  0.500-  26 1.94  36 1.94  35 1.97
 153  1.000  0.500  0.572-  37 1.89   7 1.89  36 1.98
 154  0.000  0.500  0.665-  40 1.82   7 1.99  37 1.99
 155  0.850  0.375  0.618-  37 1.94  28 1.96  38 1.96
 156  0.150  0.375  0.618-  37 1.94  68 1.96  78 1.96
 157  0.751  0.500  0.690-  38 1.86   9 2.07  39 2.07
 158  0.749  0.500  0.782-  39 1.83   9 1.83
 159  0.094  0.375  0.742-  40 1.93  30 1.93  79 2.02
 160  0.906  0.375  0.742-  40 1.93  30 1.93  39 2.02
 161  0.250  0.750  0.218-  41 1.94  51 1.94
 162  0.250  0.750  0.311-  41 1.94  51 1.94  44 1.97
 163  0.598  0.625  0.264-  42 1.94  72 1.94   1 1.97
 164  0.402  0.625  0.264-  42 1.94  72 1.94  41 1.97
 165  0.500  0.750  0.336-  43 1.94  53 1.94  42 1.97
 166  0.500  0.750  0.428-  43 1.94  53 1.94  46 1.97
 167  0.348  0.625  0.382-  44 1.94  74 1.94  43 1.97
 168  0.652  0.625  0.382-   4 1.94  34 1.94  43 1.97
 169  0.250  0.750  0.454-  45 1.94  55 1.94  44 1.97
 170  0.250  0.750  0.546-  45 1.94  55 1.94  48 2.08
 171  0.598  0.625  0.500-  46 1.94  76 1.94   5 1.97
 172  0.402  0.625  0.500-  46 1.94  76 1.94  45 1.97
 173  0.500  0.750  0.572-  57 1.89  47 1.90  46 1.98
 174  0.500  0.751  0.664-  50 1.81  57 1.99  47 1.99
 175  0.350  0.625  0.618-  47 1.95  78 1.96  48 1.96
 176  0.650  0.625  0.618-  47 1.95  38 1.96   8 1.96
 177  0.249  0.750  0.690-  48 1.87  49 2.07  59 2.07
 178  0.251  0.750  0.782-  49 1.83  59 1.83
 179  0.594  0.626  0.741-  50 1.93  80 1.94   9 2.02
 180  0.406  0.626  0.741-  50 1.93  80 1.94  49 2.02
 181  0.250  0.000  0.218-  51 1.94  61 1.94
 182  0.250  0.000  0.311-  51 1.94  61 1.94  54 1.97
 183  0.598  0.875  0.264-  42 1.94  52 1.94  11 1.97
 184  0.402  0.875  0.264-  42 1.94  52 1.94  51 1.97
 185  0.500  0.000  0.336-  53 1.94  63 1.94  52 1.97
 186  0.500  0.000  0.428-  53 1.94  63 1.94  56 1.97
 187  0.348  0.875  0.382-  44 1.94  54 1.94  53 1.97
 188  0.652  0.875  0.382-   4 1.94  14 1.94  53 1.97
 189  0.250  0.000  0.454-  55 1.94  65 1.94  54 1.97
 190  0.250  0.000  0.546-  55 1.94  65 1.94  58 2.08
 191  0.598  0.875  0.500-  46 1.94  56 1.94  15 1.97
 192  0.402  0.875  0.500-  46 1.94  56 1.94  55 1.97
 193  0.500  0.000  0.572-  57 1.89  67 1.89  56 1.98
 194  0.500  0.000  0.664-  60 1.81  67 2.00  57 2.00
 195  0.350  0.875  0.618-  57 1.95  48 1.96  58 1.96
 196  0.650  0.875  0.618-  57 1.95   8 1.96  18 1.96
 197  0.250  0.000  0.690-  58 1.86  59 2.07  69 2.07
 198  0.250  0.000  0.782-  59 1.83  69 1.83
 199  0.594  0.875  0.742-  60 1.93  50 1.93  19 2.02
 200  0.406  0.875  0.742-  60 1.93  50 1.93  59 2.02
 201  0.250  0.250  0.218-  61 1.94  71 1.94
 202  0.250  0.250  0.311-  61 1.94  71 1.94  64 1.97
 203  0.598  0.125  0.264-  52 1.94  62 1.94  21 1.97
 204  0.402  0.125  0.264-  52 1.94  62 1.94  61 1.97
 205  0.500  0.250  0.336-  63 1.94  73 1.94  62 1.97
 206  0.500  0.250  0.428-  63 1.94  73 1.94  66 1.97
 207  0.348  0.125  0.382-  54 1.94  64 1.94  63 1.97
 208  0.652  0.125  0.382-  14 1.94  24 1.94  63 1.97
 209  0.250  0.250  0.454-  65 1.94  75 1.94  64 1.97
 210  0.250  0.250  0.546-  65 1.94  75 1.94  68 2.08
 211  0.598  0.125  0.500-  56 1.94  66 1.94  25 1.97
 212  0.402  0.125  0.500-  56 1.94  66 1.94  65 1.97
 213  0.500  0.251  0.572-  67 1.89  77 1.90  66 1.98
 214  0.500  0.250  0.664-  70 1.81  67 1.99  77 1.99
 215  0.350  0.125  0.618-  67 1.95  58 1.96  68 1.96
 216  0.650  0.125  0.618-  67 1.95  18 1.96  28 1.96
 217  0.249  0.250  0.690-  68 1.86  69 2.07  79 2.07
 218  0.250  0.250  0.782-  79 1.83  69 1.83
 219  0.594  0.125  0.742-  60 1.93  70 1.93  29 2.02
 220  0.406  0.125  0.742-  60 1.93  70 1.93  69 2.02
 221  0.250  0.500  0.218-  41 1.94  71 1.94
 222  0.250  0.500  0.311-  41 1.94  71 1.94  74 1.97
 223  0.598  0.375  0.264-  62 1.94  72 1.94  31 1.97
 224  0.402  0.375  0.264-  62 1.94  72 1.94  71 1.97
 225  0.500  0.500  0.336-  43 1.94  73 1.94  72 1.97
 226  0.500  0.500  0.428-  43 1.94  73 1.94  76 1.97
 227  0.348  0.375  0.382-  64 1.94  74 1.94  73 1.97
 228  0.652  0.375  0.382-  24 1.94  34 1.94  73 1.97
 229  0.250  0.500  0.454-  45 1.94  75 1.94  74 1.97
 230  0.250  0.500  0.546-  45 1.94  75 1.94  78 2.08
 231  0.598  0.375  0.500-  66 1.94  76 1.94  35 1.97
 232  0.402  0.375  0.500-  66 1.94  76 1.94  75 1.97
 233  0.500  0.500  0.572-  47 1.89  77 1.89  76 1.99
 234  0.500  0.500  0.665-  80 1.83  47 1.99  77 1.99
 235  0.350  0.375  0.619-  77 1.95  78 1.96  68 1.96
 236  0.650  0.375  0.619-  77 1.95  38 1.96  28 1.96
 237  0.249  0.500  0.690-  78 1.86  49 2.07  79 2.07
 238  0.251  0.500  0.782-  79 1.83  49 1.83
 239  0.594  0.374  0.741-  80 1.93  70 1.93  39 2.02
 240  0.406  0.374  0.741-  80 1.93  70 1.93  79 2.02


IMPORTANT INFORMATION: All symmetrisations will be switched off!
NOSYMM: (Re-)initialisation of all symmetry stuff for point group C_1.


----------------------------------------------------------------------------------------

                                     Primitive cell                                     

  volume of cell :    4180.4259

  direct lattice vectors                    reciprocal lattice vectors
    12.939701814  0.000000000  0.000000000     0.077281534  0.000000000  0.000000000
     0.000000000 11.760793336  0.000000000     0.000000000  0.085028278  0.000000000
     0.000000000  0.000000000 27.470062065     0.000000000  0.000000000  0.036403267

  length of vectors
    12.939701814 11.760793336 27.470062065     0.077281534  0.085028278  0.036403267

  position of ions in fractional coordinates (direct lattice)
     0.750000000  0.625000000  0.264476291
     0.000000000  0.750000000  0.264476291
     0.000000000  0.625000000  0.382238145
     0.750000000  0.750000000  0.382238145
     0.750000000  0.625000000  0.500000000
     0.000000000  0.750000000  0.500000000
     0.000000013  0.625094429  0.615454208
     0.750029213  0.750083921  0.621822263
     0.750211204  0.625324396  0.742606954
     0.999999745  0.750223823  0.730613982
     0.750000000  0.875000000  0.264476291
     0.000000000  0.000000000  0.264476291
     0.000000000  0.875000000  0.382238145
     0.750000000  0.000000000  0.382238145
     0.750000000  0.875000000  0.500000000
     0.000000000  0.000000000  0.500000000
     0.000000030  0.875097004  0.615504401
     0.749999335  0.000079649  0.621946919
     0.749885565  0.875195525  0.742975190
     0.999999673  0.000122420  0.730644205
     0.750000000  0.125000000  0.264476291
     0.000000000  0.250000000  0.264476291
     0.000000000  0.125000000  0.382238145
     0.750000000  0.250000000  0.382238145
     0.750000000  0.125000000  0.500000000
     0.000000000  0.250000000  0.500000000
     0.000000012  0.125050258  0.615528197
     0.750028333  0.250068689  0.621942126
     0.749943006  0.125183337  0.742952898
     0.999999724  0.250082625  0.730644738
     0.750000000  0.375000000  0.264476291
     0.000000000  0.500000000  0.264476291
     0.000000000  0.375000000  0.382238145
     0.750000000  0.500000000  0.382238145
     0.750000000  0.375000000  0.500000000
     0.000000000  0.500000000  0.500000000
     0.999999998  0.375041161  0.615468651
     0.750110401  0.500059241  0.621866864
     0.750176672  0.375216660  0.742919318
     0.999999720  0.500184174  0.730603225
     0.250000000  0.625000000  0.264476291
     0.500000000  0.750000000  0.264476291
     0.500000000  0.625000000  0.382238145
     0.250000000  0.750000000  0.382238145
     0.250000000  0.625000000  0.500000000
     0.500000000  0.750000000  0.500000000
     0.500000046  0.624529298  0.615870506
     0.249970726  0.750083885  0.621822259
     0.249788163  0.625324380  0.742607023
     0.499999718  0.750790005  0.730172143
     0.250000000  0.875000000  0.264476291
     0.500000000  0.000000000  0.264476291
     0.500000000  0.875000000  0.382238145
     0.250000000  0.000000000  0.382238145
     0.250000000  0.875000000  0.500000000
     0.500000000  0.000000000  0.500000000
     0.500000005  0.874896275  0.615171501
     0.250000535  0.000079642  0.621946874
     0.250113739  0.875195512  0.742975164
     0.499999697  0.000160442  0.730299828
     0.250000000  0.125000000  0.264476291
     0.500000000  0.250000000  0.264476291
     0.500000000  0.125000000  0.382238145
     0.250000000  0.250000000  0.382238145
     0.250000000  0.125000000  0.500000000
     0.500000000  0.250000000  0.500000000
     0.499999967  0.125260478  0.615226857
     0.249971526  0.250068742  0.621942080
     0.250056278  0.125183346  0.742952820
     0.499999691  0.249782995  0.730324683
     0.250000000  0.375000000  0.264476291
     0.500000000  0.500000000  0.264476291
     0.500000000  0.375000000  0.382238145
     0.250000000  0.500000000  0.382238145
     0.250000000  0.375000000  0.500000000
     0.500000000  0.500000000  0.500000000
     0.500000007  0.375461123  0.615901954
     0.249889519  0.500059266  0.621866862
     0.249822703  0.375216676  0.742919322
     0.499999736  0.499145353  0.731718136
     0.750000000  0.750000000  0.218419601
     0.750000000  0.750000000  0.310532981
     0.097775060  0.625000000  0.264476291
     0.902224940  0.625000000  0.264476291
     0.000000000  0.750000000  0.336181456
     0.000000000  0.750000000  0.428294835
     0.847775060  0.625000000  0.382238145
     0.152224940  0.625000000  0.382238145
     0.750000000  0.750000000  0.453943310
     0.750000000  0.750000000  0.546056690
     0.097775060  0.625000000  0.500000000
     0.902224940  0.625000000  0.500000000
     0.999999757  0.750139746  0.572209805
     0.000000064  0.750005084  0.664535714
     0.849968213  0.625123528  0.618257926
     0.150031539  0.625123516  0.618257611
     0.750592516  0.750233964  0.689717584
     0.749465147  0.749919234  0.782415182
     0.093609234  0.625132025  0.742251576
     0.906390094  0.625132052  0.742251373
     0.750000000  0.000000000  0.218419601
     0.750000000  0.000000000  0.310532981
     0.097775060  0.875000000  0.264476291
     0.902224940  0.875000000  0.264476291
     0.000000000  0.000000000  0.336181456
     0.000000000  0.000000000  0.428294835
     0.847775060  0.875000000  0.382238145
     0.152224940  0.875000000  0.382238145
     0.750000000  0.000000000  0.453943310
     0.750000000  0.000000000  0.546056690
     0.097775060  0.875000000  0.500000000
     0.902224940  0.875000000  0.500000000
     0.999999755  0.000090578  0.572227502
     0.000000071  0.000063097  0.664564651
     0.849951925  0.875106349  0.618353465
     0.150047851  0.875106322  0.618353122
     0.750158717  0.000114088  0.689806816
     0.750112075  0.000145743  0.782479365
     0.093658473  0.875098017  0.742142382
     0.906340804  0.875097996  0.742142170
     0.750000000  0.250000000  0.218419601
     0.750000000  0.250000000  0.310532981
     0.097775060  0.125000000  0.264476291
     0.902224940  0.125000000  0.264476291
     0.000000000  0.250000000  0.336181456
     0.000000000  0.250000000  0.428294835
     0.847775060  0.125000000  0.382238145
     0.152224940  0.125000000  0.382238145
     0.750000000  0.250000000  0.453943310
     0.750000000  0.250000000  0.546056690
     0.097775060  0.125000000  0.500000000
     0.902224940  0.125000000  0.500000000
     0.999999755  0.249984793  0.572226363
     0.000000058  0.250198820  0.664570320
     0.849962256  0.125033081  0.618389895
     0.150037483  0.125033101  0.618389546
     0.750566507  0.249996118  0.689783943
     0.749859874  0.250261216  0.782461765
     0.093621141  0.125176901  0.742140121
     0.906378145  0.125176956  0.742139928
     0.750000000  0.500000000  0.218419601
     0.750000000  0.500000000  0.310532981
     0.097775060  0.375000000  0.264476291
     0.902224940  0.375000000  0.264476291
     0.000000000  0.500000000  0.336181456
     0.000000000  0.500000000  0.428294835
     0.847775060  0.375000000  0.382238145
     0.152224940  0.375000000  0.382238145
     0.750000000  0.500000000  0.453943310
     0.750000000  0.500000000  0.546056690
     0.097775060  0.375000000  0.500000000
     0.902224940  0.375000000  0.500000000
     0.999999779  0.500044840  0.572209471
     0.000000024  0.500099944  0.664528457
     0.849973064  0.375009453  0.618281134
     0.150026695  0.375009490  0.618280818
     0.750983819  0.500124841  0.689735738
     0.748634386  0.500465367  0.782379542
     0.093626221  0.375246155  0.742276632
     0.906373127  0.375246134  0.742276506
     0.250000000  0.750000000  0.218419601
     0.250000000  0.750000000  0.310532981
     0.597775060  0.625000000  0.264476291
     0.402224940  0.625000000  0.264476291
     0.500000000  0.750000000  0.336181456
     0.500000000  0.750000000  0.428294835
     0.347775060  0.625000000  0.382238145
     0.652224940  0.625000000  0.382238145
     0.250000000  0.750000000  0.453943310
     0.250000000  0.750000000  0.546056690
     0.597775060  0.625000000  0.500000000
     0.402224940  0.625000000  0.500000000
     0.499999779  0.749562326  0.572181089
     0.500000044  0.750512477  0.664189546
     0.349742391  0.624999545  0.618490204
     0.650257371  0.624999548  0.618489910
     0.249406472  0.750233936  0.689717583
     0.250534376  0.749919226  0.782415211
     0.593900749  0.626112718  0.741250990
     0.406098585  0.626112714  0.741250887
     0.250000000  0.000000000  0.218419601
     0.250000000  0.000000000  0.310532981
     0.597775060  0.875000000  0.264476291
     0.402224940  0.875000000  0.264476291
     0.500000000  0.000000000  0.336181456
     0.500000000  0.000000000  0.428294835
     0.347775060  0.875000000  0.382238145
     0.652224940  0.875000000  0.382238145
     0.250000000  0.000000000  0.453943310
     0.250000000  0.000000000  0.546056690
     0.597775060  0.875000000  0.500000000
     0.402224940  0.875000000  0.500000000
     0.499999758  0.000078499  0.572042332
     0.500000061  0.000119320  0.664261570
     0.349804209  0.875069082  0.618323801
     0.650195550  0.875069073  0.618323484
     0.249840134  0.000114058  0.689806767
     0.249887510  0.000145786  0.782479304
     0.593830997  0.875482588  0.741662908
     0.406168260  0.875482593  0.741662693
     0.250000000  0.250000000  0.218419601
     0.250000000  0.250000000  0.310532981
     0.597775060  0.125000000  0.264476291
     0.402224940  0.125000000  0.264476291
     0.500000000  0.250000000  0.336181456
     0.500000000  0.250000000  0.428294835
     0.347775060  0.125000000  0.382238145
     0.652224940  0.125000000  0.382238145
     0.250000000  0.250000000  0.453943310
     0.250000000  0.250000000  0.546056690
     0.597775060  0.125000000  0.500000000
     0.402224940  0.125000000  0.500000000
     0.499999764  0.250524122  0.572215573
     0.500000010  0.249530311  0.664293081
     0.349799683  0.125068093  0.618339549
     0.650200076  0.125068127  0.618339250
     0.249432505  0.249996164  0.689783888
     0.250139612  0.250261189  0.782461715
     0.593795802  0.124965244  0.741907473
     0.406203419  0.124965302  0.741907184
     0.250000000  0.500000000  0.218419601
     0.250000000  0.500000000  0.310532981
     0.597775060  0.375000000  0.264476291
     0.402224940  0.375000000  0.264476291
     0.500000000  0.500000000  0.336181456
     0.500000000  0.500000000  0.428294835
     0.347775060  0.375000000  0.382238145
     0.652224940  0.375000000  0.382238145
     0.250000000  0.500000000  0.453943310
     0.250000000  0.500000000  0.546056690
     0.597775060  0.375000000  0.500000000
     0.402224940  0.375000000  0.500000000
     0.499999790  0.499984858  0.572355994
     0.499999999  0.500066124  0.665009979
     0.349756065  0.375111514  0.618533272
     0.650243710  0.375111496  0.618532995
     0.249015272  0.500124851  0.689735724
     0.251365113  0.500465383  0.782379625
     0.594111923  0.374180011  0.740997554
     0.405887439  0.374180032  0.740997476

  ion indices of the primitive-cell ions
   primitive index   ion index
                 1           1
                 2           2
                 3           3
                 4           4
                 5           5
                 6           6
                 7           7
                 8           8
                 9           9
                10          10
                11          11
                12          12
                13          13
                14          14
                15          15
                16          16
                17          17
                18          18
                19          19
                20          20
                21          21
                22          22
                23          23
                24          24
                25          25
                26          26
                27          27
                28          28
                29          29
                30          30
                31          31
                32          32
                33          33
                34          34
                35          35
                36          36
                37          37
                38          38
                39          39
                40          40
                41          41
                42          42
                43          43
                44          44
                45          45
                46          46
                47          47
                48          48
                49          49
                50          50
                51          51
                52          52
                53          53
                54          54
                55          55
                56          56
                57          57
                58          58
                59          59
                60          60
                61          61
                62          62
                63          63
                64          64
                65          65
                66          66
                67          67
                68          68
                69          69
                70          70
                71          71
                72          72
                73          73
                74          74
                75          75
                76          76
                77          77
                78          78
                79          79
                80          80
                81          81
                82          82
                83          83
                84          84
                85          85
                86          86
                87          87
                88          88
                89          89
                90          90
                91          91
                92          92
                93          93
                94          94
                95          95
                96          96
                97          97
                98          98
                99          99
               100         100
               101         101
               102         102
               103         103
               104         104
               105         105
               106         106
               107         107
               108         108
               109         109
               110         110
               111         111
               112         112
               113         113
               114         114
               115         115
               116         116
               117         117
               118         118
               119         119
               120         120
               121         121
               122         122
               123         123
               124         124
               125         125
               126         126
               127         127
               128         128
               129         129
               130         130
               131         131
               132         132
               133         133
               134         134
               135         135
               136         136
               137         137
               138         138
               139         139
               140         140
               141         141
               142         142
               143         143
               144         144
               145         145
               146         146
               147         147
               148         148
               149         149
               150         150
               151         151
               152         152
               153         153
               154         154
               155         155
               156         156
               157         157
               158         158
               159         159
               160         160
               161         161
               162         162
               163         163
               164         164
               165         165
               166         166
               167         167
               168         168
               169         169
               170         170
               171         171
               172         172
               173         173
               174         174
               175         175
               176         176
               177         177
               178         178
               179         179
               180         180
               181         181
               182         182
               183         183
               184         184
               185         185
               186         186
               187         187
               188         188
               189         189
               190         190
               191         191
               192         192
               193         193
               194         194
               195         195
               196         196
               197         197
               198         198
               199         199
               200         200
               201         201
               202         202
               203         203
               204         204
               205         205
               206         206
               207         207
               208         208
               209         209
               210         210
               211         211
               212         212
               213         213
               214         214
               215         215
               216         216
               217         217
               218         218
               219         219
               220         220
               221         221
               222         222
               223         223
               224         224
               225         225
               226         226
               227         227
               228         228
               229         229
               230         230
               231         231
               232         232
               233         233
               234         234
               235         235
               236         236
               237         237
               238         238
               239         239
               240         240

----------------------------------------------------------------------------------------



 KPOINTS: pymatgen v2020.8.13 with grid density = 

Automatic generation of k-mesh.
 Grid dimensions read from file:
 generate k-points for:    2    2    1

 Generating k-lattice:

  Cartesian coordinates                     Fractional coordinates (reciprocal lattice)
     0.038640767  0.000000000  0.000000000     0.500000000  0.000000000  0.000000000
     0.000000000  0.042514139  0.000000000     0.000000000  0.500000000  0.000000000
     0.000000000  0.000000000  0.036403267     0.000000000  0.000000000  1.000000000

  Length of vectors
     0.038640767  0.042514139  0.036403267

  Shift w.r.t. Gamma in fractional coordinates (k-lattice)
     0.000000000  0.000000000  0.000000000

 
 Subroutine IBZKPT returns following result:
 ===========================================
 
 Found      4 irreducible k-points:
 
 Following reciprocal coordinates:
            Coordinates               Weight
  0.000000  0.000000  0.000000      1.000000
  0.500000  0.000000  0.000000      1.000000
  0.000000  0.500000  0.000000      1.000000
  0.500000  0.500000  0.000000      1.000000
 
 Following cartesian coordinates:
            Coordinates               Weight
  0.000000  0.000000  0.000000      1.000000
  0.038641  0.000000  0.000000      1.000000
  0.000000  0.042514  0.000000      1.000000
  0.038641  0.042514  0.000000      1.000000
 
 
 Subroutine IBZKPT_HF returns following result:
 ==============================================
 
 Found      4 k-points in 1st BZ
 the following      4 k-points will be used (e.g. in the exchange kernel)
 Following reciprocal coordinates:   # in IRBZ
  0.000000  0.000000  0.000000    0.25000000   1 t-inv F
  0.500000  0.000000  0.000000    0.25000000   2 t-inv F
  0.000000  0.500000  0.000000    0.25000000   3 t-inv F
  0.500000  0.500000  0.000000    0.25000000   4 t-inv F


--------------------------------------------------------------------------------------------------------




 Dimension of arrays:
   k-points           NKPTS =      4   k-points in BZ     NKDIM =      4   number of bands    NBANDS=    768
   number of dos      NEDOS =    301   number of ions     NIONS =    240
   non local maximal  LDIM  =      5   non local SUM 2l+1 LMDIM =     15
   total plane-waves  NPLWV = 806400
   max r-space proj   IRMAX =      1   max aug-charges    IRDMAX=  13520
   dimension x,y,z NGX =    72 NGY =   70 NGZ =  160
   dimension x,y,z NGXF=   144 NGYF=  140 NGZF=  320
   support grid    NGXF=   144 NGYF=  140 NGZF=  320
   ions per type =              80 160
   NGX,Y,Z   is equivalent  to a cutoff of   9.25,  9.89,  9.68 a.u.
   NGXF,Y,Z  is equivalent  to a cutoff of  18.50, 19.79, 19.37 a.u.

 SYSTEM =  TiO2                                    
 POSCAR =  Ti  O                                   

--------------------------------------------------------------------------------------------------------


  energy-cutoff  :      520.00
  volume of cell :     4180.43
      direct lattice vectors                 reciprocal lattice vectors
    12.939701814  0.000000000  0.000000000     0.077281534  0.000000000  0.000000000
     0.000000000 11.760793336  0.000000000     0.000000000  0.085028278  0.000000000
     0.000000000  0.000000000 27.470062065     0.000000000  0.000000000  0.036403267

  length of vectors
    12.939701814 11.760793336 27.470062065     0.077281534  0.085028278  0.036403267



 k-points in units of 2pi/SCALE and weight: pymatgen v2020.8.13 with grid density = 
   0.00000000  0.00000000  0.00000000       0.250
   0.03864077  0.00000000  0.00000000       0.250
   0.00000000  0.04251414  0.00000000       0.250
   0.03864077  0.04251414  0.00000000       0.250

 k-points in reciprocal lattice and weights: pymatgen v2020.8.13 with grid density = 
   0.00000000  0.00000000  0.00000000       0.250
   0.50000000  0.00000000  0.00000000       0.250
   0.00000000  0.50000000  0.00000000       0.250
   0.50000000  0.50000000  0.00000000       0.250

 position of ions in fractional coordinates (direct lattice) 
   0.75000000  0.62500000  0.26447629
   0.00000000  0.75000000  0.26447629
   0.00000000  0.62500000  0.38223815
   0.75000000  0.75000000  0.38223815
   0.75000000  0.62500000  0.50000000
   0.00000000  0.75000000  0.50000000
   0.00000001  0.62509443  0.61545421
   0.75002921  0.75008392  0.62182226
   0.75021120  0.62532440  0.74260695
   0.99999974  0.75022382  0.73061398
   0.75000000  0.87500000  0.26447629
   0.00000000  0.00000000  0.26447629
   0.00000000  0.87500000  0.38223815
   0.75000000  0.00000000  0.38223815
   0.75000000  0.87500000  0.50000000
   0.00000000  0.00000000  0.50000000
   0.00000003  0.87509700  0.61550440
   0.74999934  0.00007965  0.62194692
   0.74988556  0.87519552  0.74297519
   0.99999967  0.00012242  0.73064420
   0.75000000  0.12500000  0.26447629
   0.00000000  0.25000000  0.26447629
   0.00000000  0.12500000  0.38223815
   0.75000000  0.25000000  0.38223815
   0.75000000  0.12500000  0.50000000
   0.00000000  0.25000000  0.50000000
   0.00000001  0.12505026  0.61552820
   0.75002833  0.25006869  0.62194213
   0.74994301  0.12518334  0.74295290
   0.99999972  0.25008263  0.73064474
   0.75000000  0.37500000  0.26447629
   0.00000000  0.50000000  0.26447629
   0.00000000  0.37500000  0.38223815
   0.75000000  0.50000000  0.38223815
   0.75000000  0.37500000  0.50000000
   0.00000000  0.50000000  0.50000000
   1.00000000  0.37504116  0.61546865
   0.75011040  0.50005924  0.62186686
   0.75017667  0.37521666  0.74291932
   0.99999972  0.50018417  0.73060322
   0.25000000  0.62500000  0.26447629
   0.50000000  0.75000000  0.26447629
   0.50000000  0.62500000  0.38223815
   0.25000000  0.75000000  0.38223815
   0.25000000  0.62500000  0.50000000
   0.50000000  0.75000000  0.50000000
   0.50000005  0.62452930  0.61587051
   0.24997073  0.75008389  0.62182226
   0.24978816  0.62532438  0.74260702
   0.49999972  0.75079000  0.73017214
   0.25000000  0.87500000  0.26447629
   0.50000000  0.00000000  0.26447629
   0.50000000  0.87500000  0.38223815
   0.25000000  0.00000000  0.38223815
   0.25000000  0.87500000  0.50000000
   0.50000000  0.00000000  0.50000000
   0.50000001  0.87489627  0.61517150
   0.25000053  0.00007964  0.62194687
   0.25011374  0.87519551  0.74297516
   0.49999970  0.00016044  0.73029983
   0.25000000  0.12500000  0.26447629
   0.50000000  0.25000000  0.26447629
   0.50000000  0.12500000  0.38223815
   0.25000000  0.25000000  0.38223815
   0.25000000  0.12500000  0.50000000
   0.50000000  0.25000000  0.50000000
   0.49999997  0.12526048  0.61522686
   0.24997153  0.25006874  0.62194208
   0.25005628  0.12518335  0.74295282
   0.49999969  0.24978300  0.73032468
   0.25000000  0.37500000  0.26447629
   0.50000000  0.50000000  0.26447629
   0.50000000  0.37500000  0.38223815
   0.25000000  0.50000000  0.38223815
   0.25000000  0.37500000  0.50000000
   0.50000000  0.50000000  0.50000000
   0.50000001  0.37546112  0.61590195
   0.24988952  0.50005927  0.62186686
   0.24982270  0.37521668  0.74291932
   0.49999974  0.49914535  0.73171814
   0.75000000  0.75000000  0.21841960
   0.75000000  0.75000000  0.31053298
   0.09777506  0.62500000  0.26447629
   0.90222494  0.62500000  0.26447629
   0.00000000  0.75000000  0.33618146
   0.00000000  0.75000000  0.42829484
   0.84777506  0.62500000  0.38223815
   0.15222494  0.62500000  0.38223815
   0.75000000  0.75000000  0.45394331
   0.75000000  0.75000000  0.54605669
   0.09777506  0.62500000  0.50000000
   0.90222494  0.62500000  0.50000000
   0.99999976  0.75013975  0.57220980
   0.00000006  0.75000508  0.66453571
   0.84996821  0.62512353  0.61825793
   0.15003154  0.62512352  0.61825761
   0.75059252  0.75023396  0.68971758
   0.74946515  0.74991923  0.78241518
   0.09360923  0.62513202  0.74225158
   0.90639009  0.62513205  0.74225137
   0.75000000  0.00000000  0.21841960
   0.75000000  0.00000000  0.31053298
   0.09777506  0.87500000  0.26447629
   0.90222494  0.87500000  0.26447629
   0.00000000  0.00000000  0.33618146
   0.00000000  0.00000000  0.42829484
   0.84777506  0.87500000  0.38223815
   0.15222494  0.87500000  0.38223815
   0.75000000  0.00000000  0.45394331
   0.75000000  0.00000000  0.54605669
   0.09777506  0.87500000  0.50000000
   0.90222494  0.87500000  0.50000000
   0.99999975  0.00009058  0.57222750
   0.00000007  0.00006310  0.66456465
   0.84995192  0.87510635  0.61835347
   0.15004785  0.87510632  0.61835312
   0.75015872  0.00011409  0.68980682
   0.75011207  0.00014574  0.78247936
   0.09365847  0.87509802  0.74214238
   0.90634080  0.87509800  0.74214217
   0.75000000  0.25000000  0.21841960
   0.75000000  0.25000000  0.31053298
   0.09777506  0.12500000  0.26447629
   0.90222494  0.12500000  0.26447629
   0.00000000  0.25000000  0.33618146
   0.00000000  0.25000000  0.42829484
   0.84777506  0.12500000  0.38223815
   0.15222494  0.12500000  0.38223815
   0.75000000  0.25000000  0.45394331
   0.75000000  0.25000000  0.54605669
   0.09777506  0.12500000  0.50000000
   0.90222494  0.12500000  0.50000000
   0.99999976  0.24998479  0.57222636
   0.00000006  0.25019882  0.66457032
   0.84996226  0.12503308  0.61838990
   0.15003748  0.12503310  0.61838955
   0.75056651  0.24999612  0.68978394
   0.74985987  0.25026122  0.78246177
   0.09362114  0.12517690  0.74214012
   0.90637815  0.12517696  0.74213993
   0.75000000  0.50000000  0.21841960
   0.75000000  0.50000000  0.31053298
   0.09777506  0.37500000  0.26447629
   0.90222494  0.37500000  0.26447629
   0.00000000  0.50000000  0.33618146
   0.00000000  0.50000000  0.42829484
   0.84777506  0.37500000  0.38223815
   0.15222494  0.37500000  0.38223815
   0.75000000  0.50000000  0.45394331
   0.75000000  0.50000000  0.54605669
   0.09777506  0.37500000  0.50000000
   0.90222494  0.37500000  0.50000000
   0.99999978  0.50004484  0.57220947
   0.00000002  0.50009994  0.66452846
   0.84997306  0.37500945  0.61828113
   0.15002669  0.37500949  0.61828082
   0.75098382  0.50012484  0.68973574
   0.74863439  0.50046537  0.78237954
   0.09362622  0.37524616  0.74227663
   0.90637313  0.37524613  0.74227651
   0.25000000  0.75000000  0.21841960
   0.25000000  0.75000000  0.31053298
   0.59777506  0.62500000  0.26447629
   0.40222494  0.62500000  0.26447629
   0.50000000  0.75000000  0.33618146
   0.50000000  0.75000000  0.42829484
   0.34777506  0.62500000  0.38223815
   0.65222494  0.62500000  0.38223815
   0.25000000  0.75000000  0.45394331
   0.25000000  0.75000000  0.54605669
   0.59777506  0.62500000  0.50000000
   0.40222494  0.62500000  0.50000000
   0.49999978  0.74956233  0.57218109
   0.50000004  0.75051248  0.66418955
   0.34974239  0.62499954  0.61849020
   0.65025737  0.62499955  0.61848991
   0.24940647  0.75023394  0.68971758
   0.25053438  0.74991923  0.78241521
   0.59390075  0.62611272  0.74125099
   0.40609858  0.62611271  0.74125089
   0.25000000  0.00000000  0.21841960
   0.25000000  0.00000000  0.31053298
   0.59777506  0.87500000  0.26447629
   0.40222494  0.87500000  0.26447629
   0.50000000  0.00000000  0.33618146
   0.50000000  0.00000000  0.42829484
   0.34777506  0.87500000  0.38223815
   0.65222494  0.87500000  0.38223815
   0.25000000  0.00000000  0.45394331
   0.25000000  0.00000000  0.54605669
   0.59777506  0.87500000  0.50000000
   0.40222494  0.87500000  0.50000000
   0.49999976  0.00007850  0.57204233
   0.50000006  0.00011932  0.66426157
   0.34980421  0.87506908  0.61832380
   0.65019555  0.87506907  0.61832348
   0.24984013  0.00011406  0.68980677
   0.24988751  0.00014579  0.78247930
   0.59383100  0.87548259  0.74166291
   0.40616826  0.87548259  0.74166269
   0.25000000  0.25000000  0.21841960
   0.25000000  0.25000000  0.31053298
   0.59777506  0.12500000  0.26447629
   0.40222494  0.12500000  0.26447629
   0.50000000  0.25000000  0.33618146
   0.50000000  0.25000000  0.42829484
   0.34777506  0.12500000  0.38223815
   0.65222494  0.12500000  0.38223815
   0.25000000  0.25000000  0.45394331
   0.25000000  0.25000000  0.54605669
   0.59777506  0.12500000  0.50000000
   0.40222494  0.12500000  0.50000000
   0.49999976  0.25052412  0.57221557
   0.50000001  0.24953031  0.66429308
   0.34979968  0.12506809  0.61833955
   0.65020008  0.12506813  0.61833925
   0.24943250  0.24999616  0.68978389
   0.25013961  0.25026119  0.78246172
   0.59379580  0.12496524  0.74190747
   0.40620342  0.12496530  0.74190718
   0.25000000  0.50000000  0.21841960
   0.25000000  0.50000000  0.31053298
   0.59777506  0.37500000  0.26447629
   0.40222494  0.37500000  0.26447629
   0.50000000  0.50000000  0.33618146
   0.50000000  0.50000000  0.42829484
   0.34777506  0.37500000  0.38223815
   0.65222494  0.37500000  0.38223815
   0.25000000  0.50000000  0.45394331
   0.25000000  0.50000000  0.54605669
   0.59777506  0.37500000  0.50000000
   0.40222494  0.37500000  0.50000000
   0.49999979  0.49998486  0.57235599
   0.50000000  0.50006612  0.66500998
   0.34975607  0.37511151  0.61853327
   0.65024371  0.37511150  0.61853299
   0.24901527  0.50012485  0.68973572
   0.25136511  0.50046538  0.78237963
   0.59411192  0.37418001  0.74099755
   0.40588744  0.37418003  0.74099748

 position of ions in cartesian coordinates  (Angst):
   9.70477636  7.35049584  7.26518013
   0.00000000  8.82059500  7.26518013
   0.00000000  7.35049584 10.50010558
   9.70477636  8.82059500 10.50010558
   9.70477636  7.35049584 13.73503103
   0.00000000  8.82059500 13.73503103
   0.00000017  7.35160639 16.90656529
   9.70515437  8.82158197 17.08149615
   9.70750928  7.35431099 20.39945912
  12.93969851  8.82322733 20.07001144
   9.70477636 10.29069417  7.26518013
   0.00000000  0.00000000  7.26518013
   0.00000000 10.29069417 10.50010558
   9.70477636  0.00000000 10.50010558
   9.70477636 10.29069417 13.73503103
   0.00000000  0.00000000 13.73503103
   0.00000038 10.29183501 16.90794409
   9.70476776  0.00093673 17.08492047
   9.70329560 10.29299369 20.40957459
  12.93969758  0.00143975 20.07084165
   9.70477636  1.47009917  7.26518013
   0.00000000  2.94019833  7.26518013
   0.00000000  1.47009917 10.50010558
   9.70477636  2.94019833 10.50010558
   9.70477636  1.47009917 13.73503103
   0.00000000  2.94019833 13.73503103
   0.00000016  1.47069024 16.90859777
   9.70514298  2.94100617 17.08478880
   9.70403887  1.47225535 20.40896223
  12.93969825  2.94117007 20.07085630
   9.70477636  4.41029750  7.26518013
   0.00000000  5.88039667  7.26518013
   0.00000000  4.41029750 10.50010558
   9.70477636  5.88039667 10.50010558
   9.70477636  4.41029750 13.73503103
   0.00000000  5.88039667 13.73503103
  12.93970179  4.41078159 16.90696204
   9.70620491  5.88109339 17.08272136
   9.70706245  4.41284559 20.40803978
  12.93969819  5.88256270 20.06971593
   3.23492545  7.35049584  7.26518013
   6.46985091  8.82059500  7.26518013
   6.46985091  7.35049584 10.50010558
   3.23492545  8.82059500 10.50010558
   3.23492545  7.35049584 13.73503103
   6.46985091  8.82059500 13.73503103
   6.46985151  7.34496001 16.91800102
   3.23454666  8.82158156 17.08149606
   3.23218435  7.35431080 20.39946101
   6.46984726  8.82988608 20.05787409
   3.23492545 10.29069417  7.26518013
   6.46985091  0.00000000  7.26518013
   6.46985091 10.29069417 10.50010558
   3.23492545  0.00000000 10.50010558
   3.23492545 10.29069417 13.73503103
   6.46985091  0.00000000 13.73503103
   6.46985097 10.28947428 16.89879932
   3.23493237  0.00093665 17.08491924
   3.23639721 10.29299354 20.40957388
   6.46984698  0.00188693 20.06138160
   3.23492545  1.47009917  7.26518013
   6.46985091  2.94019833  7.26518013
   6.46985091  1.47009917 10.50010558
   3.23492545  2.94019833 10.50010558
   3.23492545  1.47009917 13.73503103
   6.46985091  2.94019833 13.73503103
   6.46985048  1.47316260 16.90031995
   3.23455701  2.94100680 17.08478754
   3.23565367  1.47225546 20.40896009
   6.46984691  2.93764618 20.06206438
   3.23492545  4.41029750  7.26518013
   6.46985091  5.88039667  7.26518013
   6.46985091  4.41029750 10.50010558
   3.23492545  5.88039667 10.50010558
   3.23492545  4.41029750 13.73503103
   6.46985091  5.88039667 13.73503103
   6.46985100  4.41572067 16.91886491
   3.23349586  5.88109368 17.08272129
   3.23263128  4.41284578 20.40803988
   6.46984749  5.87034534 20.10034261
   9.70477636  8.82059500  6.00000000
   9.70477636  8.82059500  8.53036025
   1.26518013  7.35049584  7.26518013
  11.67452169  7.35049584  7.26518013
   0.00000000  8.82059500  9.23492545
   0.00000000  8.82059500 11.76528570
  10.96995649  7.35049584 10.50010558
   1.96974533  7.35049584 10.50010558
   9.70477636  8.82059500 12.46985091
   9.70477636  8.82059500 15.00021116
   1.26518013  7.35049584 13.73503103
  11.67452169  7.35049584 13.73503103
  12.93969867  8.82223853 15.71863885
   0.00000083  8.82065480 18.25483732
  10.99833522  7.35194863 16.98358361
   1.94136337  7.35194848 16.98357496
   9.71244335  8.82334660 18.94658484
   9.69785552  8.81964513 21.49299360
   1.21127557  7.35204855 20.38969686
  11.72841754  7.35204888 20.38969130
   9.70477636  0.00000000  6.00000000
   9.70477636  0.00000000  8.53036025
   1.26518013 10.29069417  7.26518013
  11.67452169 10.29069417  7.26518013
   0.00000000  0.00000000  9.23492545
   0.00000000  0.00000000 11.76528570
  10.96995649 10.29069417 10.50010558
   1.96974533 10.29069417 10.50010558
   9.70477636  0.00000000 12.46985091
   9.70477636  0.00000000 15.00021116
   1.26518013 10.29069417 13.73503103
  11.67452169 10.29069417 13.73503103
  12.93969864  0.00106527 15.71912499
   0.00000092  0.00074207 18.25563220
  10.99812446 10.29194492 16.98620806
   1.94157445 10.29194460 16.98619864
   9.70683011  0.00134177 18.94903604
   9.70622657  0.00171405 21.49475672
   1.21191271 10.29184692 20.38669729
  11.72777974 10.29184667 20.38669148
   9.70477636  2.94019833  6.00000000
   9.70477636  2.94019833  8.53036025
   1.26518013  1.47009917  7.26518013
  11.67452169  1.47009917  7.26518013
   0.00000000  2.94019833  9.23492545
   0.00000000  2.94019833 11.76528570
  10.96995649  1.47009917 10.50010558
   1.96974533  1.47009917 10.50010558
   9.70477636  2.94019833 12.46985091
   9.70477636  2.94019833 15.00021116
   1.26518013  1.47009917 13.73503103
  11.67452169  1.47009917 13.73503103
  12.93969864  2.94001949 15.71909370
   0.00000075  2.94253661 18.25578794
  10.99825815  1.47048822 16.98720881
   1.94144029  1.47048846 16.98719920
   9.71210679  2.94015268 18.94840772
   9.70296317  2.94327044 21.49427326
   1.21142965  1.47217967 20.38663517
  11.72826293  1.47218031 20.38662989
   9.70477636  5.88039667  6.00000000
   9.70477636  5.88039667  8.53036025
   1.26518013  4.41029750  7.26518013
  11.67452169  4.41029750  7.26518013
   0.00000000  5.88039667  9.23492545
   0.00000000  5.88039667 11.76528570
  10.96995649  4.41029750 10.50010558
   1.96974533  4.41029750 10.50010558
   9.70477636  5.88039667 12.46985091
   9.70477636  5.88039667 15.00021116
   1.26518013  4.41029750 13.73503103
  11.67452169  4.41029750 13.73503103
  12.93969895  5.88092402 15.71862969
   0.00000031  5.88157209 18.25463796
  10.99839800  4.41040867 16.98422113
   1.94130069  4.41040911 16.98421245
   9.71750669  5.88186490 18.94708352
   9.68710572  5.88586975 21.49201459
   1.21149538  4.41319248 20.39038514
  11.72819799  4.41319224 20.39038168
   3.23492545  8.82059500  6.00000000
   3.23492545  8.82059500  8.53036025
   7.73503103  7.35049584  7.26518013
   5.20467078  7.35049584  7.26518013
   6.46985091  8.82059500  9.23492545
   6.46985091  8.82059500 11.76528570
   4.50010558  7.35049584 10.50010558
   8.43959623  7.35049584 10.50010558
   3.23492545  8.82059500 12.46985091
   3.23492545  8.82059500 15.00021116
   7.73503103  7.35049584 13.73503103
   5.20467078  7.35049584 13.73503103
   6.46984805  8.81544760 15.71785003
   6.46985148  8.82662213 18.24532804
   4.52556225  7.35049048 16.98996430
   8.41413649  7.35049052 16.98995621
   3.22724538  8.82334628 18.94658482
   3.24184012  8.81964504 21.49299441
   7.68489861  7.36358228 20.36221069
   5.25479459  7.36358223 20.36220788
   3.23492545  0.00000000  6.00000000
   3.23492545  0.00000000  8.53036025
   7.73503103 10.29069417  7.26518013
   5.20467078 10.29069417  7.26518013
   6.46985091  0.00000000  9.23492545
   6.46985091  0.00000000 11.76528570
   4.50010558 10.29069417 10.50010558
   8.43959623 10.29069417 10.50010558
   3.23492545  0.00000000 12.46985091
   3.23492545  0.00000000 15.00021116
   7.73503103 10.29069417 13.73503103
   5.20467078 10.29069417 13.73503103
   6.46984777  0.00092321 15.71403835
   6.46985170  0.00140330 18.24730655
   4.52636216 10.29150663 16.98539320
   8.41333654 10.29150652 16.98538447
   3.23285684  0.00134142 18.94903469
   3.23346986  0.00171456 21.49475504
   7.68399603 10.29636979 20.37352610
   5.25569617 10.29636984 20.37352021
   3.23492545  2.94019833  6.00000000
   3.23492545  2.94019833  8.53036025
   7.73503103  1.47009917  7.26518013
   5.20467078  1.47009917  7.26518013
   6.46985091  2.94019833  9.23492545
   6.46985091  2.94019833 11.76528570
   4.50010558  1.47009917 10.50010558
   8.43959623  1.47009917 10.50010558
   3.23492545  2.94019833 12.46985091
   3.23492545  2.94019833 15.00021116
   7.73503103  1.47009917 13.73503103
   5.20467078  1.47009917 13.73503103
   6.46984786  2.94636243 15.71879731
   6.46985104  2.93467442 18.24817215
   4.52630359  1.47090000 16.98582579
   8.41339511  1.47090039 16.98581758
   3.22758223  2.94015322 18.94840623
   3.23673199  2.94327012 21.49427188
   7.68354061  1.46969041 20.38024434
   5.25615112  1.46969110 20.38023639
   3.23492545  5.88039667  6.00000000
   3.23492545  5.88039667  8.53036025
   7.73503103  4.41029750  7.26518013
   5.20467078  4.41029750  7.26518013
   6.46985091  5.88039667  9.23492545
   6.46985091  5.88039667 11.76528570
   4.50010558  4.41029750 10.50010558
   8.43959623  4.41029750 10.50010558
   3.23492545  5.88039667 12.46985091
   3.23492545  5.88039667 15.00021116
   7.73503103  4.41029750 13.73503103
   5.20467078  4.41029750 13.73503103
   6.46984819  5.88021859 15.72265468
   6.46985090  5.88117434 18.26786540
   4.52573919  4.41160899 16.99114738
   8.41395971  4.41160878 16.99113975
   3.22218337  5.88186502 18.94708314
   3.25258961  5.88586995 21.49201687
   7.68763113  4.40065378 20.35524881
   5.25206243  4.40065403 20.35524666



--------------------------------------------------------------------------------------------------------

--------------------------------------- Iteration      FINAL  ---------------------------------------


--------------------OUTCAR has been truncated-------------------------


--------------------OUTCAR has been truncated-------------------------


--------------------OUTCAR has been truncated-------------------------


--------------------OUTCAR has been truncated-------------------------


--------------------OUTCAR has been truncated-------------------------


--------------------OUTCAR has been truncated-------------------------


--------------------OUTCAR has been truncated-------------------------


--------------------OUTCAR has been truncated-------------------------


--------------------OUTCAR has been truncated-------------------------


--------------------OUTCAR has been truncated-------------------------


    FORVDW:  cpu time     59.2929: real time     59.3896

  FORCE on cell =-STRESS in cart. coord.  units (eV):
  Direction    XX          YY          ZZ          XY          YZ          ZX
  --------------------------------------------------------------------------------------
  Alpha Z  3292.74002  3292.74002  3292.74002
  Ewald  355210.33942360555.09855************     0.00016    -1.63774    -0.00030
  Hartree377175.63180378580.38722************     0.00001    -0.86005     0.00008
  E(xc)   -4646.64670 -4697.67502 -4646.90720    -0.00003     0.01541    -0.00003
  Local  ************************746015.79089     0.00009     2.45574     0.00124
  n-local -2875.80638 -2769.68059 -2934.28513    -0.00007    -0.08490     0.00027
  augment  1337.86459  1317.85671  1342.78882     0.00003     0.00526    -0.00014
  Kinetic 23383.95854 22843.50096 23436.09941    -0.00031    -0.05884    -0.00152
  Fock    -2128.99236 -2154.56967 -2131.26316    -0.00000    -0.00041     0.00010
  vdW       -50.61055   -50.73830   -44.18076    -0.00000     0.00048     0.00000
  -------------------------------------------------------------------------------------
  Total      11.33455   -43.02083   -33.66067    -0.00011    -0.16504    -0.00031
  in kB       4.34405   -16.48803   -12.90068    -0.00004    -0.06325    -0.00012
  external pressure =       -8.35 kB  Pullay stress =        0.00 kB


 VOLUME and BASIS-vectors are now :
 -----------------------------------------------------------------------------
  energy-cutoff  :      520.00
  volume of cell :     4180.43
      direct lattice vectors                 reciprocal lattice vectors
    12.939701814  0.000000000  0.000000000     0.077281534  0.000000000  0.000000000
     0.000000000 11.760793336  0.000000000     0.000000000  0.085028278  0.000000000
     0.000000000  0.000000000 27.470062065     0.000000000  0.000000000  0.036403267

  length of vectors
    12.939701814 11.760793336 27.470062065     0.077281534  0.085028278  0.036403267


 FORCES acting on ions:
    Electron-Ion                     Ewald-Force                    Non-Local-Force
 -----------------------------------------------------------------------------------------------
   0.444E-02 0.277E-02 0.970E+03   -.458E-02 -.287E-02 -.973E+03   0.158E-04 0.140E-03 -.124E+01
   0.749E-04 0.200E-02 0.104E+04   -.654E-06 -.192E-02 -.104E+04   0.635E-04 0.265E-05 -.184E+01
   0.185E-04 0.674E-02 0.498E+03   -.285E-05 -.672E-02 -.498E+03   0.178E-04 0.817E-04 0.183E+00
   0.117E-01 0.143E-01 0.494E+03   -.122E-01 -.138E-01 -.495E+03   -.810E-04 0.357E-03 -.165E+00
   0.138E+00 0.665E-01 -.525E+01   -.140E+00 -.689E-01 0.571E+01   -.978E-03 -.120E-02 0.181E+00
   -.604E-04 0.195E-01 -.420E+01   0.443E-04 -.156E-01 0.358E+01   -.153E-04 -.768E-03 -.796E-01
   0.293E-03 0.639E-01 -.495E+03   -.302E-03 -.657E-01 0.495E+03   0.948E-05 -.157E-02 -.661E-01
   0.232E+00 0.313E-01 -.504E+03   -.216E+00 -.239E-01 0.504E+03   -.383E-02 0.451E-03 0.522E-01
   -.306E+00 0.626E+00 -.958E+03   0.285E+00 -.635E+00 0.957E+03   0.152E-01 0.245E-02 0.229E-01
   0.165E-03 0.217E+00 -.987E+03   -.170E-03 -.232E+00 0.987E+03   -.321E-06 0.104E-02 0.680E+00
   0.281E-02 0.167E-02 0.970E+03   -.305E-02 -.145E-02 -.973E+03   -.188E-04 0.101E-03 -.124E+01
   0.845E-04 -.977E-03 0.104E+04   -.718E-06 0.989E-03 -.104E+04   0.585E-04 0.732E-05 -.184E+01
   0.110E-05 -.194E-02 0.498E+03   -.334E-05 0.206E-02 -.498E+03   0.180E-04 0.114E-03 0.183E+00
   0.450E-03 -.599E-02 0.494E+03   -.116E-02 0.615E-02 -.495E+03   -.166E-03 0.883E-04 -.165E+00
   -.297E-02 0.192E-01 -.520E+01   0.248E-02 -.919E-02 0.566E+01   -.147E-03 0.565E-02 0.183E+00
   -.362E-04 -.762E-02 -.429E+01   0.366E-04 0.106E-01 0.367E+01   0.166E-04 -.184E-03 -.781E-01
   0.309E-03 -.264E-01 -.495E+03   -.323E-03 0.239E-01 0.495E+03   0.248E-05 -.921E-03 -.639E-01
   -.479E-02 -.263E-01 -.505E+03   0.168E-01 0.224E-01 0.504E+03   0.164E-02 -.743E-03 0.553E-01
   -.103E+00 0.301E+00 -.959E+03   0.138E+00 -.336E+00 0.958E+03   0.163E-01 -.185E-01 0.587E-02
   0.234E-03 0.431E-01 -.987E+03   -.229E-03 -.489E-01 0.988E+03   0.992E-05 -.291E-02 0.692E+00
   0.291E-02 -.289E-02 0.970E+03   -.306E-02 0.287E-02 -.973E+03   -.396E-04 0.199E-04 -.124E+01
   0.710E-04 -.198E-02 0.104E+04   -.734E-06 0.192E-02 -.104E+04   0.324E-04 -.504E-04 -.184E+01
   0.103E-04 -.657E-02 0.498E+03   -.397E-05 0.657E-02 -.498E+03   0.200E-04 -.244E-04 0.183E+00
   0.119E-01 -.143E-01 0.494E+03   -.122E-01 0.138E-01 -.495E+03   -.847E-04 -.345E-03 -.165E+00
   -.515E-02 -.625E-01 -.525E+01   0.513E-02 0.619E-01 0.572E+01   0.117E-03 -.386E-03 0.186E+00
   -.312E-04 0.776E-02 -.428E+01   0.380E-04 -.108E-01 0.366E+01   0.200E-04 -.671E-03 -.778E-01
   0.353E-03 -.723E-01 -.495E+03   -.360E-03 0.746E-01 0.495E+03   0.896E-05 0.180E-02 -.620E-01
   0.162E+00 0.667E-02 -.505E+03   -.141E+00 -.167E-01 0.504E+03   -.171E-02 -.841E-03 0.502E-01
   0.101E+00 -.622E-02 -.959E+03   -.665E-01 -.443E-02 0.958E+03   0.907E-02 -.538E-02 0.168E-02
   0.154E-03 -.446E+00 -.987E+03   -.157E-03 0.472E+00 0.987E+03   -.230E-05 0.194E-02 0.681E+00
   0.447E-02 -.148E-02 0.970E+03   -.459E-02 0.146E-02 -.973E+03   -.604E-04 -.874E-04 -.124E+01
   0.984E-05 0.954E-03 0.104E+04   -.671E-06 -.989E-03 -.104E+04   -.437E-04 0.719E-05 -.184E+01
   0.125E-04 0.166E-02 0.498E+03   -.347E-05 -.188E-02 -.498E+03   0.311E-04 -.119E-03 0.183E+00
   0.232E-01 0.598E-02 0.494E+03   -.232E-01 -.612E-02 -.495E+03   -.422E-04 -.742E-04 -.165E+00
   0.137E+00 -.231E-01 -.530E+01   -.139E+00 0.159E-01 0.576E+01   -.999E-03 -.385E-02 0.184E+00
   -.376E-04 0.370E-01 -.419E+01   0.368E-04 -.386E-01 0.357E+01   -.306E-05 -.135E-02 -.795E-01
   0.280E-03 -.160E-01 -.495E+03   -.292E-03 0.181E-01 0.495E+03   0.103E-04 0.187E-02 -.663E-01
   0.357E+00 0.432E-01 -.504E+03   -.335E+00 -.419E-01 0.504E+03   -.560E-04 0.159E-02 0.486E-01
   -.305E+00 -.540E+00 -.959E+03   0.413E+00 0.565E+00 0.958E+03   0.273E-01 0.238E-01 0.185E-01
   0.185E-03 0.229E-01 -.987E+03   -.185E-03 -.231E-01 0.987E+03   -.305E-05 0.210E-02 0.669E+00
   -.445E-02 0.299E-02 0.970E+03   0.458E-02 -.287E-02 -.973E+03   0.395E-04 0.116E-03 -.124E+01
   -.652E-04 0.448E-02 0.104E+04   0.639E-06 -.430E-02 -.104E+04   -.110E-03 0.135E-03 -.184E+01
   -.720E-05 0.282E-01 0.498E+03   0.267E-05 -.245E-01 -.498E+03   -.282E-05 0.120E-02 0.183E+00
   -.117E-01 0.143E-01 0.494E+03   0.122E-01 -.138E-01 -.495E+03   0.102E-03 0.326E-03 -.165E+00
   -.138E+00 0.665E-01 -.525E+01   0.140E+00 -.689E-01 0.571E+01   0.960E-03 -.118E-02 0.181E+00
   -.488E-04 0.856E-01 -.423E+01   0.580E-04 -.100E+00 0.363E+01   0.144E-04 0.596E-02 -.818E-01
   0.296E-03 0.467E+00 -.496E+03   -.318E-03 -.370E+00 0.496E+03   -.595E-05 -.200E-01 -.659E-01
   -.233E+00 0.313E-01 -.504E+03   0.217E+00 -.239E-01 0.504E+03   0.382E-02 0.468E-03 0.522E-01
   0.306E+00 0.626E+00 -.958E+03   -.285E+00 -.635E+00 0.957E+03   -.152E-01 0.243E-02 0.229E-01
   0.240E-03 0.153E+00 -.987E+03   -.247E-03 -.278E+00 0.988E+03   0.129E-05 -.401E-01 0.737E+00
   -.284E-02 0.168E-02 0.970E+03   0.305E-02 -.145E-02 -.973E+03   0.615E-04 0.855E-04 -.124E+01
   -.696E-04 -.102E-02 0.104E+04   0.708E-06 0.101E-02 -.104E+04   -.205E-04 0.143E-04 -.184E+01
   -.120E-04 0.171E-01 0.498E+03   0.324E-05 -.156E-01 -.498E+03   -.217E-04 0.342E-03 0.184E+00
   -.452E-03 -.598E-02 0.494E+03   0.116E-02 0.615E-02 -.495E+03   0.177E-03 0.122E-03 -.165E+00
[...]
     12.93970      2.94117     20.07086        -0.000002      0.008062      0.015687
      9.70478      4.41030      7.26518        -0.000177     -0.000111     -3.961048
      0.00000      5.88040      7.26518        -0.000040     -0.000018      3.128934
      0.00000      4.41030     10.50011         0.000042     -0.000334      0.588410
      9.70478      5.88040     10.50011        -0.000099     -0.000199     -0.851016
      9.70478      4.41030     13.73503        -0.002755     -0.011844      0.688643
      0.00000      5.88040     13.73503        -0.000004     -0.002934     -0.782049
     12.93970      4.41078     16.90696         0.000011      0.001784      0.016487
      9.70620      5.88109     17.08272         0.022562      0.003598      0.013425
      9.70706      4.41285     20.40804         0.120928      0.043996      0.039172
     12.93970      5.88256     20.06972         0.000002      0.002882      0.022850
      3.23493      7.35050      7.26518         0.000163      0.000253     -3.961328
      6.46985      8.82060      7.26518        -0.000178      0.000354      3.129591
      6.46985      7.35050     10.50011        -0.000006      0.005339      0.588604
      3.23493      8.82060     10.50011         0.000590      0.000864     -0.851427
      3.23493      7.35050     13.73503         0.003416     -0.003824      0.678315
      6.46985      8.82060     13.73503         0.000025     -0.009666     -0.762654
      6.46985      7.34496     16.91800        -0.000012      0.059463     -0.032892
      3.23455      8.82158     17.08150        -0.014932      0.008788      0.019986
      3.23218      7.35431     20.39946         0.022967      0.011145      0.093073
      6.46985      8.82989     20.05787         0.000000     -0.175758      0.046234
      3.23493     10.29069      7.26518         0.000283      0.000349     -3.961266
      6.46985      0.00000      7.26518        -0.000079      0.000023      3.129832
      6.46985     10.29069     10.50011        -0.000032      0.002058      0.592057
      3.23493      0.00000     10.50011         0.000923      0.000316     -0.849552
      3.23493     10.29069     13.73503         0.000698      0.016752      0.686497
      6.46985      0.00000     13.73503        -0.000018      0.002419     -0.822151
      6.46985     10.28947     16.89880        -0.000005     -0.010105      0.006141
      3.23493      0.00094     17.08492        -0.012008     -0.003606      0.011976
      3.23640     10.29299     20.40957        -0.038492     -0.041873      0.034320
      6.46985      0.00189     20.06138         0.000014      0.002064     -0.017833
      3.23493      1.47010      7.26518         0.000182     -0.000078     -3.960989
      6.46985      2.94020      7.26518        -0.000117     -0.000316      3.129608
      6.46985      1.47010     10.50011         0.000015     -0.002885      0.591588
      3.23493      2.94020     10.50011         0.000434     -0.000835     -0.849112
      3.23493      1.47010     13.73503        -0.000034     -0.001309      0.697047
      6.46985      2.94020     13.73503        -0.000036      0.009287     -0.764448
      6.46985      1.47316     16.90032        -0.000009     -0.025394     -0.011191
      3.23456      2.94101     17.08479        -0.021047     -0.009733      0.000885
      3.23565      1.47226     20.40896        -0.037305     -0.015153      0.023017
      6.46985      2.93765     20.06206        -0.000011     -0.188617     -0.061030
      3.23493      4.41030      7.26518         0.000078     -0.000390     -3.961228
      6.46985      5.88040      7.26518        -0.000002      0.000042      3.129077
      6.46985      4.41030     10.50011        -0.000012     -0.004448      0.588061
      3.23493      5.88040     10.50011         0.000118     -0.000198     -0.851069
      3.23493      4.41030     13.73503         0.002722     -0.011887      0.688580
      6.46985      5.88040     13.73503        -0.000010     -0.001964     -0.765387
      6.46985      4.41572     16.91886        -0.000017     -0.022637     -0.056171
      3.23350      5.88109     17.08272        -0.022559      0.003582      0.013383
      3.23263      4.41285     20.40804        -0.120902      0.044040      0.039157
      6.46985      5.87035     20.10034        -0.000008      0.425807     -0.613027
      9.70478      8.82060      6.00000        -0.000010     -0.000116      2.226571
      9.70478      8.82060      8.53036         0.000068     -0.000135      2.011572
      1.26518      7.35050      7.26518        -2.149506     -0.000023     -0.834561
     11.67452      7.35050      7.26518         2.149580      0.000042     -0.834696
      0.00000      8.82060      9.23493        -0.000012     -0.000089     -1.525387
      0.00000      8.82060     11.76529        -0.000003      0.000073     -0.140533
     10.96996      7.35050     10.50011         0.478992     -0.000107      0.059117
      1.96975      7.35050     10.50011        -0.479036     -0.000069      0.059094
      9.70478      8.82060     12.46985         0.000227     -0.002489     -0.080214
      9.70478      8.82060     15.00021        -0.000604     -0.001068      0.047426
      1.26518      7.35050     13.73503        -0.489660      0.001247      0.096507
     11.67452      7.35050     13.73503         0.489673      0.001267      0.096499
     12.93970      8.82224     15.71864         0.000004     -0.002268     -0.009150
      0.00000      8.82065     18.25484         0.000001      0.003404     -0.013380
     10.99834      7.35195     16.98358        -0.006851     -0.002428     -0.000114
      1.94136      7.35195     16.98357         0.006829     -0.002463     -0.000122
      9.71244      8.82335     18.94658        -0.008017      0.005437     -0.026768
      9.69786      8.81965     21.49299         0.015363      0.043952     -0.051531
      1.21128      7.35205     20.38970        -0.001217     -0.001421     -0.012501
     11.72842      7.35205     20.38969         0.001238     -0.001439     -0.012497
      9.70478      0.00000      6.00000         0.000013     -0.000014      2.226500
      9.70478      0.00000      8.53036         0.000132     -0.000057      2.010866
      1.26518     10.29069      7.26518        -2.149689     -0.000017     -0.834609
     11.67452     10.29069      7.26518         2.149727     -0.000016     -0.834601
      0.00000      0.00000      9.23493        -0.000022     -0.000113     -1.525555
      0.00000      0.00000     11.76529         0.000013     -0.000061     -0.140244
     10.96996     10.29069     10.50011         0.479094     -0.000412      0.059029
      1.96975     10.29069     10.50011        -0.479143     -0.000438      0.058978
      9.70478      0.00000     12.46985        -0.000004     -0.002839     -0.083986
      9.70478      0.00000     15.00021         0.001347      0.000482      0.039389
      1.26518     10.29069     13.73503        -0.490957     -0.000089      0.095112
     11.67452     10.29069     13.73503         0.491001     -0.000139      0.095075
     12.93970      0.00107     15.71912        -0.000013     -0.000119     -0.006390
      0.00000      0.00074     18.25563        -0.000010      0.000320     -0.011777
     10.99812     10.29194     16.98621        -0.007960      0.001522     -0.002897
      1.94157     10.29194     16.98620         0.007943      0.001493     -0.002889
      9.70683      0.00134     18.94904        -0.003285      0.007522     -0.018416
      9.70623      0.00171     21.49476        -0.008950      0.013656     -0.006011
      1.21191     10.29185     20.38670         0.000559      0.003901     -0.005789
     11.72778     10.29185     20.38669        -0.000592      0.003905     -0.005781
      9.70478      2.94020      6.00000        -0.000021     -0.000037      2.226481
      9.70478      2.94020      8.53036         0.000077      0.000096      2.010924
      1.26518      1.47010      7.26518        -2.149626      0.000002     -0.834558
     11.67452      1.47010      7.26518         2.149742     -0.000038     -0.834665
      0.00000      2.94020      9.23493        -0.000017      0.000173     -1.525518
      0.00000      2.94020     11.76529         0.000028      0.000325     -0.140245
     10.96996      1.47010     10.50011         0.479232      0.000062      0.058846
      1.96975      1.47010     10.50011        -0.479267      0.000034      0.058859
      9.70478      2.94020     12.46985         0.000194      0.002774     -0.084798
      9.70478      2.94020     15.00021        -0.001020      0.005203      0.045197
      1.26518      1.47010     13.73503        -0.493420      0.000686      0.094264
     11.67452      1.47010     13.73503         0.493354      0.000685      0.094258
     12.93970      2.94002     15.71909        -0.000020      0.001346     -0.009344
      0.00000      2.94254     18.25579        -0.000001     -0.005082     -0.011319
     10.99826      1.47049     16.98721        -0.010705      0.001503     -0.002594
      1.94144      1.47049     16.98720         0.010687      0.001501     -0.002598
      9.71211      2.94015     18.94841        -0.013835      0.001111     -0.009321
      9.70296      2.94327     21.49427        -0.014562      0.003752     -0.010209
      1.21143      1.47218     20.38664         0.010150      0.000630     -0.003829
     11.72826      1.47218     20.38663        -0.010137      0.000623     -0.003835
      9.70478      5.88040      6.00000        -0.000041      0.000028      2.226507
      9.70478      5.88040      8.53036         0.000022     -0.000060      2.011655
      1.26518      4.41030      7.26518        -2.149533      0.000088     -0.834512
     11.67452      4.41030      7.26518         2.149662      0.000080     -0.834701
      0.00000      5.88040      9.23493         0.000025      0.000131     -1.525418
      0.00000      5.88040     11.76529        -0.000007      0.000382     -0.140313
     10.96996      4.41030     10.50011         0.479159      0.000521      0.058965
      1.96975      4.41030     10.50011        -0.479191      0.000452      0.058975
      9.70478      5.88040     12.46985         0.000745      0.003135     -0.081190
      9.70478      5.88040     15.00021        -0.001791      0.002786      0.048886
      1.26518      4.41030     13.73503        -0.492311      0.001510      0.095869
     11.67452      4.41030     13.73503         0.492320      0.001507      0.095813
     12.93970      5.88092     15.71863         0.000001      0.000502     -0.012149
      0.00000      5.88157     18.25464         0.000014      0.000336     -0.012817
     10.99840      4.41041     16.98422        -0.010806     -0.001010      0.000492
      1.94130      4.41041     16.98421         0.010812     -0.001007      0.000517
      9.71751      5.88186     18.94708        -0.012716     -0.014250     -0.026840
      9.68711      5.88587     21.49201         0.004575     -0.066920     -0.062560
      1.21150      4.41319     20.39039         0.010474     -0.004406     -0.008706
     11.72820      4.41319     20.39038        -0.010478     -0.004415     -0.008719
      3.23493      8.82060      6.00000        -0.000004     -0.000116      2.226650
      3.23493      8.82060      8.53036        -0.000119     -0.000208      2.011604
      7.73503      7.35050      7.26518        -2.149491     -0.000224     -0.834658
      5.20467      7.35050      7.26518         2.149456     -0.000241     -0.834570
      6.46985      8.82060      9.23493         0.000001     -0.001081     -1.526748
      6.46985      8.82060     11.76529         0.000004     -0.002321     -0.147817
      4.50011      7.35050     10.50011         0.478755     -0.000274      0.059065
      8.43960      7.35050     10.50011        -0.478727     -0.000334      0.059043
      3.23493      8.82060     12.46985        -0.000246     -0.002584     -0.080259
      3.23493      8.82060     15.00021         0.000612     -0.001050      0.047388
      7.73503      7.35050     13.73503        -0.487287     -0.012119      0.093041
      5.20467      7.35050     13.73503         0.487232     -0.012132      0.093057
      6.46985      8.81545     15.71785         0.000010     -0.015073      0.019490
      6.46985      8.82662     18.24533        -0.000010      0.004655     -0.020260
      4.52556      7.35049     16.98996         0.028909     -0.003913      0.001550
      8.41414      7.35049     16.98996        -0.028887     -0.003896      0.001509
      3.22725      8.82335     18.94658         0.008014      0.005411     -0.026805
      3.24184      8.81965     21.49299        -0.015360      0.043996     -0.051563
      7.68490      7.36358     20.36221        -0.106606     -0.178087      0.090281
      5.25479      7.36358     20.36221         0.106621     -0.178101      0.090295
      3.23493      0.00000      6.00000         0.000002      0.000051      2.226642
      3.23493      0.00000      8.53036        -0.000113     -0.000091      2.011141
      7.73503     10.29069      7.26518        -2.149448     -0.000075     -0.834717
      5.20467     10.29069      7.26518         2.149456     -0.000114     -0.834721
      6.46985      0.00000      9.23493         0.000002      0.000082     -1.527455
      6.46985      0.00000     11.76529        -0.000021      0.000193     -0.152036
      4.50011     10.29069     10.50011         0.477742     -0.000476      0.058815
      8.43960     10.29069     10.50011        -0.477668     -0.000468      0.058809
      3.23493      0.00000     12.46985         0.000014     -0.002846     -0.083895
      3.23493      0.00000     15.00021        -0.001323      0.000528      0.039441
      7.73503     10.29069     13.73503        -0.486601     -0.004428      0.096908
      5.20467     10.29069     13.73503         0.486611     -0.004395      0.096849
      6.46985      0.00092     15.71404        -0.000008      0.007673      0.007138
      6.46985      0.00140     18.24731        -0.000007      0.003855     -0.002340
      4.52636     10.29151     16.98539         0.010548      0.000201     -0.003509
      8.41334     10.29151     16.98538        -0.010534      0.000187     -0.003513
      3.23286      0.00134     18.94903         0.003299      0.007504     -0.018416
      3.23347      0.00171     21.49476         0.008941      0.013651     -0.006033
      7.68400     10.29637     20.37353        -0.021004      0.012872      0.020514
      5.25570     10.29637     20.37352         0.020959      0.012853      0.020482
      3.23493      2.94020      6.00000         0.000044      0.000177      2.226594
      3.23493      2.94020      8.53036        -0.000051      0.000167      2.011044
      7.73503      1.47010      7.26518        -2.149627      0.000049     -0.834726
      5.20467      1.47010      7.26518         2.149491      0.000136     -0.834719
      6.46985      2.94020      9.23493         0.000000      0.001151     -1.526422
      6.46985      2.94020     11.76529        -0.000010      0.002609     -0.144316
      4.50011      1.47010     10.50011         0.478009      0.000210      0.058776
      8.43960      1.47010     10.50011        -0.478029      0.000192      0.058723
      3.23493      2.94020     12.46985        -0.000201      0.002832     -0.084571
      3.23493      2.94020     15.00021         0.001032      0.005201      0.045289
      7.73503      1.47010     13.73503        -0.490108      0.006617      0.096530
      5.20467      1.47010     13.73503         0.490127      0.006629      0.096503
      6.46985      2.94636     15.71880        -0.000001      0.014327      0.016871
      6.46985      2.93467     18.24817         0.000002      0.010517      0.043608
      4.52630      1.47090     16.98583         0.012585      0.004650     -0.001055
      8.41340      1.47090     16.98582        -0.012592      0.004611     -0.001090
      3.22758      2.94015     18.94841         0.013859      0.001108     -0.009328
      3.23673      2.94327     21.49427         0.014544      0.003743     -0.010213
      7.68354      1.46969     20.38024        -0.033542      0.031769     -0.003457
      5.25615      1.46969     20.38024         0.033523      0.031763     -0.003446
      3.23493      5.88040      6.00000         0.000010     -0.000067      2.226801
      3.23493      5.88040      8.53036        -0.000036     -0.000005      2.011808
      7.73503      4.41030      7.26518        -2.149546      0.000214     -0.834705
      5.20467      4.41030      7.26518         2.149508      0.000288     -0.834611
      6.46985      5.88040      9.23493        -0.000018     -0.000109     -1.525449
      6.46985      5.88040     11.76529        -0.000003     -0.000029     -0.129339
      4.50011      4.41030     10.50011         0.479033      0.000691      0.059005
      8.43960      4.41030     10.50011        -0.479032      0.000698      0.058980
      3.23493      5.88040     12.46985        -0.000733      0.003133     -0.081202
      3.23493      5.88040     15.00021         0.001812      0.002802      0.048916
      7.73503      4.41030     13.73503        -0.490405      0.011965      0.092551
      5.20467      4.41030     13.73503         0.490510      0.011957      0.092504
      6.46985      5.88022     15.72265         0.000001     -0.005745      0.026593
      6.46985      5.88117     18.26787        -0.000001     -0.025865      0.178269
      4.52574      4.41161     16.99115         0.029548     -0.000779      0.003326
      8.41396      4.41161     16.99114        -0.029545     -0.000800      0.003316
      3.22218      5.88187     18.94708         0.012698     -0.014247     -0.026801
      3.25259      5.88587     21.49202        -0.004576     -0.066957     -0.062572
      7.68763      4.40065     20.35525        -0.083146      0.101388      0.165431
      5.25206      4.40065     20.35525         0.083099      0.101399      0.165436
 -----------------------------------------------------------------------------------
    total drift:                               -0.000228     -0.003199     -0.048439


--------------------------------------------------------------------------------------------------------



  FREE ENERGIE OF THE ION-ELECTRON SYSTEM (eV)
  ---------------------------------------------------
  free  energy   TOTEN  =     -2618.47511209 eV

  energy  without entropy=    -2618.47511209  energy(sigma->0) =    -2618.47511209



--------------------------------------------------------------------------------------------------------


    POTLOK:  cpu time      2.4175: real time      2.4182


--------------------------------------------------------------------------------------------------------


     LOOP+:  cpu time   6270.9223: real time   6274.9851
    4ORBIT:  cpu time      0.0000: real time      0.0000

 total amount of memory used by VASP MPI-rank0   464119. kBytes
=======================================================================

   base      :      30000. kBytes
   nonl-proj :     135168. kBytes
   fftplans  :      11790. kBytes
   grid      :      10604. kBytes
   one-center:        648. kBytes
   HF        :         90. kBytes
   nonlr-proj:      61893. kBytes
   wavefun   :      16662. kBytes
   fock_wrk  :     197264. kBytes

  
  
 General timing and accounting informations for this job:
 ========================================================
  
                  Total CPU time used (sec):     6376.126
                            User time (sec):     6351.585
                          System time (sec):       24.541
                         Elapsed time (sec):     6409.249
  
                   Maximum memory used (kb):      990000.
                   Average memory used (kb):          N/A
  
                          Minor page faults:       582003
                          Major page faults:         1202
                 Voluntary context switches:        23256
