 vasp.6.3.0 20Jan22 (build Aug 21 2024 11:13:42) complex                         
 executed on        HPECrayEX_GCC date 2024.11.27  21:12:12
 running  512 mpi-ranks, with    1 threads/rank
 distrk:  each k-point on  512 cores,    1 groups
 distr:  one band on NCORE=  16 cores,   32 groups


--------------------------------------------------------------------------------------------------------


 INCAR:
   SYSTEM = TiO2
   ISMEAR = 0
   SIGMA = 0.05
   EDIFF = 1E-4
   ALGO = Normal
   IBRION = -1
   NSW = 0
   ISYM = 0
   ISIF = 2
   EDIFFG = -0.01
   DIPOL = 0.5 0.5 0.5
   IDIPOL = 3
   LDIPOL = .TRUE.
   LHFCALC = .TRUE.
   HFSCREEN = 0.2
   GGA = PE
   IVDW = 13
   VDW_S8 = 1.19528249
   VDW_A1 = 0.38663183
   VDW_A2 = 5.19133469
   ENCUT = 520
   PREC = Normal
   PRECFOCK = Fast
   LASPH = .TRUE.
   LREAL = .FALSE.
   ISPIN = 1
   NKREDX = 2
   NKREDY = 2
   NELM = 200
   NELMIN = 8
   NCORE = 16
   KPAR = 1
   LWAVE = .FALSE.
   LCHARG = .FALSE.

 POTCAR:    PAW_PBE H 15Jun2001                   
 POTCAR:    PAW_PBE O 08Apr2002                   
 POTCAR:    PAW_PBE Ti 08Apr2002                  
 POTCAR:    PAW_PBE O 08Apr2002                   
 POTCAR:    PAW_PBE H 15Jun2001                   
   SHA256 =  030f79b5d3ab3cf0e668861823c8fb652ff669f3e15e46930bd03bfd63a607b6 H/POTCAR              
   COPYR  = (c) Copyright 15Jun2001 Georg Kresse                                                    
   COPYR  = This file is part of the software VASP. Any use, copying, and all other rights are regul
   COPYR  = If you do not have a valid VASP license, you may not use, copy or distribute this file. 
   VRHFIN =H: ultrasoft test                                                                        
   LEXCH  = PE                                                                                      
   EATOM  =    12.4884 eV,    0.9179 Ry                                                             
                                                                                                    
   TITEL  = PAW_PBE H 15Jun2001                                                                     
   LULTRA =        F    use ultrasoft PP ?                                                          
   IUNSCR =        0    unscreen: 0-lin 1-nonlin 2-no                                               
   RPACOR =    0.000    partial core radius                                                         
   POMASS =    1.000; ZVAL   =    1.000    mass and valenz                                          
   RCORE  =    1.100    outmost cutoff radius                                                       
   RWIGS  =    0.700; RWIGS  =    0.370    wigner-seitz radius (au A)                               
   ENMAX  =  250.000; ENMIN  =  200.000 eV                                                          
   RCLOC  =    0.701    cutoff for local pot                                                        
   LCOR   =        T    correct aug charges                                                         
   LPAW   =        T    paw PP                                                                      
   EAUG   =  400.000                                                                                
   RMAX   =    1.123    core radius for proj-oper                                                   
   RAUG   =    1.200    factor for augmentation sphere                                              
   RDEP   =    1.112    radius for radial grids                                                     
   RDEPT  =    0.926    core radius for aug-charge                                                  
                                                                                                    
   Atomic configuration                                                                             
    2 entries                                                                                       
     n  l   j            E        occ.                                                              
     1  0  0.50        -6.4927   1.0000                                                             
     2  1  0.50        -3.4015   0.0000                                                             
   Description                                                                                      
     l       E           TYP  RCUT    TYP  RCUT                                                     
     0     -6.4927494     23  1.100                                                                 
     0      6.8029130     23  1.100                                                                 
     1     -4.0817478     23  1.100                                                                 
  local pseudopotential read in
  atomic valenz-charges read in
  non local Contribution for L=           0  read in
    real space projection operators read in
  non local Contribution for L=           0  read in
    real space projection operators read in
  non local Contribution for L=           1  read in
    real space projection operators read in
    PAW grid and wavefunctions read in

   number of l-projection  operators is LMAX  =           3
   number of lm-projection operators is LMMAX =           5

 POTCAR:    PAW_PBE O 08Apr2002                   
   SHA256 =  818f92134a0a090dccd8ba1447fa70422a3b330e708bb4f08108d8ae51209ddf O/POTCAR              
   COPYR  = (c) Copyright 08Apr2002 Georg Kresse                                                    
   COPYR  = This file is part of the software VASP. Any use, copying, and all other rights are regul
   COPYR  = If you do not have a valid VASP license, you may not use, copy or distribute this file. 
   VRHFIN =O: s2p4                                                                                  
   LEXCH  = PE                                                                                      
   EATOM  =   432.3788 eV,   31.7789 Ry                                                             
                                                                                                    
   TITEL  = PAW_PBE O 08Apr2002                                                                     
   LULTRA =        F    use ultrasoft PP ?                                                          
   IUNSCR =        1    unscreen: 0-lin 1-nonlin 2-no                                               
   RPACOR =    1.200    partial core radius                                                         
   POMASS =   16.000; ZVAL   =    6.000    mass and valenz                                          
   RCORE  =    1.520    outmost cutoff radius                                                       
   RWIGS  =    1.550; RWIGS  =    0.820    wigner-seitz radius (au A)                               
   ENMAX  =  400.000; ENMIN  =  300.000 eV                                                          
   ICORE  =        2    local potential                                                             
   LCOR   =        T    correct aug charges                                                         
   LPAW   =        T    paw PP                                                                      
   EAUG   =  605.392                                                                                
   DEXC   =    0.000                                                                                
   RMAX   =    1.553    core radius for proj-oper                                                   
   RAUG   =    1.300    factor for augmentation sphere                                              
   RDEP   =    1.550    radius for radial grids                                                     
   RDEPT  =    1.329    core radius for aug-charge                                                  
                                                                                                    
   Atomic configuration                                                                             
    4 entries                                                                                       
     n  l   j            E        occ.                                                              
     1  0  0.50      -514.6923   2.0000                                                             
     2  0  0.50       -23.9615   2.0000                                                             
     2  1  0.50        -9.0305   4.0000                                                             
     3  2  1.50        -9.5241   0.0000                                                             
   Description                                                                                      
     l       E           TYP  RCUT    TYP  RCUT                                                     
     0    -23.9615318     23  1.200                                                                 
     0     -9.5240782     23  1.200                                                                 
     1     -9.0304911     23  1.520                                                                 
     1      8.1634956     23  1.520                                                                 
     2     -9.5240782      7  1.500                                                                 
  local pseudopotential read in
  partial core-charges read in
  partial kinetic energy density read in
  kinetic energy density of atom read in
  atomic valenz-charges read in
  non local Contribution for L=           0  read in
    real space projection operators read in
  non local Contribution for L=           0  read in
    real space projection operators read in
  non local Contribution for L=           1  read in
    real space projection operators read in
  non local Contribution for L=           1  read in
    real space projection operators read in
    PAW grid and wavefunctions read in

   number of l-projection  operators is LMAX  =           4
   number of lm-projection operators is LMMAX =           8

 POTCAR:    PAW_PBE Ti 08Apr2002                  
   SHA256 =  f8e8f1d080d9e9b45e792f1068744b07aba8441d1e7ce11486a5d4c0f5a1479e Ti/POTCAR             
   COPYR  = (c) Copyright 08Apr2002 Georg Kresse                                                    
   COPYR  = This file is part of the software VASP. Any use, copying, and all other rights are regul
   COPYR  = If you do not have a valid VASP license, you may not use, copy or distribute this file. 
   VRHFIN =Ti: d3 s1                                                                                
   LEXCH  = PE                                                                                      
   EATOM  =    94.7928 eV,    6.9671 Ry                                                             
                                                                                                    
   TITEL  = PAW_PBE Ti 08Apr2002                                                                    
   LULTRA =        F    use ultrasoft PP ?                                                          
   IUNSCR =        1    unscreen: 0-lin 1-nonlin 2-no                                               
   RPACOR =    2.200    partial core radius                                                         
   POMASS =   47.880; ZVAL   =    4.000    mass and valenz                                          
   RCORE  =    2.800    outmost cutoff radius                                                       
   RWIGS  =    2.500; RWIGS  =    1.323    wigner-seitz radius (au A)                               
   ENMAX  =  178.330; ENMIN  =  133.747 eV                                                          
   RCLOC  =    2.215    cutoff for local pot                                                        
   LCOR   =        T    correct aug charges                                                         
   LPAW   =        T    paw PP                                                                      
   EAUG   =  328.883                                                                                
   DEXC   =    0.000                                                                                
   RMAX   =    2.868    core radius for proj-oper                                                   
   RAUG   =    1.300    factor for augmentation sphere                                              
   RDEP   =    2.885    radius for radial grids                                                     
   RDEPT  =    2.320    core radius for aug-charge                                                  
                                                                                                    
   Atomic configuration                                                                             
    9 entries                                                                                       
     n  l   j            E        occ.                                                              
     1  0  0.50     -4865.3608   2.0000                                                             
     2  0  0.50      -533.1367   2.0000                                                             
     2  1  1.50      -440.5031   6.0000                                                             
     3  0  0.50       -59.3186   2.0000                                                             
     3  1  1.50       -35.7012   6.0000                                                             
     3  2  2.50        -1.9157   3.0000                                                             
     4  0  0.50        -3.7291   1.0000                                                             
     4  1  1.50        -4.0817   0.0000                                                             
     4  3  2.50        -1.3606   0.0000                                                             
   Description                                                                                      
     l       E           TYP  RCUT    TYP  RCUT                                                     
     2     -1.9156924     23  2.800                                                                 
     2     -0.4062961     23  2.800                                                                 
     0     -3.7290832     23  2.800                                                                 
     0     20.4087390     23  2.800                                                                 
     1     -5.4423304     23  2.800                                                                 
  local pseudopotential read in
  partial core-charges read in
  partial kinetic energy density read in
  atomic valenz-charges read in
  non local Contribution for L=           2  read in
    real space projection operators read in
  non local Contribution for L=           2  read in
    real space projection operators read in
  non local Contribution for L=           0  read in
    real space projection operators read in
  non local Contribution for L=           0  read in
    real space projection operators read in
  non local Contribution for L=           1  read in
    real space projection operators read in
    PAW grid and wavefunctions read in

   number of l-projection  operators is LMAX  =           5
   number of lm-projection operators is LMMAX =          15

 POTCAR:    PAW_PBE O 08Apr2002                   
   SHA256 =  818f92134a0a090dccd8ba1447fa70422a3b330e708bb4f08108d8ae51209ddf O/POTCAR              
   COPYR  = (c) Copyright 08Apr2002 Georg Kresse                                                    
   COPYR  = This file is part of the software VASP. Any use, copying, and all other rights are regul
   COPYR  = If you do not have a valid VASP license, you may not use, copy or distribute this file. 
   VRHFIN =O: s2p4                                                                                  
   LEXCH  = PE                                                                                      
   EATOM  =   432.3788 eV,   31.7789 Ry                                                             
                                                                                                    
   TITEL  = PAW_PBE O 08Apr2002                                                                     
   LULTRA =        F    use ultrasoft PP ?                                                          
   IUNSCR =        1    unscreen: 0-lin 1-nonlin 2-no                                               
   RPACOR =    1.200    partial core radius                                                         
   POMASS =   16.000; ZVAL   =    6.000    mass and valenz                                          
   RCORE  =    1.520    outmost cutoff radius                                                       
   RWIGS  =    1.550; RWIGS  =    0.820    wigner-seitz radius (au A)                               
   ENMAX  =  400.000; ENMIN  =  300.000 eV                                                          
   ICORE  =        2    local potential                                                             
   LCOR   =        T    correct aug charges                                                         
   LPAW   =        T    paw PP                                                                      
   EAUG   =  605.392                                                                                
   DEXC   =    0.000                                                                                
   RMAX   =    1.553    core radius for proj-oper                                                   
   RAUG   =    1.300    factor for augmentation sphere                                              
   RDEP   =    1.550    radius for radial grids                                                     
   RDEPT  =    1.329    core radius for aug-charge                                                  
                                                                                                    
   Atomic configuration                                                                             
    4 entries                                                                                       
     n  l   j            E        occ.                                                              
     1  0  0.50      -514.6923   2.0000                                                             
     2  0  0.50       -23.9615   2.0000                                                             
     2  1  0.50        -9.0305   4.0000                                                             
     3  2  1.50        -9.5241   0.0000                                                             
   Description                                                                                      
     l       E           TYP  RCUT    TYP  RCUT                                                     
     0    -23.9615318     23  1.200                                                                 
     0     -9.5240782     23  1.200                                                                 
     1     -9.0304911     23  1.520                                                                 
     1      8.1634956     23  1.520                                                                 
     2     -9.5240782      7  1.500                                                                 
  local pseudopotential read in
  partial core-charges read in
  partial kinetic energy density read in
  kinetic energy density of atom read in
  atomic valenz-charges read in
  non local Contribution for L=           0  read in
    real space projection operators read in
  non local Contribution for L=           0  read in
    real space projection operators read in
  non local Contribution for L=           1  read in
    real space projection operators read in
  non local Contribution for L=           1  read in
    real space projection operators read in
    PAW grid and wavefunctions read in

   number of l-projection  operators is LMAX  =           4
   number of lm-projection operators is LMMAX =           8

 -----------------------------------------------------------------------------
|                                                                             |
|               ----> ADVICE to this user running VASP <----                  |
|                                                                             |
|     You have a (more or less) 'large supercell' and for larger cells it     |
|     might be more efficient to use real-space projection operators.         |
|     Therefore, try LREAL= Auto in the INCAR file.                           |
|     Mind: For very accurate calculation, you might also keep the            |
|     reciprocal projection scheme (i.e. LREAL=.FALSE.).                      |
|                                                                             |
 -----------------------------------------------------------------------------

  PAW_PBE H 15Jun2001                   :
 energy of atom  1       EATOM=  -12.4884
 kinetic energy error for atom=    0.0014 (will be added to EATOM!!)
  PAW_PBE O 08Apr2002                   :
 energy of atom  2       EATOM= -432.3788
 kinetic energy error for atom=    0.0208 (will be added to EATOM!!)
  PAW_PBE Ti 08Apr2002                  :
 energy of atom  3       EATOM=  -94.7928
 kinetic energy error for atom=    0.0002 (will be added to EATOM!!)
  PAW_PBE O 08Apr2002                   :
 energy of atom  4       EATOM= -432.3788
 kinetic energy error for atom=    0.0208 (will be added to EATOM!!)


 POSCAR:  H  O Ti  O
  positions in direct lattice
  No initial velocities read in
 WARNING: Using user supplied parameters
     VDW_S8 = 1.195
     VDW_A1 = 0.387
     VDW_A2 = 5.191
     because the xc functional is not supported. Required parameters not
     defined in the INCAR file will be replaced with PBE defaults ones.

 exchange correlation table for  LEXCH =        8
   RHO(1)=    0.500       N(1)  =     2000
   RHO(2)=  100.500       N(2)  =     4000



--------------------------------------------------------------------------------------------------------


 ion  position               nearest neighbor table
   1  0.510  0.551  0.802-   3 0.98
   2  0.613  0.497  0.783-   3 1.00
   3  0.537  0.493  0.782-   1 0.98   2 1.00  83 2.19
   4  0.750  0.625  0.287-  84 1.96  85 1.96 144 1.96 145 1.96  87 1.99 166 1.99  14 2.96  34 2.96

   5  0.000  0.750  0.287-  86 1.96  87 1.96 106 1.96 107 1.96  88 1.99  35 2.96  15 2.96
   6  0.000  0.625  0.393-  88 1.96  89 1.96 148 1.96 149 1.96  90 1.99  91 1.99  16 2.96  36 2.96

   7  0.750  0.750  0.393-  90 1.96 110 1.96 171 1.96 191 1.96  92 1.99  85 1.99  17 2.96  37 2.96

   8  0.750  0.625  0.500-  92 1.96  93 1.96 152 1.96 153 1.96  95 1.99 174 1.99  18 2.96  38 2.96

   9  0.000  0.750  0.500-  94 1.96  95 1.96 114 1.96 115 1.96  89 1.99  96 2.01  19 2.96  39 2.96

  10  0.000  0.625  0.604-  96 1.90 156 1.90  99 1.95  98 1.96  97 2.02 157 2.02  20 2.96  40 2.96

  11  0.750  0.750  0.610- 100 1.88  98 1.97 179 1.98 199 1.98 118 1.98  93 2.10  21 2.96  41 2.96

  12  0.751  0.626  0.719- 101 1.83 161 1.87 182 2.02 103 2.03 100 2.08 160 2.09  22 2.95  42 2.99

  13  1.000  0.750  0.709-  97 1.82 122 1.94 123 1.95 102 1.95 103 1.96  23 2.96  43 2.96
  14  0.750  0.875  0.287-  84 1.96  85 1.96 104 1.96 105 1.96 107 1.99 186 1.99   4 2.96  24 2.96

  15  0.000  0.000  0.287- 106 1.96 107 1.96 126 1.96 127 1.96 108 1.99  25 2.96   5 2.96
  16  0.000  0.875  0.393-  88 1.96  89 1.96 108 1.96 109 1.96 110 1.99 111 1.99   6 2.96  26 2.96

  17  0.750  0.000  0.393- 110 1.96 130 1.96 191 1.96 211 1.96 112 1.99 105 1.99   7 2.96  27 2.96

  18  0.750  0.875  0.500-  92 1.96  93 1.96 112 1.96 113 1.96 115 1.99 194 1.99   8 2.96  28 2.96

  19  0.000  0.000  0.500- 114 1.96 115 1.96 134 1.96 135 1.96 109 1.99 116 2.01   9 2.96  29 2.96

  20  0.000  0.875  0.605-  96 1.90 116 1.90 119 1.95 118 1.96 117 2.02  97 2.02  30 2.96  10 2.96

  21  0.750  0.000  0.611- 120 1.88 138 1.97 219 1.98 118 1.98 199 1.98 113 2.11  31 2.96  11 2.96

  22  0.750  0.875  0.720- 121 1.83 101 1.84 202 2.03 123 2.04 120 2.09 100 2.09  12 2.95  32 2.95

  23  0.000  1.000  0.709- 117 1.82 123 1.95 142 1.95 143 1.95 122 1.95  13 2.96  33 2.96
  24  0.750  0.125  0.287- 104 1.96 105 1.96 124 1.96 125 1.96 127 1.99 206 1.99  14 2.96  34 2.96

  25  0.000  0.250  0.287- 126 1.96 127 1.96 146 1.96 147 1.96 128 1.99  35 2.96  15 2.96
  26  0.000  0.125  0.393- 108 1.96 109 1.96 128 1.96 129 1.96 130 1.99 131 1.99  16 2.96  36 2.96

  27  0.750  0.250  0.393- 130 1.96 150 1.96 211 1.96 231 1.96 132 1.99 125 1.99  17 2.96  37 2.96

  28  0.750  0.125  0.500- 112 1.96 113 1.96 132 1.96 133 1.96 135 1.99 214 1.99  18 2.96  38 2.96

  29  0.000  0.250  0.500- 134 1.96 135 1.96 154 1.96 155 1.96 129 1.99 136 2.01  19 2.96  39 2.96

  30  0.000  0.125  0.605- 136 1.90 116 1.90 139 1.95 138 1.97 117 2.02 137 2.02  20 2.96  40 2.96

  31  0.750  0.250  0.610- 140 1.88 219 1.97 138 1.98 158 1.98 239 1.98 133 2.10  21 2.96  41 2.96

  32  0.749  0.124  0.720- 121 1.83 141 1.84 222 2.03 143 2.04 120 2.09 140 2.10  42 2.95  22 2.95

  33  1.000  0.250  0.709- 137 1.82 142 1.94 143 1.95 162 1.95 163 1.96  23 2.96  43 2.97
  34  0.750  0.375  0.287- 124 1.96 125 1.96 144 1.96 145 1.96 147 1.99 226 1.99   4 2.96  24 2.96

  35  0.000  0.500  0.287-  86 1.96  87 1.96 146 1.96 147 1.96 148 1.99  25 2.96   5 2.96
  36  0.000  0.375  0.393- 128 1.96 129 1.96 148 1.96 149 1.96 150 1.99 151 1.99   6 2.96  26 2.96

  37  0.750  0.500  0.393-  90 1.96 150 1.96 171 1.96 231 1.96 145 1.99 152 1.99   7 2.96  27 2.96

  38  0.750  0.375  0.500- 132 1.96 133 1.96 152 1.96 153 1.96 155 1.99 234 1.99   8 2.96  28 2.96

  39  0.000  0.500  0.500-  94 1.96  95 1.96 154 1.96 155 1.96 149 1.99 156 2.01   9 2.96  29 2.96

  40  0.000  0.375  0.604- 156 1.90 136 1.90 159 1.95 158 1.96 137 2.02 157 2.02  30 2.96  10 2.96

  41  0.751  0.500  0.611- 160 1.87 158 1.97  98 1.97 239 1.98 179 1.98 153 2.10  11 2.96  31 2.96

  42  0.751  0.374  0.719- 141 1.83 161 1.87 163 2.02 242 2.03 140 2.07 160 2.09  32 2.95  12 2.99

  43  0.001  0.500  0.709- 157 1.82 162 1.95 102 1.95 103 1.95 163 1.95  13 2.96  33 2.97
  44  0.250  0.625  0.287- 164 1.96 165 1.96 224 1.96 225 1.96  86 1.99 167 1.99  54 2.96  74 2.96

  45  0.500  0.750  0.287- 166 1.96 167 1.96 186 1.96 187 1.96 168 1.99  75 2.96  55 2.96
  46  0.500  0.625  0.393- 168 1.96 169 1.96 228 1.96 229 1.96 170 1.99 171 1.99  56 2.96  76 2.96

  47  0.250  0.750  0.393-  91 1.96 111 1.96 170 1.96 190 1.96 172 1.99 165 1.99  57 2.96  77 2.96

  48  0.250  0.625  0.500- 172 1.96 173 1.96 232 1.96 233 1.96  94 1.99 175 1.99  58 2.96  78 2.96

  49  0.500  0.750  0.500- 174 1.96 175 1.96 194 1.96 195 1.96 169 1.99 176 2.00  59 2.96  79 2.96

  50  0.500  0.623  0.606- 236 1.90 176 1.94 179 1.96 178 1.97 237 1.99 177 2.01  80 2.91  60 2.98

  51  0.250  0.750  0.611- 180 1.88 178 1.97 198 1.97  99 1.98 119 1.98 173 2.11  81 2.96  61 2.96

  52  0.250  0.625  0.720- 181 1.83 241 1.84 102 2.04 183 2.05 180 2.09 240 2.09  62 2.96  82 2.96

  53  0.501  0.750  0.708- 177 1.81 182 1.91 202 1.95 183 1.95 203 1.97  63 2.96  83 2.98
  54  0.250  0.875  0.287- 164 1.96 165 1.96 184 1.96 185 1.96 106 1.99 187 1.99  44 2.96  64 2.96

  55  0.500  0.000  0.287- 186 1.96 187 1.96 206 1.96 207 1.96 188 1.99  65 2.96  45 2.96
  56  0.500  0.875  0.393- 168 1.96 169 1.96 188 1.96 189 1.96 190 1.99 191 1.99  46 2.96  66 2.96

  57  0.250  0.000  0.393- 111 1.96 131 1.96 190 1.96 210 1.96 192 1.99 185 1.99  47 2.96  67 2.96

  58  0.250  0.875  0.500- 172 1.96 173 1.96 192 1.96 193 1.96 114 1.99 195 1.99  48 2.96  68 2.96

  59  0.500  0.000  0.500- 194 1.96 195 1.96 214 1.96 215 1.96 189 1.99 196 1.99  49 2.96  69 2.96

  60  0.500  0.874  0.603- 176 1.89 196 1.90 199 1.96 198 1.97 177 2.00 197 2.03  50 2.98  70 2.98

  61  0.250  1.000  0.611- 200 1.87 198 1.97 218 1.97 119 1.98 139 1.98 193 2.11  51 2.96  71 2.97

  62  0.251  0.875  0.720- 201 1.83 181 1.84 203 2.03 122 2.05 200 2.10 180 2.10  72 2.96  52 2.96

  63  0.499  1.000  0.708- 197 1.81 203 1.94 223 1.94 222 1.96 202 1.96  73 2.96  53 2.96
  64  0.250  0.125  0.287- 184 1.96 185 1.96 204 1.96 205 1.96 126 1.99 207 1.99  54 2.96  74 2.96

  65  0.500  0.250  0.287- 206 1.96 207 1.96 226 1.96 227 1.96 208 1.99  75 2.96  55 2.96
  66  0.500  0.125  0.393- 188 1.96 189 1.96 208 1.96 209 1.96 210 1.99 211 1.99  56 2.96  76 2.96

  67  0.250  0.250  0.393- 131 1.96 151 1.96 210 1.96 230 1.96 212 1.99 205 1.99  57 2.96  77 2.96

  68  0.250  0.125  0.500- 192 1.96 193 1.96 212 1.96 213 1.96 134 1.99 215 1.99  58 2.96  78 2.96

  69  0.500  0.250  0.500- 214 1.96 215 1.96 234 1.96 235 1.96 209 1.99 216 2.00  59 2.96  79 2.96

  70  0.500  0.126  0.604- 216 1.89 196 1.90 218 1.96 219 1.97 217 2.00 197 2.03  80 2.98  60 2.98

  71  0.250  0.250  0.611- 220 1.87 238 1.97 218 1.98 159 1.98 139 1.98 213 2.11  81 2.96  61 2.97

  72  0.251  0.125  0.720- 201 1.83 221 1.84 223 2.03 142 2.05 220 2.10 200 2.10  62 2.96  82 2.96

  73  0.500  0.250  0.708- 217 1.81 242 1.92 243 1.94 222 1.95 223 1.96  63 2.96  83 2.96
  74  0.250  0.375  0.287- 204 1.96 205 1.96 224 1.96 225 1.96 146 1.99 227 1.99  44 2.96  64 2.96

  75  0.500  0.500  0.287- 166 1.96 167 1.96 226 1.96 227 1.96 228 1.99  65 2.96  45 2.96
  76  0.500  0.375  0.393- 208 1.96 209 1.96 228 1.96 229 1.96 230 1.99 231 1.99  46 2.96  66 2.96

  77  0.250  0.500  0.393-  91 1.96 151 1.96 170 1.96 230 1.96 225 1.99 232 1.99  47 2.96  67 2.96

  78  0.250  0.375  0.500- 212 1.96 213 1.96 232 1.96 233 1.96 154 1.99 235 1.99  48 2.96  68 2.96

  79  0.500  0.500  0.500- 174 1.96 175 1.96 234 1.96 235 1.96 229 1.99 236 2.01  49 2.96  69 2.96

  80  0.500  0.377  0.606- 236 1.90 216 1.94 239 1.96 238 1.97 237 1.99 217 2.01  50 2.91  70 2.98

  81  0.250  0.500  0.611- 240 1.87 178 1.97 238 1.97 159 1.98  99 1.98 233 2.11  51 2.96  71 2.96

  82  0.250  0.375  0.720- 221 1.83 241 1.84 162 2.04 243 2.04 220 2.10 240 2.10  72 2.96  52 2.96

  83  0.501  0.499  0.712- 237 1.91 243 1.94 183 1.95 242 1.96 182 1.99   3 2.19  73 2.96  53 2.98

  84  0.750  0.750  0.245-   4 1.96  14 1.96
  85  0.750  0.750  0.328-   4 1.96  14 1.96   7 1.99
  86  0.098  0.625  0.287-   5 1.96  35 1.96  44 1.99
  87  0.902  0.625  0.287-   5 1.96  35 1.96   4 1.99
  88  0.000  0.750  0.352-   6 1.96  16 1.96   5 1.99
  89  0.000  0.750  0.435-   6 1.96  16 1.96   9 1.99
  90  0.848  0.625  0.393-   7 1.96  37 1.96   6 1.99
  91  0.152  0.625  0.393-  47 1.96  77 1.96   6 1.99
  92  0.750  0.750  0.458-   8 1.96  18 1.96   7 1.99
  93  0.750  0.750  0.542-   8 1.96  18 1.96  11 2.10
  94  0.098  0.625  0.500-   9 1.96  39 1.96  48 1.99
  95  0.902  0.625  0.500-   9 1.96  39 1.96   8 1.99
  96  0.000  0.750  0.566-  20 1.90  10 1.90   9 2.01
  97  0.999  0.750  0.649-  13 1.82  10 2.02  20 2.02
  98  0.850  0.625  0.607-  10 1.96  41 1.97  11 1.97
  99  0.150  0.625  0.607-  10 1.95  51 1.98  81 1.98
 100  0.753  0.751  0.672-  11 1.88  12 2.08  22 2.09
 101  0.749  0.749  0.755-  12 1.83  22 1.84
 102  0.094  0.625  0.719-  43 1.95  13 1.95  52 2.04
 103  0.906  0.624  0.720-  43 1.95  13 1.96  12 2.03
 104  0.750  0.000  0.245-  14 1.96  24 1.96
 105  0.750  0.000  0.328-  14 1.96  24 1.96  17 1.99
 106  0.098  0.875  0.287-   5 1.96  15 1.96  54 1.99
 107  0.902  0.875  0.287-   5 1.96  15 1.96  14 1.99
 108  0.000  0.000  0.352-  16 1.96  26 1.96  15 1.99
 109  0.000  0.000  0.435-  16 1.96  26 1.96  19 1.99
 110  0.848  0.875  0.393-   7 1.96  17 1.96  16 1.99
 111  0.152  0.875  0.393-  47 1.96  57 1.96  16 1.99
 112  0.750  0.000  0.458-  18 1.96  28 1.96  17 1.99
 113  0.750  0.000  0.542-  18 1.96  28 1.96  21 2.11
 114  0.098  0.875  0.500-   9 1.96  19 1.96  58 1.99
 115  0.902  0.875  0.500-   9 1.96  19 1.96  18 1.99
 116  0.000  1.000  0.566-  30 1.90  20 1.90  19 2.01
 117  1.000  1.000  0.649-  23 1.82  20 2.02  30 2.02
 118  0.850  0.875  0.607-  20 1.96  21 1.98  11 1.98
 119  0.150  0.875  0.607-  20 1.95  61 1.98  51 1.98
 120  0.750  1.000  0.672-  21 1.88  32 2.09  22 2.09
 121  0.750  1.000  0.756-  32 1.83  22 1.83
 122  0.094  0.875  0.719-  13 1.94  23 1.95  62 2.05
 123  0.906  0.875  0.720-  13 1.95  23 1.95  22 2.04
 124  0.750  0.250  0.245-  24 1.96  34 1.96
 125  0.750  0.250  0.328-  24 1.96  34 1.96  27 1.99
 126  0.098  0.125  0.287-  15 1.96  25 1.96  64 1.99
 127  0.902  0.125  0.287-  15 1.96  25 1.96  24 1.99
 128  0.000  0.250  0.352-  26 1.96  36 1.96  25 1.99
 129  0.000  0.250  0.435-  26 1.96  36 1.96  29 1.99
 130  0.848  0.125  0.393-  17 1.96  27 1.96  26 1.99
 131  0.152  0.125  0.393-  57 1.96  67 1.96  26 1.99
 132  0.750  0.250  0.458-  28 1.96  38 1.96  27 1.99
 133  0.750  0.250  0.542-  28 1.96  38 1.96  31 2.10
 134  0.098  0.125  0.500-  19 1.96  29 1.96  68 1.99
 135  0.902  0.125  0.500-  19 1.96  29 1.96  28 1.99
 136  0.000  0.250  0.566-  30 1.90  40 1.90  29 2.01
 137  0.999  0.250  0.649-  33 1.82  40 2.02  30 2.02
 138  0.850  0.125  0.607-  30 1.97  21 1.97  31 1.98
 139  0.149  0.125  0.607-  30 1.95  61 1.98  71 1.98
 140  0.752  0.250  0.672-  31 1.88  42 2.07  32 2.10
 141  0.749  0.251  0.755-  42 1.83  32 1.84
 142  0.094  0.125  0.719-  33 1.94  23 1.95  72 2.05
 143  0.906  0.125  0.719-  33 1.95  23 1.95  32 2.04
 144  0.750  0.500  0.245-   4 1.96  34 1.96
 145  0.750  0.500  0.328-   4 1.96  34 1.96  37 1.99
 146  0.098  0.375  0.287-  25 1.96  35 1.96  74 1.99
 147  0.902  0.375  0.287-  25 1.96  35 1.96  34 1.99
 148  0.000  0.500  0.352-   6 1.96  36 1.96  35 1.99
 149  0.000  0.500  0.435-   6 1.96  36 1.96  39 1.99
 150  0.848  0.375  0.393-  27 1.96  37 1.96  36 1.99
 151  0.152  0.375  0.393-  67 1.96  77 1.96  36 1.99
 152  0.750  0.500  0.458-   8 1.96  38 1.96  37 1.99
 153  0.750  0.500  0.542-   8 1.96  38 1.96  41 2.10
 154  0.098  0.375  0.500-  29 1.96  39 1.96  78 1.99
 155  0.902  0.375  0.500-  29 1.96  39 1.96  38 1.99
 156  0.000  0.500  0.566-  40 1.90  10 1.90  39 2.01
 157  0.999  0.500  0.649-  43 1.82  10 2.02  40 2.02
 158  0.850  0.375  0.607-  40 1.96  41 1.97  31 1.98
 159  0.150  0.375  0.607-  40 1.95  71 1.98  81 1.98
 160  0.755  0.500  0.672-  41 1.87  12 2.09  42 2.09
 161  0.739  0.500  0.756-  12 1.87  42 1.87
 162  0.094  0.375  0.719-  43 1.95  33 1.95  82 2.04
 163  0.906  0.376  0.720-  43 1.95  33 1.96  42 2.02
 164  0.250  0.750  0.245-  44 1.96  54 1.96
 165  0.250  0.750  0.328-  44 1.96  54 1.96  47 1.99
 166  0.598  0.625  0.287-  45 1.96  75 1.96   4 1.99
 167  0.402  0.625  0.287-  45 1.96  75 1.96  44 1.99
 168  0.500  0.750  0.352-  46 1.96  56 1.96  45 1.99
 169  0.500  0.750  0.435-  46 1.96  56 1.96  49 1.99
 170  0.348  0.625  0.393-  47 1.96  77 1.96  46 1.99
 171  0.652  0.625  0.393-   7 1.96  37 1.96  46 1.99
 172  0.250  0.750  0.458-  48 1.96  58 1.96  47 1.99
 173  0.250  0.750  0.542-  48 1.96  58 1.96  51 2.11
 174  0.598  0.625  0.500-  49 1.96  79 1.96   8 1.99
 175  0.402  0.625  0.500-  49 1.96  79 1.96  48 1.99
 176  0.500  0.749  0.565-  60 1.89  50 1.94  49 2.00
 177  0.498  0.751  0.648-  53 1.81  60 2.00  50 2.01
 178  0.349  0.625  0.607-  51 1.97  81 1.97  50 1.97
 179  0.650  0.625  0.608-  50 1.96  11 1.98  41 1.98
 180  0.251  0.750  0.672-  51 1.88  52 2.09  62 2.10
 181  0.250  0.750  0.756-  52 1.83  62 1.84
 182  0.597  0.629  0.714-  53 1.91  83 1.99  12 2.02
 183  0.408  0.626  0.720-  83 1.95  53 1.95  52 2.05
 184  0.250  0.000  0.245-  54 1.96  64 1.96
 185  0.250  0.000  0.328-  54 1.96  64 1.96  57 1.99
 186  0.598  0.875  0.287-  45 1.96  55 1.96  14 1.99
 187  0.402  0.875  0.287-  45 1.96  55 1.96  54 1.99
 188  0.500  0.000  0.352-  56 1.96  66 1.96  55 1.99
 189  0.500  0.000  0.435-  56 1.96  66 1.96  59 1.99
 190  0.348  0.875  0.393-  47 1.96  57 1.96  56 1.99
 191  0.652  0.875  0.393-   7 1.96  17 1.96  56 1.99
 192  0.250  0.000  0.458-  58 1.96  68 1.96  57 1.99
 193  0.250  0.000  0.542-  58 1.96  68 1.96  61 2.11
 194  0.598  0.875  0.500-  49 1.96  59 1.96  18 1.99
 195  0.402  0.875  0.500-  49 1.96  59 1.96  58 1.99
 196  0.500  0.000  0.565-  60 1.90  70 1.90  59 1.99
 197  0.500  1.000  0.649-  63 1.81  60 2.03  70 2.03
 198  0.349  0.875  0.607-  60 1.97  61 1.97  51 1.97
 199  0.650  0.875  0.607-  60 1.96  11 1.98  21 1.98
 200  0.250  1.000  0.672-  61 1.87  62 2.10  72 2.10
 201  0.250  0.000  0.756-  62 1.83  72 1.83
 202  0.594  0.875  0.719-  53 1.95  63 1.96  22 2.03
 203  0.406  0.876  0.719-  63 1.94  53 1.97  62 2.03
 204  0.250  0.250  0.245-  64 1.96  74 1.96
 205  0.250  0.250  0.328-  64 1.96  74 1.96  67 1.99
 206  0.598  0.125  0.287-  55 1.96  65 1.96  24 1.99
 207  0.402  0.125  0.287-  55 1.96  65 1.96  64 1.99
 208  0.500  0.250  0.352-  66 1.96  76 1.96  65 1.99
 209  0.500  0.250  0.435-  66 1.96  76 1.96  69 1.99
 210  0.348  0.125  0.393-  57 1.96  67 1.96  66 1.99
 211  0.652  0.125  0.393-  17 1.96  27 1.96  66 1.99
 212  0.250  0.250  0.458-  68 1.96  78 1.96  67 1.99
 213  0.250  0.250  0.542-  68 1.96  78 1.96  71 2.11
 214  0.598  0.125  0.500-  59 1.96  69 1.96  28 1.99
 215  0.402  0.125  0.500-  59 1.96  69 1.96  68 1.99
 216  0.500  0.251  0.565-  70 1.89  80 1.94  69 2.00
 217  0.499  0.249  0.649-  73 1.81  70 2.00  80 2.01
 218  0.350  0.125  0.607-  70 1.96  61 1.97  71 1.98
 219  0.650  0.125  0.607-  70 1.97  31 1.97  21 1.98
 220  0.250  0.250  0.672-  71 1.87  72 2.10  82 2.10
 221  0.250  0.250  0.756-  82 1.83  72 1.84
 222  0.594  0.125  0.719-  73 1.95  63 1.96  32 2.03
 223  0.406  0.124  0.719-  63 1.94  73 1.96  72 2.03
 224  0.250  0.500  0.245-  44 1.96  74 1.96
 225  0.250  0.500  0.328-  44 1.96  74 1.96  77 1.99
 226  0.598  0.375  0.287-  65 1.96  75 1.96  34 1.99
 227  0.402  0.375  0.287-  65 1.96  75 1.96  74 1.99
 228  0.500  0.500  0.352-  46 1.96  76 1.96  75 1.99
 229  0.500  0.500  0.435-  46 1.96  76 1.96  79 1.99
 230  0.348  0.375  0.393-  67 1.96  77 1.96  76 1.99
 231  0.652  0.375  0.393-  27 1.96  37 1.96  76 1.99
 232  0.250  0.500  0.458-  48 1.96  78 1.96  77 1.99
 233  0.250  0.500  0.542-  48 1.96  78 1.96  81 2.11
 234  0.598  0.375  0.500-  69 1.96  79 1.96  38 1.99
 235  0.402  0.375  0.500-  69 1.96  79 1.96  78 1.99
 236  0.500  0.500  0.566-  50 1.90  80 1.90  79 2.01
 237  0.499  0.500  0.650-  83 1.91  50 1.99  80 1.99
 238  0.349  0.375  0.607-  71 1.97  81 1.97  80 1.97
 239  0.650  0.375  0.608-  80 1.96  31 1.98  41 1.98
 240  0.250  0.500  0.672-  81 1.87  52 2.09  82 2.10
 241  0.251  0.500  0.756-  82 1.84  52 1.84
 242  0.596  0.372  0.715-  73 1.92  83 1.96  42 2.03
 243  0.406  0.374  0.718-  83 1.94  73 1.94  82 2.04


IMPORTANT INFORMATION: All symmetrisations will be switched off!
NOSYMM: (Re-)initialisation of all symmetry stuff for point group C_1.


----------------------------------------------------------------------------------------

                                     Primitive cell                                     

  volume of cell :    4737.1735

  direct lattice vectors                    reciprocal lattice vectors
    13.061198858  0.000000000  0.000000000     0.076562650  0.000000000  0.000000000
     0.000000000 11.845266045  0.000000000     0.000000000  0.084421911  0.000000000
     0.000000000  0.000000000 30.619030317     0.000000000  0.000000000  0.032659427

  length of vectors
    13.061198858 11.845266045 30.619030317     0.076562650  0.084421911  0.032659427

  position of ions in fractional coordinates (direct lattice)
     0.509706508  0.550846622  0.801723411
     0.613399889  0.497049055  0.782830029
     0.536819371  0.492671430  0.782359263
     0.750000000  0.625000000  0.286714362
     0.000000000  0.750000000  0.286714362
     0.000000000  0.625000000  0.393357181
     0.750000000  0.750000000  0.393357181
     0.750000000  0.625000000  0.500000000
     0.000000000  0.750000000  0.500000000
     0.000436741  0.625054834  0.604472472
     0.750386817  0.750126797  0.610301398
     0.750778184  0.625893765  0.719283845
     0.999877768  0.750289182  0.708762741
     0.750000000  0.875000000  0.286714362
     0.000000000  0.000000000  0.286714362
     0.000000000  0.875000000  0.393357181
     0.750000000  0.000000000  0.393357181
     0.750000000  0.875000000  0.500000000
     0.000000000  0.000000000  0.500000000
     0.000111469  0.875025512  0.604522587
     0.749814054  0.000080575  0.610537837
     0.749646222  0.875112233  0.720200438
     0.000014971  0.999938576  0.708716497
     0.750000000  0.125000000  0.286714362
     0.000000000  0.250000000  0.286714362
     0.000000000  0.125000000  0.393357181
     0.750000000  0.250000000  0.393357181
     0.750000000  0.125000000  0.500000000
     0.000000000  0.250000000  0.500000000
     0.000327292  0.124950981  0.604512481
     0.750195349  0.249723959  0.610313370
     0.749486918  0.124409456  0.720225431
     0.999892439  0.249617705  0.708751743
     0.750000000  0.375000000  0.286714362
     0.000000000  0.500000000  0.286714362
     0.000000000  0.375000000  0.393357181
     0.750000000  0.500000000  0.393357181
     0.750000000  0.375000000  0.500000000
     0.000000000  0.500000000  0.500000000
     0.000270257  0.374976463  0.604466953
     0.750947056  0.499977761  0.610509390
     0.751252292  0.373592116  0.719401779
     0.000597591  0.500080229  0.708684882
     0.250000000  0.625000000  0.286714362
     0.500000000  0.750000000  0.286714362
     0.500000000  0.625000000  0.393357181
     0.250000000  0.750000000  0.393357181
     0.250000000  0.625000000  0.500000000
     0.500000000  0.750000000  0.500000000
     0.500466847  0.622767592  0.605654704
     0.250442071  0.749878821  0.610599403
     0.250288396  0.625199599  0.720347351
     0.500601204  0.750235065  0.707514527
     0.250000000  0.875000000  0.286714362
     0.500000000  0.000000000  0.286714362
     0.500000000  0.875000000  0.393357181
     0.250000000  0.000000000  0.393357181
     0.250000000  0.875000000  0.500000000
     0.500000000  0.000000000  0.500000000
     0.499890448  0.874081156  0.603497399
     0.249907022  0.999873647  0.610626976
     0.250848060  0.875098534  0.720300004
     0.499412198  0.999960128  0.707705538
     0.250000000  0.125000000  0.286714362
     0.500000000  0.250000000  0.286714362
     0.500000000  0.125000000  0.393357181
     0.250000000  0.250000000  0.393357181
     0.250000000  0.125000000  0.500000000
     0.500000000  0.250000000  0.500000000
     0.499542746  0.126009846  0.603597584
     0.250190437  0.250187507  0.610622561
     0.250623655  0.124967371  0.720263387
     0.500393167  0.249619962  0.707815254
     0.250000000  0.375000000  0.286714362
     0.500000000  0.500000000  0.286714362
     0.500000000  0.375000000  0.393357181
     0.250000000  0.500000000  0.393357181
     0.250000000  0.375000000  0.500000000
     0.500000000  0.500000000  0.500000000
     0.500436340  0.377122761  0.605825164
     0.250416016  0.500035537  0.610720507
     0.250092726  0.374903174  0.720258360
     0.500708632  0.499277172  0.712438604
     0.750000000  0.750000000  0.244945706
     0.750000000  0.750000000  0.328483017
     0.097917178  0.625000000  0.286714362
     0.902082822  0.625000000  0.286714362
     0.000000000  0.750000000  0.351588525
     0.000000000  0.750000000  0.435125836
     0.847917178  0.625000000  0.393357181
     0.152082822  0.625000000  0.393357181
     0.750000000  0.750000000  0.458231344
     0.750000000  0.750000000  0.541768656
     0.097917178  0.625000000  0.500000000
     0.902082822  0.625000000  0.500000000
     0.000087942  0.750111928  0.565528005
     0.999171990  0.749863272  0.649430568
     0.850203204  0.625243270  0.606711501
     0.149620819  0.625114875  0.607349911
     0.752996004  0.750607289  0.671659087
     0.748534262  0.749086609  0.755434216
     0.094088145  0.625076517  0.719201795
     0.906116082  0.624258907  0.720131686
     0.750000000  0.000000000  0.244945706
     0.750000000  0.000000000  0.328483017
     0.097917178  0.875000000  0.286714362
     0.902082822  0.875000000  0.286714362
     0.000000000  0.000000000  0.351588525
     0.000000000  0.000000000  0.435125836
     0.847917178  0.875000000  0.393357181
     0.152082822  0.875000000  0.393357181
     0.750000000  0.000000000  0.458231344
     0.750000000  0.000000000  0.541768656
     0.097917178  0.875000000  0.500000000
     0.902082822  0.875000000  0.500000000
     0.000060579  0.999984271  0.565524304
     0.999572731  0.999985830  0.649386034
     0.850028288  0.875436052  0.606981628
     0.149583025  0.874798582  0.607362713
     0.750242593  0.999951862  0.671934437
     0.749745299  0.999822639  0.755714227
     0.093905889  0.874572623  0.718932957
     0.906132776  0.875022614  0.719617531
     0.750000000  0.250000000  0.244945706
     0.750000000  0.250000000  0.328483017
     0.097917178  0.125000000  0.286714362
     0.902082822  0.125000000  0.286714362
     0.000000000  0.250000000  0.351588525
     0.000000000  0.250000000  0.435125836
     0.847917178  0.125000000  0.393357181
     0.152082822  0.125000000  0.393357181
     0.750000000  0.250000000  0.458231344
     0.750000000  0.250000000  0.541768656
     0.097917178  0.125000000  0.500000000
     0.902082822  0.125000000  0.500000000
     0.000035641  0.249903135  0.565533073
     0.999298488  0.250122006  0.649428910
     0.849959854  0.124676470  0.607066671
     0.149495892  0.125017861  0.607244153
     0.752437860  0.249740298  0.671727265
     0.748945369  0.250601504  0.755430056
     0.093744104  0.125323851  0.719110390
     0.906018328  0.124903000  0.719440585
     0.750000000  0.500000000  0.244945706
     0.750000000  0.500000000  0.328483017
     0.097917178  0.375000000  0.286714362
     0.902082822  0.375000000  0.286714362
     0.000000000  0.500000000  0.351588525
     0.000000000  0.500000000  0.435125836
     0.847917178  0.375000000  0.393357181
     0.152082822  0.375000000  0.393357181
     0.750000000  0.500000000  0.458231344
     0.750000000  0.500000000  0.541768656
     0.097917178  0.375000000  0.500000000
     0.902082822  0.375000000  0.500000000
     0.000199923  0.500008017  0.565519891
     0.999331151  0.500018177  0.649364218
     0.850199299  0.374715792  0.606743089
     0.149629848  0.375049639  0.607317842
     0.754791271  0.499993945  0.671583819
     0.739009301  0.499978621  0.755640044
     0.093982530  0.374969213  0.719132618
     0.906111790  0.375712291  0.720182725
     0.250000000  0.750000000  0.244945706
     0.250000000  0.750000000  0.328483017
     0.597917178  0.625000000  0.286714362
     0.402082822  0.625000000  0.286714362
     0.500000000  0.750000000  0.351588525
     0.500000000  0.750000000  0.435125836
     0.347917178  0.625000000  0.393357181
     0.652082822  0.625000000  0.393357181
     0.250000000  0.750000000  0.458231344
     0.250000000  0.750000000  0.541768656
     0.597917178  0.625000000  0.500000000
     0.402082822  0.625000000  0.500000000
     0.500179452  0.748828666  0.565342176
     0.497655117  0.751184468  0.648428387
     0.349393212  0.624968472  0.607098191
     0.650324506  0.625145792  0.607757274
     0.250864386  0.749609507  0.671883578
     0.250153099  0.750052767  0.755751804
     0.596549840  0.629363242  0.714362580
     0.407530594  0.625813234  0.720310878
     0.250000000  0.000000000  0.244945706
     0.250000000  0.000000000  0.328483017
     0.597917178  0.875000000  0.286714362
     0.402082822  0.875000000  0.286714362
     0.500000000  0.000000000  0.351588525
     0.500000000  0.000000000  0.435125836
     0.347917178  0.875000000  0.393357181
     0.652082822  0.875000000  0.393357181
     0.250000000  0.000000000  0.458231344
     0.250000000  0.000000000  0.541768656
     0.597917178  0.875000000  0.500000000
     0.402082822  0.875000000  0.500000000
     0.499967722  0.000073238  0.565042277
     0.499747800  0.999919580  0.648575889
     0.349478364  0.875238078  0.606830287
     0.650029744  0.874770084  0.607189294
     0.249623592  0.999976247  0.671764859
     0.249611668  0.000004978  0.755635258
     0.594108509  0.874877710  0.718514620
     0.405936091  0.875945366  0.718830600
     0.250000000  0.250000000  0.244945706
     0.250000000  0.250000000  0.328483017
     0.597917178  0.125000000  0.286714362
     0.402082822  0.125000000  0.286714362
     0.500000000  0.250000000  0.351588525
     0.500000000  0.250000000  0.435125836
     0.347917178  0.125000000  0.393357181
     0.652082822  0.125000000  0.393357181
     0.250000000  0.250000000  0.458231344
     0.250000000  0.250000000  0.541768656
     0.597917178  0.125000000  0.500000000
     0.402082822  0.125000000  0.500000000
     0.500076206  0.251283694  0.565436291
     0.498578844  0.248560863  0.648627245
     0.349542238  0.124847669  0.606929322
     0.650120872  0.125166775  0.607164787
     0.249676166  0.249886226  0.671779775
     0.250404678  0.250103210  0.755611237
     0.594112270  0.124727687  0.718584849
     0.405839475  0.124168496  0.718689406
     0.250000000  0.500000000  0.244945706
     0.250000000  0.500000000  0.328483017
     0.597917178  0.375000000  0.286714362
     0.402082822  0.375000000  0.286714362
     0.500000000  0.500000000  0.351588525
     0.500000000  0.500000000  0.435125836
     0.347917178  0.375000000  0.393357181
     0.652082822  0.375000000  0.393357181
     0.250000000  0.500000000  0.458231344
     0.250000000  0.500000000  0.541768656
     0.597917178  0.375000000  0.500000000
     0.402082822  0.375000000  0.500000000
     0.500166543  0.499817188  0.565701111
     0.498805016  0.500385534  0.649937461
     0.349433259  0.374932637  0.607332980
     0.650291201  0.374997096  0.607775438
     0.249991446  0.500438514  0.671914020
     0.251221241  0.499935740  0.755693254
     0.596208134  0.371503899  0.714771152
     0.406362467  0.373983088  0.718346087

  ion indices of the primitive-cell ions
   primitive index   ion index
                 1           1
                 2           2
                 3           3
                 4           4
                 5           5
                 6           6
                 7           7
                 8           8
                 9           9
                10          10
                11          11
                12          12
                13          13
                14          14
                15          15
                16          16
                17          17
                18          18
                19          19
                20          20
                21          21
                22          22
                23          23
                24          24
                25          25
                26          26
                27          27
                28          28
                29          29
                30          30
                31          31
                32          32
                33          33
                34          34
                35          35
                36          36
                37          37
                38          38
                39          39
                40          40
                41          41
                42          42
                43          43
                44          44
                45          45
                46          46
                47          47
                48          48
                49          49
                50          50
                51          51
                52          52
                53          53
                54          54
                55          55
                56          56
                57          57
                58          58
                59          59
                60          60
                61          61
                62          62
                63          63
                64          64
                65          65
                66          66
                67          67
                68          68
                69          69
                70          70
                71          71
                72          72
                73          73
                74          74
                75          75
                76          76
                77          77
                78          78
                79          79
                80          80
                81          81
                82          82
                83          83
                84          84
                85          85
                86          86
                87          87
                88          88
                89          89
                90          90
                91          91
                92          92
                93          93
                94          94
                95          95
                96          96
                97          97
                98          98
                99          99
               100         100
               101         101
               102         102
               103         103
               104         104
               105         105
               106         106
               107         107
               108         108
               109         109
               110         110
               111         111
               112         112
               113         113
               114         114
               115         115
               116         116
               117         117
               118         118
               119         119
               120         120
               121         121
               122         122
               123         123
               124         124
               125         125
               126         126
               127         127
               128         128
               129         129
               130         130
               131         131
               132         132
               133         133
               134         134
               135         135
               136         136
               137         137
               138         138
               139         139
               140         140
               141         141
               142         142
               143         143
               144         144
               145         145
               146         146
               147         147
               148         148
               149         149
               150         150
               151         151
               152         152
               153         153
               154         154
               155         155
               156         156
               157         157
               158         158
               159         159
               160         160
               161         161
               162         162
               163         163
               164         164
               165         165
               166         166
               167         167
               168         168
               169         169
               170         170
               171         171
               172         172
               173         173
               174         174
               175         175
               176         176
               177         177
               178         178
               179         179
               180         180
               181         181
               182         182
               183         183
               184         184
               185         185
               186         186
               187         187
               188         188
               189         189
               190         190
               191         191
               192         192
               193         193
               194         194
               195         195
               196         196
               197         197
               198         198
               199         199
               200         200
               201         201
               202         202
               203         203
               204         204
               205         205
               206         206
               207         207
               208         208
               209         209
               210         210
               211         211
               212         212
               213         213
               214         214
               215         215
               216         216
               217         217
               218         218
               219         219
               220         220
               221         221
               222         222
               223         223
               224         224
               225         225
               226         226
               227         227
               228         228
               229         229
               230         230
               231         231
               232         232
               233         233
               234         234
               235         235
               236         236
               237         237
               238         238
               239         239
               240         240
               241         241
               242         242
               243         243

----------------------------------------------------------------------------------------



 KPOINTS: pymatgen v2020.8.13 with grid density = 

Automatic generation of k-mesh.
 Grid dimensions read from file:
 generate k-points for:    2    2    1

 Generating k-lattice:

  Cartesian coordinates                     Fractional coordinates (reciprocal lattice)
     0.038281325  0.000000000  0.000000000     0.500000000  0.000000000  0.000000000
     0.000000000  0.042210956  0.000000000     0.000000000  0.500000000  0.000000000
     0.000000000  0.000000000  0.032659427     0.000000000  0.000000000  1.000000000

  Length of vectors
     0.038281325  0.042210956  0.032659427

  Shift w.r.t. Gamma in fractional coordinates (k-lattice)
     0.000000000  0.000000000  0.000000000

 
 Subroutine IBZKPT returns following result:
 ===========================================
 
 Found      4 irreducible k-points:
 
 Following reciprocal coordinates:
            Coordinates               Weight
  0.000000  0.000000  0.000000      1.000000
  0.500000  0.000000  0.000000      1.000000
  0.000000  0.500000  0.000000      1.000000
  0.500000  0.500000  0.000000      1.000000
 
 Following cartesian coordinates:
            Coordinates               Weight
  0.000000  0.000000  0.000000      1.000000
  0.038281  0.000000  0.000000      1.000000
  0.000000  0.042211  0.000000      1.000000
  0.038281  0.042211  0.000000      1.000000
 
 
 Subroutine IBZKPT_HF returns following result:
 ==============================================
 
 Found      4 k-points in 1st BZ
 the following      4 k-points will be used (e.g. in the exchange kernel)
 Following reciprocal coordinates:   # in IRBZ
  0.000000  0.000000  0.000000    0.25000000   1 t-inv F
  0.500000  0.000000  0.000000    0.25000000   2 t-inv F
  0.000000  0.500000  0.000000    0.25000000   3 t-inv F
  0.500000  0.500000  0.000000    0.25000000   4 t-inv F


--------------------------------------------------------------------------------------------------------




 Dimension of arrays:
   k-points           NKPTS =      4   k-points in BZ     NKDIM =      4   number of bands    NBANDS=    800
   number of dos      NEDOS =    301   number of ions     NIONS =    243
   non local maximal  LDIM  =      5   non local SUM 2l+1 LMDIM =     15
   total plane-waves  NPLWV = ******
   max r-space proj   IRMAX =      1   max aug-charges    IRDMAX=  14894
   dimension x,y,z NGX =    80 NGY =   70 NGZ =  180
   dimension x,y,z NGXF=   160 NGYF=  140 NGZF=  360
   support grid    NGXF=   160 NGYF=  140 NGZF=  360
   ions per type =               2   1  80 160
   NGX,Y,Z   is equivalent  to a cutoff of  10.18,  9.82,  9.77 a.u.
   NGXF,Y,Z  is equivalent  to a cutoff of  20.37, 19.65, 19.55 a.u.

 SYSTEM =  TiO2                                    
 POSCAR =   H  O Ti  O                             

    13.061198858 11.845266045 30.619030317     0.076562650  0.084421911  0.032659427



 old parameters found on file WAVECAR:
  energy-cutoff  :      520.00
  volume of cell :     4737.17
      direct lattice vectors                 reciprocal lattice vectors
    13.061198858  0.000000000  0.000000000     0.076562650  0.000000000  0.000000000
     0.000000000 11.845266045  0.000000000     0.000000000  0.084421911  0.000000000
     0.000000000  0.000000000 30.619030317     0.000000000  0.000000000  0.032659427

  length of vectors


 k-points in units of 2pi/SCALE and weight: pymatgen v2020.8.13 with grid density = 
   0.00000000  0.00000000  0.00000000       0.250
   0.03828133  0.00000000  0.00000000       0.250
   0.00000000  0.04221096  0.00000000       0.250
   0.03828133  0.04221096  0.00000000       0.250

 k-points in reciprocal lattice and weights: pymatgen v2020.8.13 with grid density = 
   0.00000000  0.00000000  0.00000000       0.250
   0.50000000  0.00000000  0.00000000       0.250
   0.00000000  0.50000000  0.00000000       0.250
   0.50000000  0.50000000  0.00000000       0.250

 position of ions in fractional coordinates (direct lattice) 
   0.50970651  0.55084662  0.80172341
   0.61339989  0.49704905  0.78283003
   0.53681937  0.49267143  0.78235926
   0.75000000  0.62500000  0.28671436
   0.00000000  0.75000000  0.28671436
   0.00000000  0.62500000  0.39335718
   0.75000000  0.75000000  0.39335718
   0.75000000  0.62500000  0.50000000
   0.00000000  0.75000000  0.50000000
   0.00043674  0.62505483  0.60447247
   0.75038682  0.75012680  0.61030140
   0.75077818  0.62589376  0.71928385
   0.99987777  0.75028918  0.70876274
   0.75000000  0.87500000  0.28671436
   0.00000000  0.00000000  0.28671436
   0.00000000  0.87500000  0.39335718
   0.75000000  0.00000000  0.39335718
   0.75000000  0.87500000  0.50000000
   0.00000000  0.00000000  0.50000000
   0.00011147  0.87502551  0.60452259
   0.74981405  0.00008057  0.61053784
   0.74964622  0.87511223  0.72020044
   0.00001497  0.99993858  0.70871650
   0.75000000  0.12500000  0.28671436
   0.00000000  0.25000000  0.28671436
   0.00000000  0.12500000  0.39335718
   0.75000000  0.25000000  0.39335718
   0.75000000  0.12500000  0.50000000
   0.00000000  0.25000000  0.50000000
   0.00032729  0.12495098  0.60451248
   0.75019535  0.24972396  0.61031337
   0.74948692  0.12440946  0.72022543
   0.99989244  0.24961771  0.70875174
   0.75000000  0.37500000  0.28671436
   0.00000000  0.50000000  0.28671436
   0.00000000  0.37500000  0.39335718
   0.75000000  0.50000000  0.39335718
   0.75000000  0.37500000  0.50000000
   0.00000000  0.50000000  0.50000000
   0.00027026  0.37497646  0.60446695
   0.75094706  0.49997776  0.61050939
   0.75125229  0.37359212  0.71940178
   0.00059759  0.50008023  0.70868488
   0.25000000  0.62500000  0.28671436
   0.50000000  0.75000000  0.28671436
   0.50000000  0.62500000  0.39335718
   0.25000000  0.75000000  0.39335718
   0.25000000  0.62500000  0.50000000
   0.50000000  0.75000000  0.50000000
   0.50046685  0.62276759  0.60565470
   0.25044207  0.74987882  0.61059940
   0.25028840  0.62519960  0.72034735
   0.50060120  0.75023507  0.70751453
   0.25000000  0.87500000  0.28671436
   0.50000000  0.00000000  0.28671436
   0.50000000  0.87500000  0.39335718
   0.25000000  0.00000000  0.39335718
   0.25000000  0.87500000  0.50000000
   0.50000000  0.00000000  0.50000000
   0.49989045  0.87408116  0.60349740
   0.24990702  0.99987365  0.61062698
   0.25084806  0.87509853  0.72030000
   0.49941220  0.99996013  0.70770554
   0.25000000  0.12500000  0.28671436
   0.50000000  0.25000000  0.28671436
   0.50000000  0.12500000  0.39335718
   0.25000000  0.25000000  0.39335718
   0.25000000  0.12500000  0.50000000
   0.50000000  0.25000000  0.50000000
   0.49954275  0.12600985  0.60359758
   0.25019044  0.25018751  0.61062256
   0.25062366  0.12496737  0.72026339
   0.50039317  0.24961996  0.70781525
   0.25000000  0.37500000  0.28671436
   0.50000000  0.50000000  0.28671436
   0.50000000  0.37500000  0.39335718
   0.25000000  0.50000000  0.39335718
   0.25000000  0.37500000  0.50000000
   0.50000000  0.50000000  0.50000000
   0.50043634  0.37712276  0.60582516
   0.25041602  0.50003554  0.61072051
   0.25009273  0.37490317  0.72025836
   0.50070863  0.49927717  0.71243860
   0.75000000  0.75000000  0.24494571
   0.75000000  0.75000000  0.32848302
   0.09791718  0.62500000  0.28671436
   0.90208282  0.62500000  0.28671436
   0.00000000  0.75000000  0.35158853
   0.00000000  0.75000000  0.43512584
   0.84791718  0.62500000  0.39335718
   0.15208282  0.62500000  0.39335718
   0.75000000  0.75000000  0.45823134
   0.75000000  0.75000000  0.54176866
   0.09791718  0.62500000  0.50000000
   0.90208282  0.62500000  0.50000000
   0.00008794  0.75011193  0.56552801
   0.99917199  0.74986327  0.64943057
   0.85020320  0.62524327  0.60671150
   0.14962082  0.62511488  0.60734991
   0.75299600  0.75060729  0.67165909
   0.74853426  0.74908661  0.75543422
   0.09408815  0.62507652  0.71920180
   0.90611608  0.62425891  0.72013169
   0.75000000  0.00000000  0.24494571
   0.75000000  0.00000000  0.32848302
   0.09791718  0.87500000  0.28671436
   0.90208282  0.87500000  0.28671436
   0.00000000  0.00000000  0.35158853
   0.00000000  0.00000000  0.43512584
   0.84791718  0.87500000  0.39335718
   0.15208282  0.87500000  0.39335718
   0.75000000  0.00000000  0.45823134
   0.75000000  0.00000000  0.54176866
   0.09791718  0.87500000  0.50000000
   0.90208282  0.87500000  0.50000000
   0.00006058  0.99998427  0.56552430
   0.99957273  0.99998583  0.64938603
   0.85002829  0.87543605  0.60698163
   0.14958302  0.87479858  0.60736271
   0.75024259  0.99995186  0.67193444
   0.74974530  0.99982264  0.75571423
   0.09390589  0.87457262  0.71893296
   0.90613278  0.87502261  0.71961753
   0.75000000  0.25000000  0.24494571
   0.75000000  0.25000000  0.32848302
   0.09791718  0.12500000  0.28671436
   0.90208282  0.12500000  0.28671436
   0.00000000  0.25000000  0.35158853
   0.00000000  0.25000000  0.43512584
   0.84791718  0.12500000  0.39335718
   0.15208282  0.12500000  0.39335718
   0.75000000  0.25000000  0.45823134
   0.75000000  0.25000000  0.54176866
   0.09791718  0.12500000  0.50000000
   0.90208282  0.12500000  0.50000000
   0.00003564  0.24990314  0.56553307
   0.99929849  0.25012201  0.64942891
   0.84995985  0.12467647  0.60706667
   0.14949589  0.12501786  0.60724415
   0.75243786  0.24974030  0.67172727
   0.74894537  0.25060150  0.75543006
   0.09374410  0.12532385  0.71911039
   0.90601833  0.12490300  0.71944059
   0.75000000  0.50000000  0.24494571
   0.75000000  0.50000000  0.32848302
   0.09791718  0.37500000  0.28671436
   0.90208282  0.37500000  0.28671436
   0.00000000  0.50000000  0.35158853
   0.00000000  0.50000000  0.43512584
   0.84791718  0.37500000  0.39335718
   0.15208282  0.37500000  0.39335718
   0.75000000  0.50000000  0.45823134
   0.75000000  0.50000000  0.54176866
   0.09791718  0.37500000  0.50000000
   0.90208282  0.37500000  0.50000000
   0.00019992  0.50000802  0.56551989
   0.99933115  0.50001818  0.64936422
   0.85019930  0.37471579  0.60674309
   0.14962985  0.37504964  0.60731784
   0.75479127  0.49999394  0.67158382
   0.73900930  0.49997862  0.75564004
   0.09398253  0.37496921  0.71913262
   0.90611179  0.37571229  0.72018273
   0.25000000  0.75000000  0.24494571
   0.25000000  0.75000000  0.32848302
   0.59791718  0.62500000  0.28671436
   0.40208282  0.62500000  0.28671436
   0.50000000  0.75000000  0.35158853
   0.50000000  0.75000000  0.43512584
   0.34791718  0.62500000  0.39335718
   0.65208282  0.62500000  0.39335718
   0.25000000  0.75000000  0.45823134
   0.25000000  0.75000000  0.54176866
   0.59791718  0.62500000  0.50000000
   0.40208282  0.62500000  0.50000000
   0.50017945  0.74882867  0.56534218
   0.49765512  0.75118447  0.64842839
   0.34939321  0.62496847  0.60709819
   0.65032451  0.62514579  0.60775727
   0.25086439  0.74960951  0.67188358
   0.25015310  0.75005277  0.75575180
   0.59654984  0.62936324  0.71436258
   0.40753059  0.62581323  0.72031088
   0.25000000  0.00000000  0.24494571
   0.25000000  0.00000000  0.32848302
   0.59791718  0.87500000  0.28671436
   0.40208282  0.87500000  0.28671436
   0.50000000  0.00000000  0.35158853
   0.50000000  0.00000000  0.43512584
   0.34791718  0.87500000  0.39335718
   0.65208282  0.87500000  0.39335718
   0.25000000  0.00000000  0.45823134
   0.25000000  0.00000000  0.54176866
   0.59791718  0.87500000  0.50000000
   0.40208282  0.87500000  0.50000000
   0.49996772  0.00007324  0.56504228
   0.49974780  0.99991958  0.64857589
   0.34947836  0.87523808  0.60683029
   0.65002974  0.87477008  0.60718929
   0.24962359  0.99997625  0.67176486
   0.24961167  0.00000498  0.75563526
   0.59410851  0.87487771  0.71851462
   0.40593609  0.87594537  0.71883060
   0.25000000  0.25000000  0.24494571
   0.25000000  0.25000000  0.32848302
   0.59791718  0.12500000  0.28671436
   0.40208282  0.12500000  0.28671436
   0.50000000  0.25000000  0.35158853
   0.50000000  0.25000000  0.43512584
   0.34791718  0.12500000  0.39335718
   0.65208282  0.12500000  0.39335718
   0.25000000  0.25000000  0.45823134
   0.25000000  0.25000000  0.54176866
   0.59791718  0.12500000  0.50000000
   0.40208282  0.12500000  0.50000000
   0.50007621  0.25128369  0.56543629
   0.49857884  0.24856086  0.64862725
   0.34954224  0.12484767  0.60692932
   0.65012087  0.12516678  0.60716479
   0.24967617  0.24988623  0.67177978
   0.25040468  0.25010321  0.75561124
   0.59411227  0.12472769  0.71858485
   0.40583947  0.12416850  0.71868941
   0.25000000  0.50000000  0.24494571
   0.25000000  0.50000000  0.32848302
   0.59791718  0.37500000  0.28671436
   0.40208282  0.37500000  0.28671436
   0.50000000  0.50000000  0.35158853
   0.50000000  0.50000000  0.43512584
   0.34791718  0.37500000  0.39335718
   0.65208282  0.37500000  0.39335718
   0.25000000  0.50000000  0.45823134
   0.25000000  0.50000000  0.54176866
   0.59791718  0.37500000  0.50000000
   0.40208282  0.37500000  0.50000000
   0.50016654  0.49981719  0.56570111
   0.49880502  0.50038553  0.64993746
   0.34943326  0.37493264  0.60733298
   0.65029120  0.37499710  0.60777544
   0.24999145  0.50043851  0.67191402
   0.25122124  0.49993574  0.75569325
   0.59620813  0.37150390  0.71477115
   0.40636247  0.37398309  0.71834609

 position of ions in cartesian coordinates  (Angst):
   6.65737805  6.52492479 24.54799342
   8.01173793  5.88767829 23.96949639
   7.01150455  5.83582416 23.95508198
   9.79589914  7.40329128  8.77891573
   0.00000000  8.88394953  8.77891573
   0.00000000  7.40329128 12.04421544
   9.79589914  8.88394953 12.04421544
   9.79589914  7.40329128 15.30951516
   0.00000000  8.88394953 15.30951516
   0.00570437  7.40394081 18.50836096
   9.80095143  8.88545147 18.68683702
   9.80606316  7.41387816 22.02377386
  13.05960236  8.88737497 21.70162786
   9.79589914 10.36460779  8.77891573
   0.00000000  0.00000000  8.77891573
   0.00000000 10.36460779 12.04421544
   9.79589914  0.00000000 12.04421544
   9.79589914 10.36460779 15.30951516
   0.00000000  0.00000000 15.30951516
   0.00145592 10.36490999 18.50989542
   9.79347046  0.00095443 18.69407655
   9.79127838 10.36593722 22.05183903
   0.00019553 11.84453846 21.70021190
   9.79589914  1.48065826  8.77891573
   0.00000000  2.96131651  8.77891573
   0.00000000  1.48065826 12.04421544
   9.79589914  2.96131651 12.04421544
   9.79589914  1.48065826 15.30951516
   0.00000000  2.96131651 15.30951516
   0.00427483  1.48007761 18.50958597
   9.79845063  2.95804673 18.68720357
   9.78919768  1.47366311 22.05260430
  13.05979399  2.95678813 21.70129110
   9.79589914  4.44197477  8.77891573
   0.00000000  5.92263302  8.77891573
   0.00000000  4.44197477 12.04421544
   9.79589914  5.92263302 12.04421544
   9.79589914  4.44197477 15.30951516
   0.00000000  5.92263302 15.30951516
   0.00352988  4.44169597 18.50819196
   9.80826883  5.92236959 18.69320552
   9.81225558  4.42529800 22.02738487
   0.00780526  5.92358335 21.69924389
   3.26529971  7.40329128  8.77891573
   6.53059943  8.88394953  8.77891573
   6.53059943  7.40329128 12.04421544
   3.26529971  8.88394953 12.04421544
   3.26529971  7.40329128 15.30951516
   6.53059943  8.88394953 15.30951516
   6.53669701  7.37684781 18.54455975
   3.27107370  8.88251414 18.69596163
   3.26906651  7.40565559 22.05633738
   6.53845187  8.88673395 21.66340876
   3.26529971 10.36460779  8.77891573
   6.53059943  0.00000000  8.77891573
   6.53059943 10.36460779 12.04421544
   3.26529971  0.00000000 12.04421544
   3.26529971 10.36460779 15.30951516
   6.53059943  0.00000000 15.30951516
   6.52916855 10.35372383 18.47850516
   3.26408532 11.84376935 18.69680589
   3.27637640 10.36577496 22.05488765
   6.52292203 11.84479375 21.66925733
   3.26529971  1.48065826  8.77891573
   6.53059943  2.96131651  8.77891573
   6.53059943  1.48065826 12.04421544
   3.26529971  2.96131651 12.04421544
   3.26529971  1.48065826 15.30951516
   6.53059943  2.96131651 15.30951516
   6.52462715  1.49262015 18.48157273
   3.26778706  2.96353758 18.69667069
   3.27344540  1.48027175 22.05376647
   6.53573466  2.95681487 21.67261673
   3.26529971  4.44197477  8.77891573
   6.53059943  5.92263302  8.77891573
   6.53059943  4.44197477 12.04421544
   3.26529971  5.92263302 12.04421544
   3.26529971  4.44197477 15.30951516
   6.53059943  5.92263302 15.30951516
   6.53629855  4.46711944 18.54977906
   3.27073338  5.92305397 18.69966972
   3.26651083  4.44082784 22.05361256
   6.53985502  5.91407094 21.81417922
   9.79589914  8.88394953  7.50000000
   9.79589914  8.88394953 10.05783146
   1.27891573  7.40329128  8.77891573
  11.78228313  7.40329128  8.77891573
   0.00000000  8.88394953 10.76529971
   0.00000000  8.88394953 13.32313117
  11.07481487  7.40329128 12.04421544
   1.98638398  7.40329128 12.04421544
   9.79589914  8.88394953 14.03059943
   9.79589914  8.88394953 16.58843089
   1.27891573  7.40329128 15.30951516
  11.78228313  7.40329128 15.30951516
   0.00114863  8.88527535 17.31591913
  13.05038406  8.88232995 19.88493426
  11.10467312  7.40617288 18.57691785
   1.95422727  7.40465200 18.59646534
   9.83503055  8.89114304 20.56554994
   9.77675485  8.87313018 23.13066318
   1.22890397  7.40419765 22.02126157
  11.83496234  7.39451283 22.04973392
   9.79589914  0.00000000  7.50000000
   9.79589914  0.00000000 10.05783146
   1.27891573 10.36460779  8.77891573
  11.78228313 10.36460779  8.77891573
   0.00000000  0.00000000 10.76529971
   0.00000000  0.00000000 13.32313117
  11.07481487 10.36460779 12.04421544
   1.98638398 10.36460779 12.04421544
   9.79589914  0.00000000 14.03059943
   9.79589914  0.00000000 16.58843089
   1.27891573 10.36460779 15.30951516
  11.78228313 10.36460779 15.30951516
   0.00079124 11.84507973 17.31580580
  13.05561821 11.84509820 19.88357067
  11.10238851 10.36977295 18.58518885
   1.95373363 10.36222194 18.59685733
   9.79906770 11.84469584 20.57398090
   9.79257244 11.84316516 23.13923681
   1.22652349 10.35954539 22.01303001
  11.83518037 10.36487566 22.03399100
   9.79589914  2.96131651  7.50000000
   9.79589914  2.96131651 10.05783146
   1.27891573  1.48065826  8.77891573
  11.78228313  1.48065826  8.77891573
   0.00000000  2.96131651 10.76529971
   0.00000000  2.96131651 13.32313117
  11.07481487  1.48065826 12.04421544
   1.98638398  1.48065826 12.04421544
   9.79589914  2.96131651 14.03059943
   9.79589914  2.96131651 16.58843089
   1.27891573  1.48065826 15.30951516
  11.78228313  1.48065826 15.30951516
   0.00046551  2.96016912 17.31607430
  13.05203627  2.96276171 19.88488348
  11.10149467  1.47682596 18.58779280
   1.95259557  1.48086983 18.59322712
   9.82774051  2.95824027 20.56763750
   9.78212440  2.96844149 23.13053579
   1.22441038  1.48449436 22.01846283
  11.83368555  1.47950926 22.02857309
   9.79589914  5.92263302  7.50000000
   9.79589914  5.92263302 10.05783146
   1.27891573  4.44197477  8.77891573
  11.78228313  4.44197477  8.77891573
   0.00000000  5.92263302 10.76529971
   0.00000000  5.92263302 13.32313117
  11.07481487  4.44197477 12.04421544
   1.98638398  4.44197477 12.04421544
   9.79589914  5.92263302 14.03059943
   9.79589914  5.92263302 16.58843089
   1.27891573  4.44197477 15.30951516
  11.78228313  4.44197477 15.30951516
   0.00261123  5.92272798 17.31567070
  13.05246289  5.92284833 19.88290268
  11.10462211  4.43860824 18.57788504
   1.95434520  4.44256276 18.59548341
   9.85847888  5.92256130 20.56324530
   9.65234744  5.92237978 23.13696542
   1.22752451  4.44161008 22.01914343
  11.83490628  4.45041205 22.05129670
   3.26529971  8.88394953  7.50000000
   3.26529971  8.88394953 10.05783146
   7.80951516  7.40329128  8.77891573
   5.25168370  7.40329128  8.77891573
   6.53059943  8.88394953 10.76529971
   6.53059943  8.88394953 13.32313117
   4.54421544  7.40329128 12.04421544
   8.51698341  7.40329128 12.04421544
   3.26529971  8.88394953 14.03059943
   3.26529971  8.88394953 16.58843089
   7.80951516  7.40329128 15.30951516
   5.25168370  7.40329128 15.30951516
   6.53294329  8.87007477 17.31022924
   6.49997244  8.89797987 19.85424843
   4.56349422  7.40291782 18.58875792
   8.49401770  7.40501822 18.60893840
   3.27658963  8.87932404 20.57242364
   3.26729937  8.88457458 23.14038739
   7.79165609  7.45497505 21.87308950
   5.32283812  7.41292425 22.05522061
   3.26529971  0.00000000  7.50000000
   3.26529971  0.00000000 10.05783146
   7.80951516 10.36460779  8.77891573
   5.25168370 10.36460779  8.77891573
   6.53059943  0.00000000 10.76529971
   6.53059943  0.00000000 13.32313117
   4.54421544 10.36460779 12.04421544
   8.51698341 10.36460779 12.04421544
   3.26529971  0.00000000 14.03059943
   3.26529971  0.00000000 16.58843089
   7.80951516 10.36460779 15.30951516
   5.25168370 10.36460779 15.30951516
   6.53017785  0.00086753 17.30104662
   6.52730540 11.84431345 19.85876482
   4.56460641 10.36742789 18.58055496
   8.49016775 10.36188438 18.59154740
   3.26038338 11.84498469 20.56878858
   3.26022764  0.00005896 23.13681888
   7.75976938 10.36315923 22.00022095
   5.30201200 10.37580590 22.00989593
   3.26529971  2.96131651  7.50000000
   3.26529971  2.96131651 10.05783146
   7.80951516  1.48065826  8.77891573
   5.25168370  1.48065826  8.77891573
   6.53059943  2.96131651 10.76529971
   6.53059943  2.96131651 13.32313117
   4.54421544  1.48065826 12.04421544
   8.51698341  1.48065826 12.04421544
   3.26529971  2.96131651 14.03059943
   3.26529971  2.96131651 16.58843089
   7.80951516  1.48065826 15.30951516
   5.25168370  1.48065826 15.30951516
   6.53159477  2.97652221 17.31311094
   6.51203743  2.94426955 19.86033728
   4.56544067  1.47885385 18.58358730
   8.49135799  1.48263375 18.59079703
   3.26107006  2.95996882 20.56924530
   3.27058530  2.96253906 23.13608336
   7.75981850  1.47743263 22.00237129
   5.30075009  1.47080887 22.00557271
   3.26529971  5.92263302  7.50000000
   3.26529971  5.92263302 10.05783146
   7.80951516  4.44197477  8.77891573
   5.25168370  4.44197477  8.77891573
   6.53059943  5.92263302 10.76529971
   6.53059943  5.92263302 13.32313117
   4.54421544  4.44197477 12.04421544
   8.51698341  4.44197477 12.04421544
   3.26529971  5.92263302 14.03059943
   3.26529971  5.92263302 16.58843089
[...]
     13.05979      2.95679     21.70129         0.004060      0.000635     -0.091792
      9.79590      4.44197      8.77892        -0.003038     -0.000218     -3.824239
      0.00000      5.92263      8.77892         0.001201     -0.000110      3.356177
      0.00000      4.44197     12.04422         0.005919      0.000237      0.555511
      9.79590      5.92263     12.04422        -0.007986      0.000228     -0.842764
      9.79590      4.44197     15.30952        -0.040842      0.023527      0.672188
      0.00000      5.92263     15.30952         0.014694      0.000049     -0.838366
      0.00353      4.44170     18.50819         0.011244      0.001795      0.001024
      9.80827      5.92237     18.69321         0.009120     -0.000605      0.069252
      9.81226      4.42530     22.02738        -0.034551      0.029149     -0.239265
      0.00781      5.92358     21.69924        -0.002063     -0.000321     -0.079927
      3.26530      7.40329      8.77892         0.002828     -0.000039     -3.821560
      6.53060      8.88395      8.77892        -0.001425      0.000419      3.363000
      6.53060      7.40329     12.04422        -0.005969      0.010834      0.579187
      3.26530      8.88395     12.04422         0.008326      0.000342     -0.825305
      3.26530      7.40329     15.30952         0.042072     -0.014178      0.726678
      6.53060      8.88395     15.30952        -0.015066     -0.048511     -0.707031
      6.53670      7.37685     18.54456         0.010351     -0.005847     -0.000563
      3.27107      8.88251     18.69596         0.005311     -0.003464      0.058134
      3.26907      7.40566     22.05634         0.002629     -0.002343     -0.251029
      6.53845      8.88673     21.66341         0.014369      0.004585     -0.067115
      3.26530     10.36461      8.77892         0.002961      0.000235     -3.821746
      6.53060      0.00000      8.77892        -0.001378      0.000003      3.363141
      6.53060     10.36461     12.04422        -0.005871      0.000772      0.582706
      3.26530      0.00000     12.04422         0.008751     -0.000151     -0.826146
      3.26530     10.36461     15.30952         0.030786      0.002149      0.718232
      6.53060      0.00000     15.30952        -0.013207     -0.000766     -0.900961
      6.52917     10.35372     18.47851         0.000139     -0.008735      0.015524
      3.26409     11.84377     18.69681         0.005373     -0.001105      0.059112
      3.27638     10.36577     22.05489         0.001127     -0.000932     -0.255872
      6.52292     11.84479     21.66926        -0.002686      0.000932     -0.080986
      3.26530      1.48066      8.77892         0.002924     -0.000091     -3.821807
      6.53060      2.96132      8.77892        -0.001429     -0.000481      3.362485
      6.53060      1.48066     12.04422        -0.005953     -0.003288      0.581236
      3.26530      2.96132     12.04422         0.008072     -0.000393     -0.824690
      3.26530      1.48066     15.30952         0.029833      0.000960      0.721674
      6.53060      2.96132     15.30952        -0.015401      0.052488     -0.695432
      6.52463      1.49262     18.48157        -0.005311      0.012278      0.016941
      3.26779      2.96354     18.69667         0.003408      0.004051      0.056480
      3.27345      1.48027     22.05377         0.004153     -0.001191     -0.254533
      6.53573      2.95681     21.67262         0.013418      0.000644     -0.078799
      3.26530      4.44197      8.77892         0.002794     -0.000215     -3.821631
      6.53060      5.92263      8.77892        -0.001421     -0.000057      3.362291
      6.53060      4.44197     12.04422        -0.006098     -0.008426      0.577957
      3.26530      5.92263     12.04422         0.007697      0.000088     -0.823323
      3.26530      4.44197     15.30952         0.042482      0.010944      0.728169
      6.53060      5.92263     15.30952        -0.017851     -0.003263     -0.748618
      6.53630      4.46712     18.54978         0.009182      0.002739     -0.001735
      3.27073      5.92305     18.69967         0.004088      0.000626      0.061783
      3.26651      4.44083     22.05361         0.001884      0.004502     -0.249796
      6.53986      5.91407     21.81418         0.037320     -0.003219     -0.073292
      9.79590      8.88395      7.50000         0.000540     -0.000177      2.644370
      9.79590      8.88395     10.05783         0.001081     -0.000155      1.779518
      1.27892      7.40329      8.77892        -2.287226     -0.000070     -0.819556
     11.78228      7.40329      8.77892         2.285049     -0.000070     -0.819381
      0.00000      8.88395     10.76530        -0.000887      0.000037     -1.285467
      0.00000      8.88395     13.32313        -0.001629      0.000304     -0.278021
     11.07481      7.40329     12.04422         0.295344     -0.000077      0.060307
      1.98638      7.40329     12.04422        -0.302006      0.000125      0.057973
      9.79590      8.88395     14.03060         0.004879     -0.000030      0.110388
      9.79590      8.88395     16.58843         0.002526      0.002179     -0.220042
      1.27892      7.40329     15.30952        -0.722326      0.002636      0.110500
     11.78228      7.40329     15.30952         0.697307      0.001446      0.114588
      0.00115      8.88528     17.31592        -0.000017      0.001327      0.172961
     13.05038      8.88233     19.88493         0.006890      0.000154     -0.172712
     11.10467      7.40617     18.57692        -0.091743      0.001200      0.035049
      1.95423      7.40465     18.59647         0.081457      0.004224      0.024211
      9.83503      8.89114     20.56555        -0.011394     -0.004840      0.056297
      9.77675      8.87313     23.13066         0.011242      0.012880     -0.233004
      1.22890      7.40420     22.02126        -0.201825     -0.001798     -0.066945
     11.83496      7.39451     22.04973         0.197722      0.004277     -0.080615
      9.79590      0.00000      7.50000         0.000558     -0.000075      2.644607
      9.79590      0.00000     10.05783         0.001158     -0.000012      1.779410
      1.27892     10.36461      8.77892        -2.287239     -0.000020     -0.819545
     11.78228     10.36461      8.77892         2.285089     -0.000020     -0.819360
      0.00000      0.00000     10.76530        -0.000881     -0.000006     -1.285450
      0.00000      0.00000     13.32313        -0.001767     -0.000009     -0.278277
     11.07481     10.36461     12.04422         0.295355     -0.000006      0.060360
      1.98638     10.36461     12.04422        -0.301946      0.000018      0.058098
      9.79590      0.00000     14.03060         0.005059      0.000509      0.110860
      9.79590      0.00000     16.58843        -0.009165     -0.000210     -0.238253
      1.27892     10.36461     15.30952        -0.718852      0.000835      0.109199
     11.78228     10.36461     15.30952         0.694925     -0.001170      0.112660
      0.00079     11.84508     17.31581         0.000538     -0.000316      0.178768
     13.05562     11.84510     19.88357         0.002061      0.000055     -0.174654
     11.10239     10.36977     18.58519        -0.094061     -0.004416      0.035179
      1.95373     10.36222     18.59686         0.084185      0.001363      0.028181
      9.79907     11.84470     20.57398         0.000270      0.001285      0.052639
      9.79257     11.84317     23.13924         0.002709     -0.000367     -0.223923
      1.22652     10.35955     22.01303        -0.211663      0.005996     -0.060938
     11.83518     10.36488     22.03399         0.202715     -0.003913     -0.073806
      9.79590      2.96132      7.50000         0.000550      0.000132      2.644580
      9.79590      2.96132     10.05783         0.001051      0.000114      1.779684
      1.27892      1.48066      8.77892        -2.287263     -0.000076     -0.819521
     11.78228      1.48066      8.77892         2.285113     -0.000055     -0.819354
      0.00000      2.96132     10.76530        -0.000888     -0.000072     -1.285385
      0.00000      2.96132     13.32313        -0.001794     -0.000329     -0.277594
     11.07481      1.48066     12.04422         0.295337      0.000090      0.060353
      1.98638      1.48066     12.04422        -0.301986     -0.000097      0.058079
      9.79590      2.96132     14.03060         0.004928     -0.000437      0.110822
      9.79590      2.96132     16.58843        -0.000194      0.002005     -0.213486
      1.27892      1.48066     15.30952        -0.720004     -0.000293      0.109674
     11.78228      1.48066     15.30952         0.694600      0.001010      0.113245
      0.00047      2.96017     17.31607         0.001222     -0.001093      0.171683
     13.05204      2.96276     19.88488         0.005562     -0.000926     -0.171633
     11.10149      1.47683     18.58779        -0.097541      0.001994      0.033146
      1.95260      1.48087     18.59323         0.080092     -0.000742      0.030322
      9.82774      2.95824     20.56764        -0.006200      0.003313      0.055340
      9.78212      2.96844     23.13054         0.008293     -0.013598     -0.232462
      1.22441      1.48449     22.01846        -0.208367     -0.005876     -0.065495
     11.83369      1.47951     22.02857         0.204056      0.003346     -0.068614
      9.79590      5.92263      7.50000         0.000532      0.000013      2.644308
      9.79590      5.92263     10.05783         0.001049     -0.000040      1.779355
      1.27892      4.44197      8.77892        -2.287256      0.000062     -0.819547
     11.78228      4.44197      8.77892         2.285085      0.000066     -0.819385
      0.00000      5.92263     10.76530        -0.000899     -0.000059     -1.285519
      0.00000      5.92263     13.32313        -0.001509     -0.000044     -0.278608
     11.07481      4.44197     12.04422         0.295286     -0.000097      0.060338
      1.98638      4.44197     12.04422        -0.302047     -0.000150      0.057953
      9.79590      5.92263     14.03060         0.006682     -0.000029      0.108558
      9.79590      5.92263     16.58843        -0.004763     -0.000796     -0.234132
      1.27892      4.44197     15.30952        -0.723524     -0.003175      0.110534
     11.78228      4.44197     15.30952         0.697251     -0.001235      0.114568
      0.00261      5.92273     17.31567        -0.002448     -0.000237      0.169712
     13.05246      5.92285     19.88290         0.010486      0.000469     -0.173222
     11.10462      4.43861     18.57789        -0.089825      0.000808      0.034032
      1.95435      4.44256     18.59548         0.083086     -0.004753      0.025945
      9.85848      5.92256     20.56325        -0.011444      0.003597      0.042014
      9.65235      5.92238     23.13697         0.041632      0.002852     -0.268815
      1.22752      4.44161     22.01914        -0.201312      0.002030     -0.065860
     11.83491      4.45041     22.05130         0.195796     -0.005485     -0.082848
      3.26530      8.88395      7.50000        -0.000773     -0.000136      2.643464
      3.26530      8.88395     10.05783        -0.001319     -0.000103      1.774509
      7.80952      7.40329      8.77892        -2.282385     -0.000331     -0.820281
      5.25168      7.40329      8.77892         2.284090     -0.000325     -0.820430
      6.53060      8.88395     10.76530         0.000637     -0.001731     -1.299306
      6.53060      8.88395     13.32313         0.001943     -0.002999     -0.334394
      4.54422      7.40329     12.04422         0.289247     -0.000387      0.056540
      8.51698      7.40329     12.04422        -0.283023     -0.000631      0.058784
      3.26530      8.88395     14.03060        -0.005866      0.002657      0.083621
      3.26530      8.88395     16.58843        -0.021886     -0.000493     -0.242875
      7.80952      7.40329     15.30952        -0.653542     -0.028084      0.089266
      5.25168      7.40329     15.30952         0.683404     -0.028403      0.088315
      6.53294      8.87007     17.31023        -0.000706      0.016708      0.185827
      6.49997      8.89798     19.85425         0.016622      0.000984     -0.206727
      4.56349      7.40292     18.58876        -0.106533     -0.006253      0.037198
      8.49402      7.40502     18.60894         0.097101     -0.007055      0.017753
      3.27659      8.87932     20.57242         0.000065      0.001089      0.045647
      3.26730      8.88457     23.14039         0.002624     -0.003555     -0.227136
      7.79166      7.45498     21.87309        -0.212405     -0.034046      0.022855
      5.32284      7.41292     22.05522         0.205505     -0.024646     -0.080405
      3.26530      0.00000      7.50000        -0.000797     -0.000100      2.643712
      3.26530      0.00000     10.05783        -0.001380     -0.000048      1.774533
      7.80952     10.36461      8.77892        -2.282341     -0.000164     -0.820297
      5.25168     10.36461      8.77892         2.284014     -0.000156     -0.820450
      6.53060      0.00000     10.76530         0.000675      0.000369     -1.299863
      6.53060      0.00000     13.32313         0.001348      0.000678     -0.334162
      4.54422     10.36461     12.04422         0.287390      0.000055      0.056439
      8.51698     10.36461     12.04422        -0.281228      0.000045      0.058688
      3.26530      0.00000     14.03060        -0.005311     -0.000329      0.084339
      3.26530      0.00000     16.58843        -0.031537      0.000421     -0.261480
      7.80952     10.36461     15.30952        -0.649969      0.001485      0.101693
      5.25168     10.36461     15.30952         0.674481     -0.000489      0.100722
      6.53018      0.00087     17.30105         0.000243     -0.001120      0.160857
      6.52731     11.84431     19.85876        -0.000835      0.000108     -0.177268
      4.56461     10.36743     18.58055        -0.106944     -0.002973      0.032855
      8.49017     10.36188     18.59155         0.105269      0.002437      0.025313
      3.26038     11.84498     20.56879         0.003601     -0.000738      0.042486
      3.26023      0.00006     23.13682        -0.003241      0.001177     -0.220099
      7.75977     10.36316     22.00022        -0.193400      0.000580     -0.061737
      5.30201     10.37581     22.00990         0.195582     -0.006548     -0.066135
      3.26530      2.96132      7.50000        -0.000780      0.000087      2.643653
      3.26530      2.96132     10.05783        -0.001305      0.000060      1.774437
      7.80952      1.48066      8.77892        -2.282383      0.000145     -0.820273
      5.25168      1.48066      8.77892         2.284079      0.000142     -0.820431
      6.53060      2.96132     10.76530         0.000658      0.001651     -1.298480
      6.53060      2.96132     13.32313         0.001733      0.003033     -0.326798
      4.54422      1.48066     12.04422         0.287799     -0.000031      0.056496
      8.51698      1.48066     12.04422        -0.281605      0.000147      0.058772
      3.26530      2.96132     14.03060        -0.006048     -0.002957      0.081985
      3.26530      2.96132     16.58843        -0.021380      0.000755     -0.245353
      7.80952      1.48066     15.30952        -0.652578      0.004833      0.103693
      5.25168      1.48066     15.30952         0.676694      0.005233      0.101775
      6.53159      2.97652     17.31311         0.000320     -0.018018      0.184817
      6.51204      2.94427     19.86034         0.008190      0.000970     -0.202938
      4.56544      1.47885     18.58359        -0.102442      0.002122      0.029062
      8.49136      1.48263     18.59080         0.110437     -0.002295      0.025894
      3.26107      2.95997     20.56925         0.004136      0.000923      0.046443
      3.27059      2.96254     23.13608        -0.001480     -0.000700     -0.227146
      7.75982      1.47743     22.00237        -0.192937      0.003091     -0.064897
      5.30075      1.47081     22.00557         0.195497      0.007111     -0.065799
      3.26530      5.92263      7.50000        -0.000759      0.000037      2.643381
      3.26530      5.92263     10.05783        -0.001289     -0.000010      1.774132
      7.80952      4.44197      8.77892        -2.282417      0.000227     -0.820250
      5.25168      4.44197      8.77892         2.284143      0.000230     -0.820400
      6.53060      5.92263     10.76530         0.000644     -0.000391     -1.297246
      6.53060      5.92263     13.32313         0.002002     -0.000810     -0.293716
      4.54422      4.44197     12.04422         0.289674      0.000252      0.056520
      8.51698      4.44197     12.04422        -0.283332      0.000345      0.058870
      3.26530      5.92263     14.03060        -0.007369      0.000484      0.080179
      3.26530      5.92263     16.58843        -0.018938     -0.001502     -0.243655
      7.80952      4.44197     15.30952        -0.654468      0.021797      0.087529
      5.25168      4.44197     15.30952         0.683825      0.023689      0.085770
      6.53277      5.92047     17.32122         0.001017      0.001630      0.199102
      6.51499      5.92720     19.90045         0.010200     -0.006448     -0.130543
      4.56402      4.44118     18.59595        -0.106752      0.007283      0.033050
      8.49358      4.44194     18.60949         0.095275      0.006116      0.018924
      3.26519      5.92783     20.57336        -0.003099     -0.001906      0.048081
      3.28125      5.92187     23.13859        -0.004167      0.002606     -0.236231
      7.78719      4.40056     21.88560        -0.210286      0.016131     -0.002461
      5.30758      4.42993     21.99506         0.212556      0.028686     -0.054049
 -----------------------------------------------------------------------------------
    total drift:                                0.028779      0.006444      0.085137


--------------------------------------------------------------------------------------------------------



  FREE ENERGIE OF THE ION-ELECTRON SYSTEM (eV)
  ---------------------------------------------------
  free  energy   TOTEN  =     -2635.23227787 eV

  energy  without entropy=    -2635.23227787  energy(sigma->0) =    -2635.23227787



--------------------------------------------------------------------------------------------------------


    POTLOK:  cpu time      1.5209: real time      1.5225


--------------------------------------------------------------------------------------------------------


     LOOP+:  cpu time   7316.8082: real time   7321.5600
    4ORBIT:  cpu time      0.0000: real time      0.0000

 total amount of memory used by VASP MPI-rank0   221916. kBytes
=======================================================================

   base      :      30000. kBytes
   nonl-proj :      46464. kBytes
   fftplans  :       4875. kBytes
   grid      :       6170. kBytes
   one-center:        172. kBytes
   HF        :        135. kBytes
   nonlr-proj:      57030. kBytes
   wavefun   :      13107. kBytes
   fock_wrk  :      63963. kBytes

  
  
 General timing and accounting informations for this job:
 ========================================================
  
                  Total CPU time used (sec):     7363.171
                            User time (sec):     7328.961
                          System time (sec):       34.210
                         Elapsed time (sec):     7380.809
  
                   Maximum memory used (kb):      491464.
                   Average memory used (kb):          N/A
  
                          Minor page faults:       124295
                          Major page faults:          635
                 Voluntary context switches:        11951
