 **********************************************************************
                          MRCC program system
 **********************************************************************
 
                              Written by
     Mihaly Kallay, Peter R. Nagy, David Mester, Laszlo Gyevi-Nagy,
        Jozsef Csoka, P. Bernat Szabo, Zoltan Rolik, Gyula Samu,
     Jozsef Csontos, Bence Hegely, Adam Ganyecz, Istvan Ladjanszki,
       Lorant Szegedy, Bence Ladoczki, Klara Petrov, Mate Farkas,
                    Pal D. Mezei, and Reka A. Horvath
 
        Department of Physical Chemistry and Materials Science
            Budapest University of Technology and Economics
                  Budapest P.O.Box 91, H-1521 Hungary
 
                              www.mrcc.hu
 
                      Release date: March 18, 2022

 ************************ 2023-02-04 11:41:01 *************************
 Executing minp...

 Reading input from MINP...
 
 Input file:
 
calc=FNO-CCSD(T)
verbosity=3
mem=220GB
unit=angs
scfiguess=small
scfalg=locfit1
ccmaxit=400
ccsdalg=dfdirect
ccsdthreads=4
ccsdmkl=thr
ptthreads=4
lnoepsv=1e-5
naf_cor=1e-2
basis=aug-cc-pVTZ
basis_sm=def2-SVP
dfbasis_scf=def2-QZVPP-RI-JK
dfbasis_cor=aug-cc-pVTZ-RI
unit=angs
geom=xyz
10

C    29.54344629    29.54344629    16.97505516
H    29.54344670    30.44187631    17.60392580
H    29.54344662    28.64496649    17.60393442
H    30.44658454    29.54342777    16.34911135
H    28.64030918    29.54342779    16.34911130
C    29.54341583    16.88193772    16.97524142
H    28.64492395    16.88193796    17.60416815
H    30.44195768    16.88193792    17.60417697
H    29.54343437    15.97913951    16.34882759
H    29.54343444    17.78473706    16.34882843

--------------------Output has been truncated-------------------------


--------------------Output has been truncated-------------------------


--------------------Output has been truncated-------------------------


--------------------Output has been truncated-------------------------


--------------------Output has been truncated-------------------------


--------------------Output has been truncated-------------------------


--------------------Output has been truncated-------------------------


--------------------Output has been truncated-------------------------


--------------------Output has been truncated-------------------------


--------------------Output has been truncated-------------------------


 
 Reference energy [au]:                       -40.213014016626
 DF-MP2 singlet pair energy [au]:              -0.164418828492
 DF-MP2 triplet pair energy [au]:              -0.036594516265
 DF-SCS-MP2 correlation energy [au]:           -0.209500766279
 DF-SCS-MP2 energy [au]:                      -40.422514782905
 DF-SOS-MP2 correlation energy [au]:           -0.213744477040
 DF-SOS-MP2 energy [au]:                      -40.426758493666
 DF-MP2 correlation energy [au]:               -0.201013344757
 DF-MP2 energy [au]:                          -40.414027361384

 Results in FNO basis:
 
 
 Reference energy [au]:                       -40.213014016626
 DF-MP2 singlet pair energy [au]:              -0.163768579432
 DF-MP2 triplet pair energy [au]:              -0.036550759792
 DF-SCS-MP2 correlation energy [au]:           -0.208705881916
 DF-SCS-MP2 energy [au]:                      -40.421719898542
 DF-SOS-MP2 correlation energy [au]:           -0.212899153261
 DF-SOS-MP2 energy [au]:                      -40.425913169888
 DF-MP2 correlation energy [au]:               -0.200319339224
 DF-MP2 energy [au]:                          -40.413333355850

 Results in NAF basis:
 
 
 Reference energy [au]:                       -40.213014016626
 DF-MP2 singlet pair energy [au]:              -0.163734307296
 DF-MP2 triplet pair energy [au]:              -0.036570038617
 DF-SCS-MP2 correlation energy [au]:           -0.208671181627
 DF-SCS-MP2 energy [au]:                      -40.421685198253
 DF-SOS-MP2 correlation energy [au]:           -0.212854599484
 DF-SOS-MP2 energy [au]:                      -40.425868616110
 DF-MP2 correlation energy [au]:               -0.200304345913
 DF-MP2 energy [au]:                          -40.413318362539

 ************************ 2023-02-04 11:41:18 *************************
 Executing ccsd...

 Allocation of 220.0 Gbytes of memory...

 Direct DF-CCSD(T) calculation
 
 Convergence criterion:  1.0E-06
 
 Number of occupied/virtual/auxiliary orbitals:     4    83   221
     89.04 MB is the minimal memory requirement for (T)
     22.38 MB is the minimal memory requirement for CCSD
 
 Reference energy [au]:             -40.213014016626
 T1 contribution [au]:                0.000000000000
 Same spin MP2 energy [au]:          -0.036560371825
 Opposite spin MP2 energy [au]:      -0.163751361822
 MP2 correlation energy [au]:        -0.200311733646
 Total MP2 energy [au]:             -40.413325750273
 MP2 correction [au]:                -0.000701611111
 
 
 CPU time [min]:     0.059                   Wall time [min]:     0.004
 
 Starting CCSD iterations...
 
                     Residual norm          Energy
 Iteration  1        0.131886698452      -40.427793554005
 Iteration  2        0.033754344289      -40.433316531055
 Iteration  3        0.008181270497      -40.433782646219
 Iteration  4        0.001913829140      -40.433785249034
 Iteration  5        0.000362932659      -40.433792298678
 Iteration  6        0.000073614102      -40.433792431702
 Iteration  7        0.000017727602      -40.433793036916
 Iteration  8        0.000003099779      -40.433793054602
 
 CCSD iteration has converged in  8 steps.
      207.43 MB memory was utilized by CCSD
 
 T1 diagnostic:      7.475E-03            D1 diagnostic:      1.210E-02
 
 T1 contribution [au]:                                  0.000000000000
 PPL energy contribution [au]:                          0.057486906696
 Scaled PPL energy contribution [au]:                   0.057689937853

 OS-PPL energy contribution [au]:                       0.050871934862
 Scaled OS-PPL energy contribution [au]:                0.051084072542
 SS-PPL energy contribution [au]:                       0.006614971834
 Scaled SS-PPL energy contribution [au]:                0.006619535401

 Opposite spin CCSD energy [au]:                       -0.185468143728
 Same spin CCSD energy [au]:                           -0.035322328108
 CCSD correlation energy [au]:                         -0.220790471836
 CCSD correlation energy + MP2 correction [au]:        -0.221492082947
 CCSD correlation energy + MP2 + PPL corr. [au]:       -0.221289051790
 Total CCSD energy [au]:                              -40.433804488462
 Total CCSD energy + MP2 correction [au]:             -40.434506099573
 Total CCSD energy + MP2 + PPL corr. [au]:            -40.434303068417
 
 CPU time [min]:     0.384                   Wall time [min]:     0.013
 
 Calculation of (T) correction...
 
 
       67.65 MB memory is utilized for (T)

 0%       25%       50%       75%       100%
 |---------|---------|---------|---------| 
 
 (T) correction [au]:                                    -0.006568654146
 (T*) correction [au]:                                   -0.006591661489
 (T+) correction [au]:                                   -0.006591681614
 CCSD(T) correlation energy [au]:                        -0.227359125982
 CCSD(T) correlation energy + MP2 correction [au]:       -0.228060737093
 CCSD(T+) correlation en. + MP2 + PPL corr. [au]:        -0.227880733404
 Total CCSD(T) energy [au]:                             -40.440373142608
 Total CCSD(T) energy + MP2 correction [au]:            -40.441074753719
 Total CCSD(T+) energy + MP2 + PPL corr. [au]:          -40.440894750031
 
 CPU time [min]:     0.449                   Wall time [min]:     0.015
 
 ************************ 2023-02-04 11:41:19 *************************
                      Normal termination of mrcc.
 **********************************************************************
