 vasp.6.3.0 20Jan22 (build Mar 11 2022 13:48:16) complex                        
  
 executed on             LinuxIFC date 2024.01.22  16:15:02
 running on  304 total cores
 distrk:  each k-point on  304 cores,    1 groups
 distr:  one band on NCORE=   2 cores,  152 groups


--------------------------------------------------------------------------------------------------------


 INCAR:
   SYSTEM = TiO2
   ISMEAR = 0
   SIGMA = 0.05
   EDIFF = 1E-5
   ALGO = ALL
   ISTART = 0
   IBRION = -1
   NSW = 0
   ISYM = 0
   ISIF = 2
   EDIFFG = -0.01
   DIPOL = 0.5 0.5 0.5
   IDIPOL = 3
   LDIPOL = .TRUE.
   GGA = MK
   LUSE_VDW = .TRUE.
   PARAM1 = 0.1234
   PARAM2 = 0.711357
   ZAB_VDW = -1.8867
   AGGAC = 0.0
   ENCUT = 600
   PREC = Accurate
   LASPH = .TRUE.
   LREAL = .FALSE.
   ISPIN = 1
   NELM = 200
   NELMIN = 8
   NCORE = 2
   KPAR = 1
   LWAVE = .FALSE.
   LCHARG = .FALSE.

 POTCAR:    PAW_PBE N 08Apr2002                   
 POTCAR:    PAW_PBE H 15Jun2001                   
 POTCAR:    PAW_PBE Ti_pv 07Sep2000               
 POTCAR:    PAW_PBE O 08Apr2002                   
 -----------------------------------------------------------------------------
|                                                                             |
|           W    W    AA    RRRRR   N    N  II  N    N   GGGG   !!!           |
|           W    W   A  A   R    R  NN   N  II  NN   N  G    G  !!!           |
|           W    W  A    A  R    R  N N  N  II  N N  N  G       !!!           |
|           W WW W  AAAAAA  RRRRR   N  N N  II  N  N N  G  GGG   !            |
|           WW  WW  A    A  R   R   N   NN  II  N   NN  G    G                |
|           W    W  A    A  R    R  N    N  II  N    N   GGGG   !!!           |
|                                                                             |
|     For optimal performance we recommend to set                             |
|       NCORE = 2 up to number-of-cores-per-socket                            |
|     NCORE specifies how many cores store one orbital (NPAR=cpu/NCORE).      |
|     This setting can greatly improve the performance of VASP for DFT.       |
|     The default, NCORE=1 might be grossly inefficient on modern             |
|     multi-core architectures or massively parallel machines. Do your        |
|     own testing! More info at https://www.vasp.at/wiki/index.php/NCORE      |
|     Unfortunately you need to use the default for GW and RPA                |
|     calculations (for HF NCORE is supported but not extensively tested      |
|     yet).                                                                   |
|                                                                             |
 -----------------------------------------------------------------------------

 -----------------------------------------------------------------------------
|                                                                             |
|               ----> ADVICE to this user running VASP <----                  |
|                                                                             |
|     You have switched on vdW-DFT.                                           |
|     This routine was written and supplied by Jiri Klimes. We recommend      |
|     that you carefully read and cite the following publications:            |
|       J. Klimes, D.R. Bowler, A. Michelides                                 |
|          J. Phys.: Cond Matt. 22 022201 (2010)                              |
|       J. Klimes, D.R. Bowler, A. Michelides                                 |
|          Phys. Rev. B. 83, 195131 (2011)                                    |
|     and references therein.                                                 |
|                                                                             |
 -----------------------------------------------------------------------------

 POTCAR:    PAW_PBE N 08Apr2002                   
   SHA256 =  e053789ff3a61a86a1b75d8a110fcc91f86041011e7b0817c7c99e4e8a6349d7 N/POTCAR              
   COPYR  = (c) Copyright 08Apr2002 Georg Kresse                                                    
   COPYR  = This file is part of the software VASP. Any use, copying, and all other rights are regul
   COPYR  = If you do not have a valid VASP license, you may not use, copy or distribute this file. 
   VRHFIN =N: s2p3                                                                                  
   LEXCH  = PE                                                                                      
   EATOM  =   264.5486 eV,   19.4438 Ry                                                             
                                                                                                    
   TITEL  = PAW_PBE N 08Apr2002                                                                     
   LULTRA =        F    use ultrasoft PP ?                                                          
   IUNSCR =        1    unscreen: 0-lin 1-nonlin 2-no                                               
   RPACOR =    1.200    partial core radius                                                         
   POMASS =   14.001; ZVAL   =    5.000    mass and valenz                                          
   RCORE  =    1.500    outmost cutoff radius                                                       
   RWIGS  =    1.400; RWIGS  =    0.741    wigner-seitz radius (au A)                               
   ENMAX  =  400.000; ENMIN  =  300.000 eV                                                          
   ICORE  =        2    local potential                                                             
   LCOR   =        T    correct aug charges                                                         
   LPAW   =        T    paw PP                                                                      
   EAUG   =  627.112                                                                                
   DEXC   =    0.000                                                                                
   RMAX   =    1.529    core radius for proj-oper                                                   
   RAUG   =    1.300    factor for augmentation sphere                                              
   RDEP   =    1.514    radius for radial grids                                                     
   RDEPT  =    1.338    core radius for aug-charge                                                  
                                                                                                    
   Atomic configuration                                                                             
    4 entries                                                                                       
     n  l   j            E        occ.                                                              
     1  0  0.50      -384.7179   2.0000                                                             
     2  0  0.50       -18.5828   2.0000                                                             
     2  1  0.50        -7.0898   3.0000                                                             
     3  2  1.50        -6.8029   0.0000                                                             
   Description                                                                                      
     l       E           TYP  RCUT    TYP  RCUT                                                     
     0    -18.5828119     23  1.200                                                                 
     0    -13.5018863     23  1.200                                                                 
     1     -7.0897853     23  1.500                                                                 
     1      9.5240782     23  1.500                                                                 
     2     -6.8029130      7  1.500                                                                 
  local pseudopotential read in
  partial core-charges read in
  partial kinetic energy density read in
  atomic valenz-charges read in
  non local Contribution for L=           0  read in
    real space projection operators read in
  non local Contribution for L=           0  read in
    real space projection operators read in
  non local Contribution for L=           1  read in
    real space projection operators read in
  non local Contribution for L=           1  read in
    real space projection operators read in
    PAW grid and wavefunctions read in
 
   number of l-projection  operators is LMAX  =           4
   number of lm-projection operators is LMMAX =           8
 
 POTCAR:    PAW_PBE H 15Jun2001                   
   SHA256 =  030f79b5d3ab3cf0e668861823c8fb652ff669f3e15e46930bd03bfd63a607b6 H/POTCAR              
   COPYR  = (c) Copyright 15Jun2001 Georg Kresse                                                    
   COPYR  = This file is part of the software VASP. Any use, copying, and all other rights are regul
   COPYR  = If you do not have a valid VASP license, you may not use, copy or distribute this file. 
   VRHFIN =H: ultrasoft test                                                                        
   LEXCH  = PE                                                                                      
   EATOM  =    12.4884 eV,    0.9179 Ry                                                             
                                                                                                    
   TITEL  = PAW_PBE H 15Jun2001                                                                     
   LULTRA =        F    use ultrasoft PP ?                                                          
   IUNSCR =        0    unscreen: 0-lin 1-nonlin 2-no                                               
   RPACOR =    0.000    partial core radius                                                         
   POMASS =    1.000; ZVAL   =    1.000    mass and valenz                                          
   RCORE  =    1.100    outmost cutoff radius                                                       
   RWIGS  =    0.700; RWIGS  =    0.370    wigner-seitz radius (au A)                               
   ENMAX  =  250.000; ENMIN  =  200.000 eV                                                          
   RCLOC  =    0.701    cutoff for local pot                                                        
   LCOR   =        T    correct aug charges                                                         
   LPAW   =        T    paw PP                                                                      
   EAUG   =  400.000                                                                                
   RMAX   =    1.123    core radius for proj-oper                                                   
   RAUG   =    1.200    factor for augmentation sphere                                              
   RDEP   =    1.112    radius for radial grids                                                     
   RDEPT  =    0.926    core radius for aug-charge                                                  
                                                                                                    
   Atomic configuration                                                                             
    2 entries                                                                                       
     n  l   j            E        occ.                                                              
     1  0  0.50        -6.4927   1.0000                                                             
     2  1  0.50        -3.4015   0.0000                                                             
   Description                                                                                      
     l       E           TYP  RCUT    TYP  RCUT                                                     
     0     -6.4927494     23  1.100                                                                 
     0      6.8029130     23  1.100                                                                 
     1     -4.0817478     23  1.100                                                                 
  local pseudopotential read in
  atomic valenz-charges read in
  non local Contribution for L=           0  read in
    real space projection operators read in
  non local Contribution for L=           0  read in
    real space projection operators read in
  non local Contribution for L=           1  read in
    real space projection operators read in
    PAW grid and wavefunctions read in
 
   number of l-projection  operators is LMAX  =           3
   number of lm-projection operators is LMMAX =           5
 
 POTCAR:    PAW_PBE Ti_pv 07Sep2000               
   SHA256 =  f757a1b2c6d082f4c628fa3d987464a8763bf92e53844ac0500b0e2ddc9ce5c0 Ti_pv/POTCAR          
   COPYR  = (c) Copyright 07Sep2000 Georg Kresse                                                    
   COPYR  = This file is part of the software VASP. Any use, copying, and all other rights are regul
   COPYR  = If you do not have a valid VASP license, you may not use, copy or distribute this file. 
   VRHFIN =Ti: d3 s1                                                                                
   LEXCH  = PE                                                                                      
   EATOM  =  1042.5995 eV,   76.6289 Ry                                                             
                                                                                                    
   TITEL  = PAW_PBE Ti_pv 07Sep2000                                                                 
   LULTRA =        F    use ultrasoft PP ?                                                          
   IUNSCR =        1    unscreen: 0-lin 1-nonlin 2-no                                               
   RPACOR =    2.200    partial core radius                                                         
   POMASS =   47.880; ZVAL   =   10.000    mass and valenz                                          
   RCORE  =    2.500    outmost cutoff radius                                                       
   RWIGS  =    2.500; RWIGS  =    1.323    wigner-seitz radius (au A)                               
   ENMAX  =  222.335; ENMIN  =  166.751 eV                                                          
   RCLOC  =    1.701    cutoff for local pot                                                        
   LCOR   =        T    correct aug charges                                                         
   LPAW   =        T    paw PP                                                                      
   EAUG   =  482.848                                                                                
   DEXC   =    0.000                                                                                
   RMAX   =    2.564    core radius for proj-oper                                                   
   RAUG   =    1.300    factor for augmentation sphere                                              
   RDEP   =    2.538    radius for radial grids                                                     
   RDEPT  =    1.952    core radius for aug-charge                                                  
                                                                                                    
   Atomic configuration                                                                             
    8 entries                                                                                       
     n  l   j            E        occ.                                                              
     1  0  0.50     -4865.3608   2.0000                                                             
     2  0  0.50      -533.1368   2.0000                                                             
     2  1  1.50      -440.5031   6.0000                                                             
     3  0  0.50       -59.3186   2.0000                                                             
     3  1  1.50       -35.7012   6.0000                                                             
     3  2  2.50        -1.9157   3.0000                                                             
     4  0  0.50        -3.7291   1.0000                                                             
     4  3  2.50        -1.3606   0.0000                                                             
   Description                                                                                      
     l       E           TYP  RCUT    TYP  RCUT                                                     
     1    -35.7012140     23  2.300                                                                 
     1     -1.3605826     23  2.300                                                                 
     2     -1.9156996     23  2.500                                                                 
     2     -0.4063033     23  2.500                                                                 
     0     -3.7290856     23  2.500                                                                 
     0     20.4087390     23  2.500                                                                 
  local pseudopotential read in
  partial core-charges read in
  partial kinetic energy density read in
  atomic valenz-charges read in
  non local Contribution for L=           1  read in
    real space projection operators read in
  non local Contribution for L=           1  read in
    real space projection operators read in
  non local Contribution for L=           2  read in
    real space projection operators read in
  non local Contribution for L=           2  read in
    real space projection operators read in
  non local Contribution for L=           0  read in
    real space projection operators read in
  non local Contribution for L=           0  read in
    real space projection operators read in
    PAW grid and wavefunctions read in
 
   number of l-projection  operators is LMAX  =           6
   number of lm-projection operators is LMMAX =          18
 
 POTCAR:    PAW_PBE O 08Apr2002                   
   SHA256 =  818f92134a0a090dccd8ba1447fa70422a3b330e708bb4f08108d8ae51209ddf O/POTCAR              
   COPYR  = (c) Copyright 08Apr2002 Georg Kresse                                                    
   COPYR  = This file is part of the software VASP. Any use, copying, and all other rights are regul
   COPYR  = If you do not have a valid VASP license, you may not use, copy or distribute this file. 
   VRHFIN =O: s2p4                                                                                  
   LEXCH  = PE                                                                                      
   EATOM  =   432.3788 eV,   31.7789 Ry                                                             
                                                                                                    
   TITEL  = PAW_PBE O 08Apr2002                                                                     
   LULTRA =        F    use ultrasoft PP ?                                                          
   IUNSCR =        1    unscreen: 0-lin 1-nonlin 2-no                                               
   RPACOR =    1.200    partial core radius                                                         
   POMASS =   16.000; ZVAL   =    6.000    mass and valenz                                          
   RCORE  =    1.520    outmost cutoff radius                                                       
   RWIGS  =    1.550; RWIGS  =    0.820    wigner-seitz radius (au A)                               
   ENMAX  =  400.000; ENMIN  =  300.000 eV                                                          
   ICORE  =        2    local potential                                                             
   LCOR   =        T    correct aug charges                                                         
   LPAW   =        T    paw PP                                                                      
   EAUG   =  605.392                                                                                
   DEXC   =    0.000                                                                                
   RMAX   =    1.553    core radius for proj-oper                                                   
   RAUG   =    1.300    factor for augmentation sphere                                              
   RDEP   =    1.550    radius for radial grids                                                     
   RDEPT  =    1.329    core radius for aug-charge                                                  
                                                                                                    
   Atomic configuration                                                                             
    4 entries                                                                                       
     n  l   j            E        occ.                                                              
     1  0  0.50      -514.6923   2.0000                                                             
     2  0  0.50       -23.9615   2.0000                                                             
     2  1  0.50        -9.0305   4.0000                                                             
     3  2  1.50        -9.5241   0.0000                                                             
   Description                                                                                      
     l       E           TYP  RCUT    TYP  RCUT                                                     
     0    -23.9615318     23  1.200                                                                 
     0     -9.5240782     23  1.200                                                                 
     1     -9.0304911     23  1.520                                                                 
     1      8.1634956     23  1.520                                                                 
     2     -9.5240782      7  1.500                                                                 
  local pseudopotential read in
  partial core-charges read in
  partial kinetic energy density read in
  kinetic energy density of atom read in
  atomic valenz-charges read in
  non local Contribution for L=           0  read in
    real space projection operators read in
  non local Contribution for L=           0  read in
    real space projection operators read in
  non local Contribution for L=           1  read in
    real space projection operators read in
  non local Contribution for L=           1  read in
    real space projection operators read in
    PAW grid and wavefunctions read in
 
   number of l-projection  operators is LMAX  =           4
   number of lm-projection operators is LMMAX =           8
 
 -----------------------------------------------------------------------------
|                                                                             |
|               ----> ADVICE to this user running VASP <----                  |
|                                                                             |
|     You have a (more or less) 'large supercell' and for larger cells it     |
|     might be more efficient to use real-space projection operators.         |
|     Therefore, try LREAL= Auto in the INCAR file.                           |
|     Mind: For very accurate calculation, you might also keep the            |
|     reciprocal projection scheme (i.e. LREAL=.FALSE.).                      |
|                                                                             |
 -----------------------------------------------------------------------------

 -----------------------------------------------------------------------------
|                                                                             |
|               ----> ADVICE to this user running VASP <----                  |
|                                                                             |
|     You enforced a specific xc type in the INCAR file but a different       |
|     type was found in the POTCAR file.                                      |
|     I HOPE YOU KNOW WHAT YOU ARE DOING!                                     |
|                                                                             |
 -----------------------------------------------------------------------------

  PAW_PBE N 08Apr2002                   :
 energy of atom  1       EATOM= -264.5486
 kinetic energy error for atom=    0.0103 (will be added to EATOM!!)
  PAW_PBE H 15Jun2001                   :
 energy of atom  2       EATOM=  -12.4884
 kinetic energy error for atom=    0.0004 (will be added to EATOM!!)
  PAW_PBE Ti_pv 07Sep2000               :
 energy of atom  3       EATOM=-1042.5995
 kinetic energy error for atom=    0.0007 (will be added to EATOM!!)
  PAW_PBE O 08Apr2002                   :
 energy of atom  4       EATOM= -432.3788
 kinetic energy error for atom=    0.0168 (will be added to EATOM!!)
 
 
 POSCAR:  N  H Ti  O
  positions in direct lattice
  No initial velocities read in
 exchange correlation table for  LEXCH =       43
   RHO(1)=    0.500       N(1)  =     2000
   RHO(2)=  100.500       N(2)  =     4000
 


--------------------------------------------------------------------------------------------------------


 ion  position               nearest neighbor table
   1  0.600  0.500  0.783-   2 1.02   3 1.02   4 1.02  52 2.35
   2  0.532  0.500  0.809-   1 1.02
   3  0.657  0.429  0.788-   1 1.02
   4  0.657  0.571  0.788-   1 1.02
   5  0.815  0.833  0.293-  55 1.97  89 1.97  57 1.97  54 2.02  56 2.02  22 3.11   6 3.11   8 3.11

   6  0.599  0.667  0.325-  53 1.97 120 1.97  56 1.97  58 1.97  59 2.02  57 2.02  37 3.11   5 3.11
                             7 3.11  11 3.15
   7  0.315  0.667  0.293-  59 1.97 125 1.97  61 1.97  53 2.02  60 2.02  40 3.11   8 3.11   6 3.11

   8  0.099  0.833  0.325-  54 1.97  92 1.97  60 1.97  62 1.97  55 2.02  61 2.02  23 3.11   7 3.11
                             5 3.11   9 3.15
   9  0.949  0.833  0.422-  63 1.95  97 1.96  65 1.96  64 2.01  55 2.01  62 2.04  12 3.05  26 3.10
                            10 3.10   8 3.15
  10  0.730  0.666  0.451-  58 1.91 128 1.96  64 1.97  66 2.00  67 2.01  65 2.03  11 3.06   9 3.10
                            41 3.11
  11  0.448  0.666  0.422-  67 1.95 133 1.96  69 1.96  59 2.01  68 2.01  58 2.04  10 3.06  12 3.11
                            44 3.11   6 3.15
  12  0.229  0.833  0.451-  62 1.91 100 1.97  68 1.97  63 2.00  70 2.01  69 2.04   9 3.05  27 3.11
                            11 3.11
  13  0.088  0.833  0.551-  71 1.95 105 1.96  73 1.96  72 2.00  70 2.04  63 2.05  16 3.00  14 3.10
                            30 3.11
  14  0.866  0.666  0.576-  66 1.88 136 1.96  75 1.98  72 1.98  73 2.04  74 2.05  15 3.02  13 3.10
                            45 3.11
  15  0.587  0.666  0.550- 141 1.96  75 1.96  77 1.96  76 2.00  67 2.03  66 2.05  14 3.02  16 3.11
                            48 3.12
  16  0.365  0.833  0.577-  70 1.88 108 1.97  76 1.97  71 1.98  78 2.04  77 2.05  13 3.00  15 3.11
                            31 3.11
  17  0.231  0.833  0.683-  79 1.88  81 1.95 113 1.97  80 2.02  78 2.13  71 2.15  20 2.89  34 3.12
                            18 3.14
  18  0.001  0.666  0.702-  74 1.79  82 1.86 144 2.00  80 2.02  81 2.09  19 2.90  17 3.14  49 3.15

  19  0.730  0.667  0.680-  82 1.90  84 1.96 148 1.96  83 2.02  75 2.09  74 2.13  18 2.90  20 3.13
                            52 3.13
  20  0.502  0.835  0.701-  78 1.79  79 1.86  83 1.99 115 2.00  84 2.09  17 2.89  35 3.13  19 3.13

  21  0.815  0.167  0.293-  87 1.97  89 1.97 121 1.97  86 2.02  88 2.02  22 3.11  38 3.11  24 3.11

  22  0.599  0.000  0.325-  85 1.97  56 1.97  88 1.97  90 1.97  89 2.02  91 2.02   5 3.11  21 3.11
                            23 3.11  27 3.15
  23  0.315  0.000  0.293-  91 1.97  61 1.97  93 1.97  92 2.02  85 2.02  24 3.11   8 3.11  22 3.11

  24  0.099  0.167  0.325-  86 1.97  92 1.97 124 1.97  94 1.97  87 2.02  93 2.02  23 3.11  39 3.11
                            21 3.11  25 3.15
  25  0.949  0.167  0.422-  95 1.95  97 1.96 129 1.96  96 2.01  87 2.01  94 2.04  28 3.05  26 3.10
                            42 3.10  24 3.15
  26  0.729  0.000  0.451-  90 1.91  64 1.97  96 1.97  99 2.00  98 2.01  97 2.04  27 3.06   9 3.10
                            25 3.10
  27  0.448  1.000  0.422-  99 1.95  69 1.96 101 1.96 100 2.01  91 2.01  90 2.04  26 3.06  12 3.11
                            28 3.11  22 3.15
  28  0.229  0.167  0.451-  94 1.91 100 1.97 132 1.97  95 2.00 102 2.01 101 2.04  25 3.05  27 3.11
                            43 3.11
  29  0.088  0.167  0.551- 103 1.95 105 1.96 137 1.96 104 2.00 102 2.04  95 2.05  32 3.00  46 3.10
                            30 3.11
  30  0.865  1.000  0.576-  98 1.88 107 1.97  72 1.97 104 1.97 106 2.05 105 2.06  31 3.00  29 3.11
                            13 3.11
  31  0.587  1.000  0.551- 107 1.95  77 1.96 109 1.96 108 2.00  99 2.04  98 2.04  30 3.00  32 3.11
                            16 3.11
  32  0.365  0.167  0.577- 102 1.88 108 1.97 140 1.97 103 1.98 110 2.04 109 2.05  29 3.00  47 3.11
                            31 3.11
  33  0.231  0.167  0.683- 111 1.88 145 1.95 113 1.97 112 2.02 110 2.13 103 2.15  36 2.89  34 3.12
                            50 3.14
  34  0.003  1.000  0.702- 106 1.80 114 1.86  80 2.01 112 2.01 113 2.07  35 2.88  33 3.12  17 3.12

  35  0.733  1.000  0.682- 114 1.88  84 1.95 116 1.95 115 2.03 106 2.12 107 2.15  34 2.88  20 3.13
                            36 3.13
  36  0.502  0.165  0.701- 110 1.79 111 1.86 147 1.99 115 2.00 116 2.09  33 2.89  35 3.13  51 3.13

  37  0.815  0.500  0.293- 119 1.97  57 1.97 121 1.97 120 2.02 118 2.02   6 3.11  38 3.11  40 3.11

  38  0.599  0.333  0.325- 117 1.97 120 1.97  88 1.97 122 1.97 121 2.02 123 2.02  37 3.11  21 3.11
                            39 3.11  43 3.15
  39  0.315  0.333  0.293- 123 1.97 125 1.97  93 1.97 124 2.02 117 2.02  40 3.11  24 3.11  38 3.11

  40  0.099  0.500  0.325- 118 1.97  60 1.97 124 1.97 126 1.97 125 2.02 119 2.02  39 3.11   7 3.11
                            37 3.11  41 3.13
  41  0.950  0.500  0.422- 127 1.95 129 1.96  65 1.96 119 2.01 128 2.02 126 2.02  44 3.05  42 3.11
                            10 3.11  40 3.13
  42  0.730  0.334  0.451- 122 1.91 128 1.96  96 1.97 130 2.00 131 2.01 129 2.03  43 3.06  25 3.10
                            41 3.11
  43  0.448  0.334  0.422- 131 1.95 133 1.96 101 1.96 123 2.01 132 2.01 122 2.04  42 3.06  28 3.11
                            44 3.11  38 3.15
  44  0.229  0.500  0.452- 126 1.94  68 1.97 132 1.97 127 1.98 134 2.01 133 2.05  41 3.05  11 3.11
                            43 3.11  45 3.14
  45  0.091  0.500  0.551- 135 1.93  73 1.96 137 1.96 134 2.01 136 2.03 127 2.06  48 3.00  46 3.11
                            14 3.11  44 3.14
  46  0.866  0.334  0.576- 130 1.88 136 1.96 139 1.98 104 1.98 137 2.04 138 2.05  47 3.02  29 3.10
                            45 3.11
  47  0.587  0.334  0.550- 141 1.96 139 1.96 109 1.96 140 2.00 131 2.03 130 2.05  46 3.02  32 3.11
                            48 3.12
  48  0.366  0.500  0.580- 134 1.93 135 1.97  76 1.97 140 1.97 142 2.03 141 2.06  45 3.00  47 3.12
                            15 3.12
  49  0.235  0.500  0.684- 143 1.87 145 1.96  81 1.96 144 2.06 142 2.07 135 2.16  52 2.92  18 3.15
                            50 3.15
  50  0.001  0.334  0.702- 138 1.79 146 1.86 144 2.00 112 2.02 145 2.09  51 2.90  33 3.14  49 3.15

  51  0.730  0.333  0.680- 146 1.90 116 1.96 148 1.96 147 2.02 139 2.09 138 2.13  50 2.90  36 3.13
                            52 3.13
  52  0.506  0.500  0.707- 143 1.87 142 1.89  83 2.01 147 2.01 148 2.09   1 2.35  49 2.92  19 3.13
                            51 3.13
  53  0.494  0.667  0.267-   6 1.97   7 2.02
  54  0.994  0.833  0.267-   8 1.97   5 2.02
  55  0.919  0.833  0.351-   5 1.97   9 2.01   8 2.02
  56  0.636  0.833  0.320-  22 1.97   6 1.97   5 2.02
  57  0.778  0.667  0.299-  37 1.97   5 1.97   6 2.02
  58  0.628  0.667  0.394-  10 1.91   6 1.97  11 2.04
  59  0.419  0.667  0.351-   7 1.97  11 2.01   6 2.02
  60  0.136  0.667  0.320-  40 1.97   8 1.97   7 2.02
  61  0.278  0.833  0.299-  23 1.97   7 1.97   8 2.02
  62  0.128  0.833  0.394-  12 1.91   8 1.97   9 2.04
  63  0.054  0.833  0.479-   9 1.95  12 2.00  13 2.05
  64  0.769  0.833  0.447-  26 1.97  10 1.97   9 2.01
  65  0.912  0.667  0.426-   9 1.96  41 1.96  10 2.03
  66  0.765  0.667  0.521-  14 1.88  10 2.00  15 2.05
  67  0.554  0.666  0.479-  11 1.95  10 2.01  15 2.03
  68  0.269  0.667  0.447-  44 1.97  12 1.97  11 2.01
  69  0.411  0.833  0.426-  27 1.96  11 1.96  12 2.04
  70  0.265  0.833  0.521-  16 1.88  12 2.01  13 2.04
  71  0.195  0.833  0.607-  13 1.95  16 1.98  17 2.15
  72  0.907  0.833  0.574-  30 1.97  14 1.98  13 2.00
  73  0.051  0.666  0.554-  13 1.96  45 1.96  14 2.04
  74  0.913  0.667  0.647-  18 1.79  14 2.05  19 2.13
  75  0.696  0.667  0.607-  15 1.96  14 1.98  19 2.09
  76  0.407  0.666  0.575-  48 1.97  16 1.97  15 2.00
  77  0.550  0.833  0.554-  15 1.96  31 1.96  16 2.05
  78  0.411  0.835  0.647-  20 1.79  16 2.04  17 2.13
  79  0.348  0.833  0.734-  20 1.86  17 1.88
  80  0.053  0.833  0.710-  34 2.01  18 2.02  17 2.02
  81  0.194  0.666  0.683-  17 1.95  49 1.96  18 2.09
  82  0.844  0.665  0.733-  18 1.86  19 1.90
  83  0.554  0.669  0.709-  20 1.99  52 2.01  19 2.02
  84  0.695  0.834  0.681-  35 1.95  19 1.96  20 2.09
  85  0.494  0.000  0.267-  22 1.97  23 2.02
  86  0.994  0.167  0.267-  24 1.97  21 2.02
  87  0.919  0.167  0.351-  21 1.97  25 2.01  24 2.02
  88  0.636  0.167  0.320-  22 1.97  38 1.97  21 2.02
  89  0.778  0.000  0.299-   5 1.97  21 1.97  22 2.02
  90  0.628  0.000  0.394-  26 1.91  22 1.97  27 2.04
  91  0.419  0.000  0.351-  23 1.97  27 2.01  22 2.02
  92  0.136  0.000  0.320-   8 1.97  24 1.97  23 2.02
  93  0.278  0.167  0.299-  23 1.97  39 1.97  24 2.02
  94  0.128  0.167  0.394-  28 1.91  24 1.97  25 2.04
  95  0.054  0.167  0.479-  25 1.95  28 2.00  29 2.05
  96  0.769  0.167  0.447-  26 1.97  42 1.97  25 2.01
  97  0.912  0.000  0.426-  25 1.96   9 1.96  26 2.04
  98  0.765  0.000  0.521-  30 1.88  26 2.01  31 2.04
  99  0.554  1.000  0.479-  27 1.95  26 2.00  31 2.04
 100  0.269  0.000  0.447-  12 1.97  28 1.97  27 2.01
 101  0.411  0.167  0.426-  27 1.96  43 1.96  28 2.04
 102  0.265  0.167  0.521-  32 1.88  28 2.01  29 2.04
 103  0.195  0.167  0.607-  29 1.95  32 1.98  33 2.15
 104  0.907  0.167  0.574-  30 1.97  46 1.98  29 2.00
 105  0.051  0.000  0.554-  29 1.96  13 1.96  30 2.06
 106  0.912  1.000  0.647-  34 1.80  30 2.05  35 2.12
 107  0.696  1.000  0.607-  31 1.95  30 1.97  35 2.15
 108  0.407  1.000  0.574-  32 1.97  16 1.97  31 2.00
 109  0.550  0.167  0.554-  47 1.96  31 1.96  32 2.05
 110  0.411  0.165  0.647-  36 1.79  32 2.04  33 2.13
 111  0.348  0.167  0.734-  36 1.86  33 1.88
 112  0.053  0.167  0.710-  34 2.01  50 2.02  33 2.02
 113  0.194  1.000  0.683-  17 1.97  33 1.97  34 2.07
 114  0.847  1.000  0.733-  34 1.86  35 1.88
 115  0.555  1.000  0.710-  20 2.00  36 2.00  35 2.03
 116  0.695  0.166  0.681-  35 1.95  51 1.96  36 2.09
 117  0.494  0.333  0.267-  38 1.97  39 2.02
 118  0.994  0.500  0.267-  40 1.97  37 2.02
 119  0.919  0.500  0.351-  37 1.97  41 2.01  40 2.02
 120  0.636  0.500  0.320-   6 1.97  38 1.97  37 2.02
 121  0.778  0.333  0.299-  37 1.97  21 1.97  38 2.02
 122  0.628  0.333  0.394-  42 1.91  38 1.97  43 2.04
 123  0.419  0.333  0.351-  39 1.97  43 2.01  38 2.02
 124  0.136  0.333  0.320-  40 1.97  24 1.97  39 2.02
 125  0.278  0.500  0.299-   7 1.97  39 1.97  40 2.02
 126  0.128  0.500  0.394-  44 1.94  40 1.97  41 2.02
 127  0.055  0.500  0.479-  41 1.95  44 1.98  45 2.06
 128  0.769  0.500  0.447-  42 1.96  10 1.96  41 2.02
 129  0.912  0.333  0.426-  25 1.96  41 1.96  42 2.03
 130  0.765  0.333  0.521-  46 1.88  42 2.00  47 2.05
 131  0.554  0.334  0.479-  43 1.95  42 2.01  47 2.03
 132  0.269  0.333  0.447-  44 1.97  28 1.97  43 2.01
 133  0.412  0.500  0.426-  11 1.96  43 1.96  44 2.05
 134  0.266  0.500  0.522-  48 1.93  45 2.01  44 2.01
 135  0.195  0.500  0.608-  45 1.93  48 1.97  49 2.16
 136  0.907  0.500  0.574-  46 1.96  14 1.96  45 2.03
 137  0.051  0.334  0.554-  29 1.96  45 1.96  46 2.04
 138  0.913  0.333  0.647-  50 1.79  46 2.05  51 2.13
 139  0.696  0.333  0.607-  47 1.96  46 1.98  51 2.09
 140  0.407  0.334  0.575-  48 1.97  32 1.97  47 2.00
 141  0.551  0.500  0.555-  47 1.96  15 1.96  48 2.06
 142  0.411  0.500  0.650-  52 1.89  48 2.03  49 2.07
 143  0.345  0.500  0.736-  49 1.87  52 1.87
 144  0.052  0.500  0.710-  18 2.00  50 2.00  49 2.06
 145  0.194  0.334  0.683-  33 1.95  49 1.96  50 2.09
 146  0.844  0.335  0.733-  50 1.86  51 1.90
 147  0.554  0.331  0.709-  36 1.99  52 2.01  51 2.02
 148  0.692  0.500  0.681-  19 1.96  51 1.96  52 2.09
 

IMPORTANT INFORMATION: All symmetrisations will be switched off!
NOSYMM: (Re-)initialisation of all symmetry stuff for point group C_1.


----------------------------------------------------------------------------------------

                                     Primitive cell                                     

  volume of cell :    3395.7474

  direct lattice vectors                    reciprocal lattice vectors
    10.494937820  0.000000000  0.000000000     0.095284033 -0.000000000  0.000000000
     0.000000000 11.517876715  0.000000000     0.000000000  0.086821558  0.000000000
     0.000000000  0.000000000 28.092027652     0.000000000  0.000000000  0.035597288

  length of vectors
    10.494937820 11.517876715 28.092027652     0.095284033  0.086821558  0.035597288

  position of ions in fractional coordinates (direct lattice)
     0.599891980  0.499992182  0.782842500
     0.532301550  0.499999729  0.808995943
     0.656668774  0.428786308  0.787582457
     0.656674105  0.571219601  0.787583362
     0.815063392  0.833333333  0.293307909
     0.598520054  0.666666667  0.325106693
     0.315063392  0.666666667  0.293307909
     0.098520054  0.833333333  0.325106693
     0.948777718  0.833386142  0.422125723
     0.729747074  0.666271928  0.450725369
     0.448445218  0.666392486  0.422028301
     0.228968787  0.833261379  0.450960867
     0.087535420  0.833398253  0.551011164
     0.865872879  0.665960136  0.576038515
     0.586601249  0.666437657  0.550341400
     0.364686682  0.833377439  0.576802640
     0.231141498  0.832684106  0.682791055
     0.000558592  0.665576878  0.701678480
     0.730106558  0.666814069  0.680195304
     0.502324935  0.834614329  0.701335852
     0.815063392  0.166666667  0.293307909
     0.598520054  0.000000000  0.325106693
     0.315063392  0.000000000  0.293307909
     0.098520054  0.166666667  0.325106693
     0.948777722  0.166613873  0.422125727
     0.729304357  0.000000007  0.450729878
     0.448426350  0.999999995  0.422105784
     0.228968785  0.166738633  0.450960854
     0.087535359  0.166601724  0.551011157
     0.864838517  0.999999982  0.576372350
     0.587118881  0.999999982  0.550612213
     0.364686683  0.166622523  0.576802611
     0.231141406  0.167315836  0.682791023
     0.002600261  0.999999954  0.701664644
     0.732814269  0.999999850  0.682060009
     0.502324868  0.165385557  0.701335781
     0.815063392  0.500000000  0.293307909
     0.598520054  0.333333333  0.325106693
     0.315063392  0.333333333  0.293307909
     0.098520054  0.500000000  0.325106693
     0.950152768  0.500000007  0.421910636
     0.729747104  0.333728095  0.450725364
     0.448445204  0.333607518  0.422028295
     0.229167342  0.500000019  0.451941183
     0.090551643  0.500000049  0.551196102
     0.865872991  0.334039903  0.576038487
     0.586601201  0.333562401  0.550341381
     0.366114341  0.500000043  0.579825303
     0.234975865  0.500000017  0.683556537
     0.000558492  0.334423093  0.701678474
     0.730106480  0.333185721  0.680195199
     0.505536306  0.500000148  0.707139846
     0.494353489  0.666666667  0.266979660
     0.994353489  0.833333333  0.266979660
     0.919229957  0.833333333  0.351434942
     0.635773295  0.833333333  0.319636158
     0.777810152  0.666666667  0.298778443
     0.628180138  0.666666667  0.394174793
     0.419229957  0.666666667  0.351434942
     0.135773295  0.666666667  0.319636158
     0.277810152  0.833333333  0.298778443
     0.128180138  0.833333333  0.394174793
     0.054314102  0.833298131  0.479173885
     0.769453780  0.833305196  0.446848394
     0.911845286  0.666549066  0.426259375
     0.764876728  0.666591764  0.520822129
     0.554024409  0.666238068  0.479276534
     0.269362759  0.666504688  0.447243464
     0.411425988  0.833244622  0.426263571
     0.265008247  0.832853535  0.521272321
     0.195119735  0.832974102  0.607397407
     0.907058272  0.833383598  0.573690678
     0.051255862  0.666480625  0.553795102
     0.912625406  0.666559091  0.646904307
     0.696384200  0.667322350  0.606749865
     0.407388303  0.666492122  0.574972535
     0.550163803  0.833195366  0.553763481
     0.410980523  0.835477131  0.647415875
     0.347752487  0.832976696  0.733548359
     0.052908241  0.832900364  0.709949637
     0.194020174  0.666441450  0.683348295
     0.844060426  0.664973850  0.732661884
     0.553583532  0.669135028  0.708539217
     0.694503402  0.833989668  0.681494269
     0.494353489  0.000000000  0.266979660
     0.994353489  0.166666667  0.266979660
     0.919229957  0.166666667  0.351434942
     0.635773295  0.166666667  0.319636158
     0.777810152  0.000000000  0.298778443
     0.628180138  0.000000000  0.394174793
     0.419229957  0.000000000  0.351434942
     0.135773295  0.000000000  0.319636158
     0.277810152  0.166666667  0.298778443
     0.128180138  0.166666667  0.394174793
     0.054314100  0.166701908  0.479173886
     0.769453774  0.166694826  0.446848395
     0.911866881  0.000000012  0.426271352
     0.764981190  0.000000025  0.520905458
     0.554230307  0.999999995  0.479122757
     0.269287157  0.000000003  0.447175654
     0.411425993  0.166755379  0.426263573
     0.265008220  0.167146468  0.521272324
     0.195119649  0.167025906  0.607397407
     0.907058274  0.166616417  0.573690667
     0.051316693  0.000000004  0.553873915
     0.912366621  0.999999964  0.647326737
     0.695848092  0.999999953  0.606792143
     0.406571138  0.999999994  0.573785326
     0.550163796  0.166804635  0.553763499
     0.410980447  0.164522641  0.647415791
     0.347752493  0.167023203  0.733548294
     0.052908235  0.167099591  0.709949608
     0.193657782  0.999999961  0.683024096
     0.847112943  0.999999885  0.733359785
     0.554798471  0.999999955  0.710215710
     0.694503410  0.166010221  0.681494255
     0.494353489  0.333333333  0.266979660
     0.994353489  0.500000000  0.266979660
     0.919229957  0.500000000  0.351434942
     0.635773295  0.500000000  0.319636158
     0.777810152  0.333333333  0.298778443
     0.628180138  0.333333333  0.394174793
     0.419229957  0.333333333  0.351434942
     0.135773295  0.333333333  0.319636158
     0.277810152  0.500000000  0.298778443
     0.128180138  0.500000000  0.394174793
     0.054974044  0.500000017  0.479250483
     0.769459590  0.500000013  0.446826351
     0.911845273  0.333450953  0.426259378
     0.764876742  0.333408271  0.520822121
     0.554024407  0.333761936  0.479276550
     0.269362759  0.333495325  0.447243463
     0.411699342  0.500000006  0.426315767
     0.265818162  0.499999999  0.522254960
     0.194691962  0.500000019  0.607992657
     0.906768342  0.500000028  0.573616899
     0.051255883  0.333519418  0.553795098
     0.912625476  0.333440916  0.646904268
     0.696384239  0.332677662  0.606749860
     0.407388299  0.333507876  0.574972550
     0.550863315  0.499999988  0.554579887
     0.410536430  0.500000119  0.650136991
     0.344834836  0.500000084  0.735759842
     0.052032729  0.499999972  0.710163524
     0.194020272  0.333558567  0.683348305
     0.844060345  0.335026075  0.732661848
     0.553583434  0.330865032  0.708539075
     0.692091385  0.499999998  0.680947653

  ion indices of the primitive-cell ions
   primitive index   ion index
                 1           1
                 2           2
                 3           3
                 4           4
                 5           5
                 6           6
                 7           7
                 8           8
                 9           9
                10          10
                11          11
                12          12
                13          13
                14          14
                15          15
                16          16
                17          17
                18          18
                19          19
                20          20
                21          21
                22          22
                23          23
                24          24
                25          25
                26          26
                27          27
                28          28
                29          29
                30          30
                31          31
                32          32
                33          33
                34          34
                35          35
                36          36
                37          37
                38          38
                39          39
                40          40
                41          41
                42          42
                43          43
                44          44
                45          45
                46          46
                47          47
                48          48
                49          49
                50          50
                51          51
                52          52
                53          53
                54          54
                55          55
                56          56
                57          57
                58          58
                59          59
                60          60
                61          61
                62          62
                63          63
                64          64
                65          65
                66          66
                67          67
                68          68
                69          69
                70          70
                71          71
                72          72
                73          73
                74          74
                75          75
                76          76
                77          77
                78          78
                79          79
                80          80
                81          81
                82          82
                83          83
                84          84
                85          85
                86          86
                87          87
                88          88
                89          89
                90          90
                91          91
                92          92
                93          93
                94          94
                95          95
                96          96
                97          97
                98          98
                99          99
               100         100
               101         101
               102         102
               103         103
               104         104
               105         105
               106         106
               107         107
               108         108
               109         109
               110         110
               111         111
               112         112
               113         113
               114         114
               115         115
               116         116
               117         117
               118         118
               119         119
               120         120
               121         121
               122         122
               123         123
               124         124
               125         125
               126         126
               127         127
               128         128
               129         129
               130         130
               131         131
               132         132
               133         133
               134         134
               135         135
               136         136
               137         137
               138         138
               139         139
               140         140
               141         141
               142         142
               143         143
               144         144
               145         145
               146         146
               147         147
               148         148

----------------------------------------------------------------------------------------

 
 
 KPOINTS: pymatgen v2020.8.13 with grid density = 

Automatic generation of k-mesh.
 Grid dimensions read from file:
 generate k-points for:    3    3    1

 Generating k-lattice:

  Cartesian coordinates                     Fractional coordinates (reciprocal lattice)
     0.031761344 -0.000000000  0.000000000     0.333333333 -0.000000000  0.000000000
     0.000000000  0.028940519  0.000000000     0.000000000  0.333333333  0.000000000
     0.000000000  0.000000000  0.035597288     0.000000000  0.000000000  1.000000000

  Length of vectors
     0.031761344  0.028940519  0.035597288

  Shift w.r.t. Gamma in fractional coordinates (k-lattice)
     0.000000000  0.000000000  0.000000000

 
 Subroutine IBZKPT returns following result:
 ===========================================
 
 Found      5 irreducible k-points:
 
 Following reciprocal coordinates:
            Coordinates               Weight
  0.000000  0.000000  0.000000      1.000000
  0.333333  0.000000  0.000000      2.000000
  0.000000  0.333333  0.000000      2.000000
  0.333333  0.333333  0.000000      2.000000
  0.333333 -0.333333  0.000000      2.000000
 
 Following cartesian coordinates:
            Coordinates               Weight
  0.000000  0.000000  0.000000      1.000000
  0.031761 -0.000000  0.000000      2.000000
  0.000000  0.028941  0.000000      2.000000
  0.031761  0.028941  0.000000      2.000000
  0.031761 -0.028941  0.000000      2.000000
 


--------------------------------------------------------------------------------------------------------




 Dimension of arrays:
   k-points           NKPTS =      5   k-points in BZ     NKDIM =      5   number of bands    NBANDS=    760
   number of dos      NEDOS =    301   number of ions     NIONS =    148
   non local maximal  LDIM  =      6   non local SUM 2l+1 LMDIM =     18
   total plane-waves  NPLWV = ******
   max r-space proj   IRMAX =      1   max aug-charges    IRDMAX=  20849
   dimension x,y,z NGX =    84 NGY =   96 NGZ =  224
   dimension x,y,z NGXF=   168 NGYF=  192 NGZF=  448
   support grid    NGXF=   168 NGYF=  192 NGZF=  448
   ions per type =               1   3  48  96
   NGX,Y,Z   is equivalent  to a cutoff of  13.31, 13.86, 13.26 a.u.
   NGXF,Y,Z  is equivalent  to a cutoff of  26.61, 27.71, 26.51 a.u.

 SYSTEM =  TiO2                                    
 POSCAR =   N  H Ti  O                             

--------------------------------------------------------------------------------------------------------


  energy-cutoff  :      600.00
  volume of cell :     3395.75
      direct lattice vectors                 reciprocal lattice vectors
    10.494937820  0.000000000  0.000000000     0.095284033 -0.000000000  0.000000000
     0.000000000 11.517876715  0.000000000     0.000000000  0.086821558  0.000000000
     0.000000000  0.000000000 28.092027652     0.000000000  0.000000000  0.035597288

  length of vectors
    10.494937820 11.517876715 28.092027652     0.095284033  0.086821558  0.035597288


 
 k-points in units of 2pi/SCALE and weight: pymatgen v2020.8.13 with grid density = 
   0.00000000  0.00000000  0.00000000       0.111
   0.03176134 -0.00000000  0.00000000       0.222
   0.00000000  0.02894052  0.00000000       0.222
   0.03176134  0.02894052  0.00000000       0.222
   0.03176134 -0.02894052  0.00000000       0.222
 
 k-points in reciprocal lattice and weights: pymatgen v2020.8.13 with grid density = 
   0.00000000  0.00000000  0.00000000       0.111
   0.33333333  0.00000000  0.00000000       0.222
   0.00000000  0.33333333  0.00000000       0.222
   0.33333333  0.33333333  0.00000000       0.222
   0.33333333 -0.33333333  0.00000000       0.222
 
 position of ions in fractional coordinates (direct lattice) 
   0.59989198  0.49999218  0.78284250
   0.53230155  0.49999973  0.80899594
   0.65666877  0.42878631  0.78758246
   0.65667410  0.57121960  0.78758336
   0.81506339  0.83333333  0.29330791
   0.59852005  0.66666667  0.32510669
   0.31506339  0.66666667  0.29330791
   0.09852005  0.83333333  0.32510669
   0.94877772  0.83338614  0.42212572
   0.72974707  0.66627193  0.45072537
   0.44844522  0.66639249  0.42202830
   0.22896879  0.83326138  0.45096087
   0.08753542  0.83339825  0.55101116
   0.86587288  0.66596014  0.57603852
   0.58660125  0.66643766  0.55034140
   0.36468668  0.83337744  0.57680264
   0.23114150  0.83268411  0.68279106
   0.00055859  0.66557688  0.70167848
   0.73010656  0.66681407  0.68019530
   0.50232494  0.83461433  0.70133585
   0.81506339  0.16666667  0.29330791
   0.59852005  0.00000000  0.32510669
   0.31506339  0.00000000  0.29330791
   0.09852005  0.16666667  0.32510669
   0.94877772  0.16661387  0.42212573
   0.72930436  0.00000001  0.45072988
   0.44842635  0.99999999  0.42210578
   0.22896879  0.16673863  0.45096085
   0.08753536  0.16660172  0.55101116
   0.86483852  0.99999998  0.57637235
   0.58711888  0.99999998  0.55061221
   0.36468668  0.16662252  0.57680261
   0.23114141  0.16731584  0.68279102
   0.00260026  0.99999995  0.70166464
   0.73281427  0.99999985  0.68206001
   0.50232487  0.16538556  0.70133578
   0.81506339  0.50000000  0.29330791
   0.59852005  0.33333333  0.32510669
   0.31506339  0.33333333  0.29330791
   0.09852005  0.50000000  0.32510669
   0.95015277  0.50000001  0.42191064
   0.72974710  0.33372810  0.45072536
   0.44844520  0.33360752  0.42202830
   0.22916734  0.50000002  0.45194118
   0.09055164  0.50000005  0.55119610
   0.86587299  0.33403990  0.57603849
   0.58660120  0.33356240  0.55034138
   0.36611434  0.50000004  0.57982530
   0.23497587  0.50000002  0.68355654
   0.00055849  0.33442309  0.70167847
   0.73010648  0.33318572  0.68019520
   0.50553631  0.50000015  0.70713985
   0.49435349  0.66666667  0.26697966
   0.99435349  0.83333333  0.26697966
   0.91922996  0.83333333  0.35143494
   0.63577329  0.83333333  0.31963616
   0.77781015  0.66666667  0.29877844
   0.62818014  0.66666667  0.39417479
   0.41922996  0.66666667  0.35143494
   0.13577329  0.66666667  0.31963616
   0.27781015  0.83333333  0.29877844
   0.12818014  0.83333333  0.39417479
   0.05431410  0.83329813  0.47917388
   0.76945378  0.83330520  0.44684839
   0.91184529  0.66654907  0.42625937
   0.76487673  0.66659176  0.52082213
   0.55402441  0.66623807  0.47927653
   0.26936276  0.66650469  0.44724346
   0.41142599  0.83324462  0.42626357
   0.26500825  0.83285353  0.52127232
   0.19511974  0.83297410  0.60739741
   0.90705827  0.83338360  0.57369068
   0.05125586  0.66648062  0.55379510
   0.91262541  0.66655909  0.64690431
   0.69638420  0.66732235  0.60674987
   0.40738830  0.66649212  0.57497254
   0.55016380  0.83319537  0.55376348
   0.41098052  0.83547713  0.64741587
   0.34775249  0.83297670  0.73354836
   0.05290824  0.83290036  0.70994964
   0.19402017  0.66644145  0.68334829
   0.84406043  0.66497385  0.73266188
   0.55358353  0.66913503  0.70853922
   0.69450340  0.83398967  0.68149427
   0.49435349  0.00000000  0.26697966
   0.99435349  0.16666667  0.26697966
   0.91922996  0.16666667  0.35143494
   0.63577329  0.16666667  0.31963616
   0.77781015  0.00000000  0.29877844
   0.62818014  0.00000000  0.39417479
   0.41922996  0.00000000  0.35143494
   0.13577329  0.00000000  0.31963616
   0.27781015  0.16666667  0.29877844
   0.12818014  0.16666667  0.39417479
   0.05431410  0.16670191  0.47917389
   0.76945377  0.16669483  0.44684839
   0.91186688  0.00000001  0.42627135
   0.76498119  0.00000002  0.52090546
   0.55423031  0.99999999  0.47912276
   0.26928716  0.00000000  0.44717565
   0.41142599  0.16675538  0.42626357
   0.26500822  0.16714647  0.52127232
   0.19511965  0.16702591  0.60739741
   0.90705827  0.16661642  0.57369067
   0.05131669  0.00000000  0.55387392
   0.91236662  0.99999996  0.64732674
   0.69584809  0.99999995  0.60679214
   0.40657114  0.99999999  0.57378533
   0.55016380  0.16680463  0.55376350
   0.41098045  0.16452264  0.64741579
   0.34775249  0.16702320  0.73354829
   0.05290823  0.16709959  0.70994961
   0.19365778  0.99999996  0.68302410
   0.84711294  0.99999988  0.73335979
   0.55479847  0.99999995  0.71021571
   0.69450341  0.16601022  0.68149425
   0.49435349  0.33333333  0.26697966
   0.99435349  0.50000000  0.26697966
   0.91922996  0.50000000  0.35143494
   0.63577329  0.50000000  0.31963616
   0.77781015  0.33333333  0.29877844
   0.62818014  0.33333333  0.39417479
   0.41922996  0.33333333  0.35143494
   0.13577329  0.33333333  0.31963616
   0.27781015  0.50000000  0.29877844
   0.12818014  0.50000000  0.39417479
   0.05497404  0.50000002  0.47925048
   0.76945959  0.50000001  0.44682635
   0.91184527  0.33345095  0.42625938
   0.76487674  0.33340827  0.52082212
   0.55402441  0.33376194  0.47927655
   0.26936276  0.33349533  0.44724346
   0.41169934  0.50000001  0.42631577
   0.26581816  0.50000000  0.52225496
   0.19469196  0.50000002  0.60799266
   0.90676834  0.50000003  0.57361690
   0.05125588  0.33351942  0.55379510
   0.91262548  0.33344092  0.64690427
   0.69638424  0.33267766  0.60674986
   0.40738830  0.33350788  0.57497255
   0.55086331  0.49999999  0.55457989
   0.41053643  0.50000012  0.65013699
   0.34483484  0.50000008  0.73575984
   0.05203273  0.49999997  0.71016352
   0.19402027  0.33355857  0.68334831
   0.84406035  0.33502607  0.73266185
   0.55358343  0.33086503  0.70853907
   0.69209139  0.50000000  0.68094765
 
 position of ions in cartesian coordinates  (Angst):
   6.29582903  5.75884832 21.99163315
   5.58647167  5.75893524 22.72633640
   6.89169795  4.93870783 22.12478817
   6.89175390  6.57923694 22.12481358
   8.55403962  9.59823060  8.23961390
   6.28143075  7.67858448  9.13290620
   3.30657071  7.67858448  8.23961390
   1.03396184  9.59823060  9.13290620
   9.95736316  9.59883884 11.85836747
   7.65865016  7.67403793 12.66178953
   4.70640467  7.67542650 11.85563069
   2.40301318  9.59740183 12.66840514
   0.91867879  9.59897834 15.47902084
   9.08728202  7.67044674 16.18208990
   6.15634363  7.67594677 15.46020583
   3.82736405  9.59873861 16.20355571
   2.42581565  9.59075288 19.18098520
   0.00586239  7.66603242 19.71157127
   7.66242293  7.68028224 19.10806529
   5.27186896  9.61298495 19.70194614
   8.55403962  1.91964612  8.23961390
   6.28143075  0.00000000  9.13290620
   3.30657071  0.00000000  8.23961390
   1.03396184  1.91964612  9.13290620
   9.95736320  1.91903805 11.85836758
   7.65400388  0.00000009 12.66191621
   4.70620666 11.51787666 11.85780737
   2.40301316  1.92047502 12.66840477
   0.91867815  1.91889812 15.47902065
   9.07642646 11.51787651 16.19146799
   6.16177615 11.51787650 15.46781352
   3.82736406  1.91913768 16.20355489
   2.42581469  1.92712317 19.18098429
   0.02728958 11.51787619 19.71118259
   7.69084018 11.51787498 19.16044863
   5.27186826  1.90489045 19.70194416
   8.55403962  5.75893836  8.23961390
   6.28143075  3.83929224  9.13290620
   3.30657071  3.83929224  8.23961390
   1.03396184  5.75893836  9.13290620
   9.97179421  5.75893843 11.85232524
   7.65865048  3.84383906 12.66178938
   4.70640453  3.84245027 11.85563055
   2.40509700  5.75893857 12.69594422
   0.95033387  5.75893893 15.48421614
   9.08728320  3.84743042 16.18208909
   6.15634313  3.84193062 15.46020530
   3.84234724  5.75893885 16.28846843
   2.46605710  5.75893856 19.20248914
   0.00586134  3.85184396 19.71157110
   7.66242211  3.83759206 19.10806234
   5.30557210  5.75894006 19.86499210
   5.18820913  7.67858448  7.50000000
  10.43567804  9.59823060  7.50000000
   9.64726124  9.59823060  9.87252010
   6.67240119  9.59823060  8.97922780
   8.16306918  7.67858448  8.39329230
   6.59271149  7.67858448 11.07316918
   4.39979233  7.67858448  9.87252010
   1.42493229  7.67858448  8.97922780
   2.91560027  9.59823060  8.39329230
   1.34524258  9.59823060 11.07316918
   0.57002312  9.59782514 13.46096603
   8.07536958  9.59790651 12.55287744
   9.56975958  7.67722997 11.97449014
   8.02733370  7.67772175 14.63094965
   5.81445172  7.67364793 13.46384964
   2.82694540  7.67671883 12.56397575
   4.31789016  9.59720882 11.97460803
   2.78124507  9.59270433 14.64359645
   2.04776949  9.59409301 17.06302474
   9.51952016  9.59880954 16.11613439
   0.53792709  7.67644167 15.55722731
   9.57794689  7.67734544 18.17285369
   7.30850887  7.68613655 17.04483399
   4.27551490  7.67657409 16.15214435
   5.77393490  9.59664150 15.55633902
   4.31321504  9.62292259 18.18722465
   3.64964073  9.59412289 20.60686079
   0.55526869  9.59324371 19.94392482
   2.03622966  7.67599046 19.19663920
   8.85836168  7.65908682 20.58195791
   5.80982475  7.70701476 19.90430327
   7.28877002  9.60579018 19.14455586
   5.18820913  0.00000000  7.50000000
  10.43567804  1.91964612  7.50000000
   9.64726124  1.91964612  9.87252010
   6.67240119  1.91964612  8.97922780
   8.16306918  0.00000000  8.39329230
   6.59271149  0.00000000 11.07316918
   4.39979233  0.00000000  9.87252010
   1.42493229  0.00000000  8.97922780
   2.91560027  1.91964612  8.39329230
   1.34524258  1.91964612 11.07316918
   0.57002310  1.92005202 13.46096607
   8.07536952  1.91997046 12.55287746
   9.56998622  0.00000014 11.97482662
   8.02843002  0.00000028 14.63329052
   5.81661261 11.51787665 13.45952975
   2.82615196  0.00000004 12.56207083
   4.31789021  1.92066790 11.97460808
   2.78124479  1.92517241 14.64359655
   2.04776859  1.92378380 17.06302475
   9.51952018  1.91906735 16.11613408
   0.53856550  0.00000004 15.55944134
   9.57523096 11.51787630 18.18472060
   7.30288246 11.51787617 17.04602166
   4.26693881 11.51787665 16.11879325
   5.77393482  1.92123522 15.55633952
   4.31321424  1.89495150 18.18722230
   3.64964079  1.92375266 20.60685895
   0.55526864  1.92463249 19.94392401
   2.03242638 11.51787627 19.18753178
   8.89039766 11.51787539 20.60156336
   5.82257545 11.51787620 19.95139936
   7.28877011  1.91208526 19.14455545
   5.18820913  3.83929224  7.50000000
  10.43567804  5.75893836  7.50000000
   9.64726124  5.75893836  9.87252010
   6.67240119  5.75893836  8.97922780
   8.16306918  3.83929224  8.39329230
   6.59271149  3.83929224 11.07316918
   4.39979233  3.83929224  9.87252010
   1.42493229  3.83929224  8.97922780
   2.91560027  5.75893836  8.39329230
   1.34524258  5.75893836 11.07316918
   0.57694918  5.75893855 13.46311782
   8.07543055  5.75893850 12.55225821
   9.56975944  3.84064697 11.97449022
   8.02733384  3.84015536 14.63094943
   5.81445171  3.84422883 13.46385010
   2.82694540  3.84115804 12.56397572
   4.32075899  5.75893843 11.97607431
   2.78974508  5.75893834 14.67120077
   2.04328003  5.75893857 17.07974654
   9.51647736  5.75893868 16.11406178
   0.53792730  3.84143554 15.55722722
   9.57794763  3.84053136 18.17285258
   7.30850928  3.83174029 17.04483386
   4.27551486  3.84130259 16.15214476
   5.78127623  5.75893821 15.57927352
   4.30855431  5.75893973 18.26366632
   3.61902016  5.75893932 20.66898582
   0.54608026  5.75893804 19.94993336
   2.03623069  3.84188645 19.19663949
   8.85836084  3.85878902 20.58195688
   5.80982371  3.81086265 19.90429928
   7.26345605  5.75893834 19.12920030
 


--------------------------------------------------------------------------------------------------------

--------------------------------------- Iteration      FINAL  ---------------------------------------


--------------------OUTCAR has been truncated-------------------------


--------------------OUTCAR has been truncated-------------------------


--------------------OUTCAR has been truncated-------------------------


--------------------OUTCAR has been truncated-------------------------


--------------------OUTCAR has been truncated-------------------------


--------------------OUTCAR has been truncated-------------------------


--------------------OUTCAR has been truncated-------------------------


--------------------OUTCAR has been truncated-------------------------


--------------------OUTCAR has been truncated-------------------------


--------------------OUTCAR has been truncated-------------------------


  FORCE on cell =-STRESS in cart. coord.  units (eV):
  Direction    XX          YY          ZZ          XY          YZ          ZX
  --------------------------------------------------------------------------------------
  Alpha Z  2345.80891  2345.80891  2345.80891
  Ewald  464254.02391457344.15732************    -0.01730     0.00003 -1771.36342
  Hartree485544.04236481326.27308************    -0.00322    -0.00012 -1201.68967
  E(xc)   -5172.92258 -5173.78207 -5172.66813    -0.00005     0.00002    -0.36091
  Local  ************************957879.05445     0.01471     0.00021  2973.33845
  n-local -3335.18701 -3307.99385 -3348.36696     0.00069     0.00011     1.32360
  augment  3152.98387  3149.83398  3142.64712     0.00007    -0.00003     0.59209
  Kinetic 17051.31501 17114.84697 17182.18485     0.00084    -0.00126    -9.90607
  Fock        0.00000     0.00000     0.00000     0.00000     0.00000     0.00000
  -------------------------------------------------------------------------------------
  Total    -130.90286   -96.49723   -82.80663    -0.00426    -0.00104    -8.06593
  in kB     -61.76242   -45.52921   -39.06972    -0.00201    -0.00049    -3.80566
  external pressure =      -48.79 kB  Pullay stress =        0.00 kB


 VOLUME and BASIS-vectors are now :
 -----------------------------------------------------------------------------
  energy-cutoff  :      600.00
  volume of cell :     3395.75
      direct lattice vectors                 reciprocal lattice vectors
    10.494937820  0.000000000  0.000000000     0.095284033 -0.000000000  0.000000000
     0.000000000 11.517876715  0.000000000     0.000000000  0.086821558  0.000000000
     0.000000000  0.000000000 28.092027652     0.000000000  0.000000000  0.035597288

  length of vectors
    10.494937820 11.517876715 28.092027652     0.095284033  0.086821558  0.035597288


 FORCES acting on ions:
    Electron-Ion                     Ewald-Force                    Non-Local-Force
 -----------------------------------------------------------------------------------------------
   -.165E+02 -.796E-02 -.166E+04   0.792E+01 0.144E-01 0.164E+04   0.846E+01 0.184E-02 0.192E+02
   0.468E+02 -.559E-02 -.354E+03   -.522E+02 0.591E-02 0.359E+03   0.523E+01 -.745E-03 -.516E+01
   -.420E+02 0.557E+02 -.338E+03   0.464E+02 -.617E+02 0.339E+03   -.429E+01 0.593E+01 -.790E+00
   -.420E+02 -.557E+02 -.338E+03   0.464E+02 0.617E+02 0.339E+03   -.429E+01 -.592E+01 -.790E+00
   0.413E+01 -.523E-01 0.323E+04   0.543E+00 0.529E-01 -.322E+04   -.992E+00 -.792E-04 -.323E+01
   0.557E+01 -.134E+00 0.265E+04   -.709E+01 0.135E+00 -.265E+04   -.872E-01 -.970E-03 -.937E-01
   0.407E+01 0.129E+00 0.323E+04   0.577E+00 -.133E+00 -.322E+04   -.990E+00 0.117E-02 -.323E+01
   0.435E+01 0.806E-01 0.265E+04   -.590E+01 -.867E-01 -.265E+04   -.805E-01 0.110E-02 -.989E-01
   -.177E+01 0.189E+00 0.121E+04   0.158E+01 -.192E+00 -.121E+04   0.187E+00 0.572E-04 -.122E-02
   -.133E+01 -.147E+01 0.764E+03   0.137E+01 0.145E+01 -.764E+03   -.187E-01 0.173E-01 -.123E+00
   -.329E+00 -.475E+00 0.121E+04   0.149E+00 0.469E+00 -.121E+04   0.182E+00 0.836E-02 -.185E-01
   -.701E+01 0.192E+00 0.759E+03   0.703E+01 -.204E+00 -.758E+03   0.439E-02 0.665E-02 -.133E+00
   -.513E+01 -.219E+01 -.749E+03   0.481E+01 0.218E+01 0.749E+03   0.319E+00 0.935E-02 0.658E-01
   -.123E+02 -.521E+01 -.112E+04   0.124E+02 0.520E+01 0.112E+04   -.820E-01 0.139E-01 -.196E+00
   0.524E+00 -.166E+01 -.728E+03   -.808E+00 0.165E+01 0.728E+03   0.287E+00 0.439E-02 0.535E-01
   -.431E+01 -.827E+00 -.114E+04   0.444E+01 0.839E+00 0.114E+04   -.869E-01 -.133E-01 -.261E+00
   0.277E+02 -.112E+02 -.267E+04   -.286E+02 0.112E+02 0.267E+04   0.956E+00 0.157E-01 -.182E+00
   -.849E+02 -.189E+02 -.303E+04   0.850E+02 0.187E+02 0.303E+04   -.395E-01 0.136E+00 0.706E+00
   -.926E+01 -.343E+02 -.259E+04   0.837E+01 0.343E+02 0.259E+04   0.893E+00 -.183E-01 -.367E-01
   -.629E+02 -.325E+02 -.302E+04   0.629E+02 0.324E+02 0.302E+04   -.300E-05 0.350E-01 0.712E+00
   0.413E+01 0.523E-01 0.323E+04   0.543E+00 -.529E-01 -.322E+04   -.992E+00 0.763E-04 -.323E+01
   0.552E+01 -.327E-04 0.265E+04   -.706E+01 0.467E-05 -.265E+04   -.825E-01 0.370E-05 -.984E-01
   0.398E+01 -.826E-05 0.323E+04   0.681E+00 -.169E-05 -.322E+04   -.991E+00 0.202E-05 -.323E+01
   0.435E+01 -.806E-01 0.265E+04   -.590E+01 0.867E-01 -.265E+04   -.805E-01 -.110E-02 -.989E-01
   -.177E+01 -.189E+00 0.121E+04   0.158E+01 0.192E+00 -.121E+04   0.187E+00 -.562E-04 -.122E-02
   -.358E+01 -.462E-04 0.762E+03   0.359E+01 0.318E-04 -.762E+03   0.135E-01 0.162E-05 -.139E+00
   -.745E+00 -.541E-04 0.121E+04   0.569E+00 0.370E-04 -.121E+04   0.180E+00 0.109E-05 -.121E-01
   -.701E+01 -.192E+00 0.759E+03   0.703E+01 0.204E+00 -.758E+03   0.439E-02 -.664E-02 -.133E+00
   -.513E+01 0.219E+01 -.749E+03   0.481E+01 -.218E+01 0.749E+03   0.319E+00 -.935E-02 0.658E-01
   -.123E+02 -.712E-04 -.114E+04   0.124E+02 0.882E-04 0.114E+04   -.556E-01 -.434E-06 -.208E+00
   -.268E+01 -.650E-04 -.740E+03   0.237E+01 0.708E-04 0.740E+03   0.320E+00 0.313E-06 0.101E+00
   -.431E+01 0.827E+00 -.114E+04   0.444E+01 -.838E+00 0.114E+04   -.869E-01 0.133E-01 -.261E+00
   0.277E+02 0.112E+02 -.267E+04   -.286E+02 -.112E+02 0.267E+04   0.956E+00 -.157E-01 -.182E+00
   -.741E+02 -.614E-04 -.304E+04   0.742E+02 0.770E-04 0.304E+04   -.737E-01 -.171E-05 0.711E+00
   0.122E+02 -.292E-04 -.266E+04   -.131E+02 0.540E-04 0.266E+04   0.906E+00 -.242E-05 -.114E+00
   -.629E+02 0.325E+02 -.302E+04   0.629E+02 -.324E+02 0.302E+04   0.734E-06 -.350E-01 0.712E+00
   0.418E+01 0.120E-04 0.323E+04   0.502E+00 0.137E-05 -.322E+04   -.993E+00 -.310E-06 -.323E+01
   0.557E+01 0.134E+00 0.265E+04   -.709E+01 -.135E+00 -.265E+04   -.872E-01 0.964E-03 -.937E-01
   0.407E+01 -.129E+00 0.323E+04   0.577E+00 0.133E+00 -.322E+04   -.990E+00 -.117E-02 -.323E+01
   0.340E+01 0.122E-04 0.265E+04   -.490E+01 0.958E-07 -.265E+04   -.969E-01 0.229E-05 -.969E-01
   0.869E+00 -.376E-04 0.121E+04   -.103E+01 0.342E-04 -.121E+04   0.160E+00 -.834E-07 0.298E-01
   -.133E+01 0.147E+01 0.764E+03   0.137E+01 -.145E+01 -.764E+03   -.187E-01 -.173E-01 -.123E+00
   -.329E+00 0.475E+00 0.121E+04   0.149E+00 -.469E+00 -.121E+04   0.182E+00 -.836E-02 -.185E-01
   -.112E+02 0.680E-04 0.744E+03   0.112E+02 -.547E-04 -.744E+03   0.949E-02 -.135E-05 -.608E-01
   0.685E+00 0.456E-05 -.750E+03   -.930E+00 0.853E-06 0.750E+03   0.233E+00 -.967E-06 0.963E-01
   -.123E+02 0.521E+01 -.112E+04   0.124E+02 -.520E+01 0.112E+04   -.820E-01 -.139E-01 -.196E+00
   0.524E+00 0.166E+01 -.728E+03   -.808E+00 -.165E+01 0.728E+03   0.287E+00 -.439E-02 0.535E-01
   -.652E+01 0.207E-03 -.118E+04   0.662E+01 -.211E-03 0.118E+04   -.593E-01 0.828E-07 -.164E+00
   0.512E+02 -.159E-05 -.266E+04   -.519E+02 -.143E-04 0.266E+04   0.660E+00 -.260E-06 -.296E-01
   -.849E+02 0.189E+02 -.303E+04   0.850E+02 -.187E+02 0.303E+04   -.395E-01 -.136E+00 0.706E+00
   -.926E+01 0.343E+02 -.259E+04   0.838E+01 -.343E+02 0.259E+04   0.893E+00 0.183E-01 -.368E-01
   0.186E+01 -.418E-02 -.298E+04   -.136E+01 0.399E-02 0.298E+04   -.418E+00 0.859E-04 -.302E+00
   -.315E+02 -.265E-01 0.218E+04   0.361E+02 0.266E-01 -.220E+04   -.637E+01 -.230E-04 0.168E+02
   -.318E+02 -.334E-01 0.218E+04   0.364E+02 0.320E-01 -.220E+04   -.637E+01 0.188E-02 0.168E+02
   0.778E+02 0.189E-01 0.132E+04   -.819E+02 -.238E-01 -.132E+04   0.331E+01 0.483E-02 -.413E+01
   0.725E+02 -.628E-02 0.162E+04   -.788E+02 0.659E-02 -.161E+04   0.677E+01 -.328E-03 -.242E+01
   -.835E+02 -.564E-01 0.186E+04   0.900E+02 0.558E-01 -.186E+04   -.635E+01 0.177E-03 -.295E+00
   -.637E+02 -.759E+00 0.101E+04   0.684E+02 0.812E+00 -.102E+04   -.493E+01 -.528E-01 0.417E+01
   0.785E+02 0.451E-01 0.132E+04   -.825E+02 -.212E-01 -.132E+04   0.329E+01 -.266E-01 -.403E+01
   0.716E+02 0.866E-01 0.162E+04   -.779E+02 -.932E-01 -.161E+04   0.678E+01 0.161E-01 -.244E+01
   -.837E+02 0.518E-01 0.186E+04   0.902E+02 -.521E-01 -.186E+04   -.634E+01 -.409E-03 -.297E+00
   -.664E+02 0.182E+00 0.101E+04   0.713E+02 -.177E+00 -.102E+04   -.498E+01 -.939E-02 0.424E+01
   0.750E+02 -.344E+00 0.150E+03   -.807E+02 0.329E+00 -.145E+03   0.582E+01 0.174E-01 -.510E+01
   0.775E+02 0.415E+00 0.463E+03   -.835E+02 -.498E+00 -.460E+03   0.612E+01 0.829E-01 -.291E+01
   -.769E+02 -.220E-01 0.715E+03   0.827E+02 0.437E-01 -.718E+03   -.593E+01 -.231E-01 0.248E+01
   -.592E+02 -.193E+01 -.118E+03   0.632E+02 0.202E+01 0.112E+03   -.409E+01 -.930E-01 0.551E+01
   0.767E+02 0.674E+00 0.155E+03   -.822E+02 -.712E+00 -.151E+03   0.566E+01 0.387E-01 -.437E+01
   0.744E+02 0.660E+00 0.459E+03   -.802E+02 -.627E+00 -.456E+03   0.594E+01 -.329E-01 -.284E+01
   -.762E+02 0.546E+00 0.715E+03   0.819E+02 -.588E+00 -.717E+03   -.590E+01 0.448E-01 0.248E+01
   -.610E+02 0.129E+01 -.121E+03   0.652E+02 -.142E+01 0.115E+03   -.431E+01 0.128E+00 0.587E+01
   0.787E+02 -.160E+01 -.104E+04   -.841E+02 0.155E+01 0.104E+04   0.546E+01 0.443E-01 -.750E+01
   0.752E+02 -.139E+01 -.689E+03   -.812E+02 0.122E+01 0.692E+03   0.621E+01 0.167E+00 -.311E+01
   -.776E+02 -.715E+00 -.441E+03   0.832E+02 0.726E+00 0.438E+03   -.573E+01 -.850E-02 0.258E+01
   -.594E+02 -.786E+01 -.122E+04   0.609E+02 0.803E+01 0.121E+04   -.159E+01 -.170E+00 0.985E+01
   0.773E+02 -.709E+01 -.101E+04   -.829E+02 0.727E+01 0.101E+04   0.573E+01 -.181E+00 -.612E+01
   0.767E+02 -.976E+00 -.696E+03   -.824E+02 0.104E+01 0.699E+03   0.586E+01 -.609E-01 -.308E+01
   -.746E+02 -.142E+01 -.440E+03   0.802E+02 0.143E+01 0.437E+03   -.573E+01 -.244E-03 0.242E+01
   -.398E+02 -.108E+02 -.123E+04   0.406E+02 0.111E+02 0.122E+04   -.902E+00 -.380E+00 0.972E+01
   0.526E+02 -.150E+02 -.219E+04   -.571E+02 0.149E+02 0.221E+04   0.466E+01 0.119E+00 -.207E+02
   0.605E+02 -.468E+01 -.193E+04   -.650E+02 0.449E+01 0.194E+04   0.465E+01 0.200E+00 -.746E+01
   -.474E+02 -.562E+01 -.159E+04   0.518E+02 0.542E+01 0.159E+04   -.460E+01 0.208E+00 0.274E+01
   0.133E+02 -.271E+02 -.217E+04   -.182E+02 0.270E+02 0.219E+04   0.499E+01 0.791E-02 -.196E+02
   0.732E+02 -.429E+02 -.186E+04   -.779E+02 0.425E+02 0.187E+04   0.476E+01 0.387E+00 -.610E+01
   -.626E+02 -.128E+02 -.157E+04   0.674E+02 0.126E+02 0.157E+04   -.494E+01 0.195E+00 0.293E+01
   -.316E+02 -.738E-05 0.218E+04   0.362E+02 -.409E-06 -.220E+04   -.637E+01 0.470E-05 0.168E+02
   -.318E+02 0.334E-01 0.218E+04   0.364E+02 -.320E-01 -.220E+04   -.637E+01 -.188E-02 0.168E+02
   0.778E+02 -.189E-01 0.132E+04   -.819E+02 0.238E-01 -.132E+04   0.331E+01 -.482E-02 -.413E+01
   0.725E+02 0.629E-02 0.162E+04   -.788E+02 -.659E-02 -.161E+04   0.677E+01 0.330E-03 -.242E+01
   -.835E+02 0.579E-05 0.186E+04   0.900E+02 0.566E-06 -.186E+04   -.635E+01 -.363E-06 -.296E+00
   -.635E+02 -.139E-04 0.101E+04   0.682E+02 0.952E-05 -.102E+04   -.487E+01 -.266E-05 0.421E+01
   0.780E+02 -.174E-04 0.132E+04   -.820E+02 0.638E-05 -.132E+04   0.328E+01 -.890E-06 -.408E+01
   0.719E+02 -.476E-05 0.162E+04   -.781E+02 -.221E-05 -.161E+04   0.678E+01 0.345E-05 -.242E+01
   -.837E+02 -.518E-01 0.186E+04   0.902E+02 0.521E-01 -.186E+04   -.634E+01 0.413E-03 -.297E+00
   -.664E+02 -.182E+00 0.101E+04   0.713E+02 0.177E+00 -.102E+04   -.498E+01 0.939E-02 0.424E+01
   0.750E+02 0.344E+00 0.150E+03   -.807E+02 -.329E+00 -.145E+03   0.582E+01 -.174E-01 -.510E+01
   0.775E+02 -.415E+00 0.463E+03   -.835E+02 0.498E+00 -.460E+03   0.612E+01 -.829E-01 -.291E+01
   -.766E+02 0.264E-04 0.715E+03   0.824E+02 -.322E-04 -.717E+03   -.593E+01 -.107E-05 0.245E+01
   -.602E+02 -.896E-04 -.119E+03   0.643E+02 0.928E-04 0.113E+03   -.422E+01 -.153E-04 0.574E+01
   0.755E+02 -.357E-04 0.154E+03   -.811E+02 0.269E-04 -.149E+03   0.571E+01 -.438E-05 -.479E+01
   0.751E+02 -.306E-04 0.459E+03   -.810E+02 0.216E-04 -.456E+03   0.598E+01 -.258E-05 -.298E+01
   -.762E+02 -.546E+00 0.715E+03   0.819E+02 0.588E+00 -.717E+03   -.590E+01 -.448E-01 0.248E+01
   -.610E+02 -.130E+01 -.121E+03   0.652E+02 0.142E+01 0.115E+03   -.431E+01 -.128E+00 0.587E+01
   0.787E+02 0.160E+01 -.104E+04   -.841E+02 -.155E+01 0.104E+04   0.546E+01 -.444E-01 -.750E+01
   0.752E+02 0.139E+01 -.689E+03   -.812E+02 -.122E+01 0.692E+03   0.621E+01 -.167E+00 -.311E+01
   -.761E+02 0.139E-03 -.445E+03   0.816E+02 -.141E-03 0.443E+03   -.566E+01 -.399E-05 0.244E+01
   -.526E+02 -.336E-04 -.123E+04   0.539E+02 0.455E-04 0.122E+04   -.140E+01 -.112E-04 0.100E+02
   0.773E+02 0.468E-04 -.103E+04   -.828E+02 -.469E-04 0.103E+04   0.565E+01 -.916E-05 -.751E+01
   0.770E+02 0.172E-03 -.687E+03   -.829E+02 -.183E-03 0.690E+03   0.596E+01 -.122E-04 -.292E+01
   -.746E+02 0.142E+01 -.440E+03   0.802E+02 -.143E+01 0.437E+03   -.573E+01 0.226E-03 0.242E+01
   -.398E+02 0.108E+02 -.123E+04   0.406E+02 -.111E+02 0.122E+04   -.902E+00 0.380E+00 0.972E+01
   0.526E+02 0.150E+02 -.219E+04   -.571E+02 -.149E+02 0.221E+04   0.466E+01 -.119E+00 -.207E+02
   0.605E+02 0.468E+01 -.193E+04   -.650E+02 -.449E+01 0.194E+04   0.465E+01 -.200E+00 -.746E+01
   -.576E+02 0.976E-04 -.159E+04   0.630E+02 -.843E-04 0.159E+04   -.544E+01 -.140E-04 0.294E+01
   0.370E+02 0.154E-03 -.220E+04   -.417E+02 -.149E-03 0.222E+04   0.474E+01 -.423E-05 -.207E+02
   0.565E+02 0.140E-03 -.193E+04   -.604E+02 -.120E-03 0.194E+04   0.399E+01 -.497E-04 -.789E+01
   -.626E+02 0.128E+02 -.157E+04   0.674E+02 -.126E+02 0.157E+04   -.494E+01 -.195E+00 0.293E+01
   -.315E+02 0.265E-01 0.218E+04   0.361E+02 -.266E-01 -.220E+04   -.637E+01 0.236E-04 0.168E+02
   -.319E+02 -.128E-05 0.218E+04   0.364E+02 0.102E-05 -.220E+04   -.639E+01 0.530E-06 0.168E+02
   0.786E+02 0.188E-05 0.133E+04   -.828E+02 -.429E-06 -.132E+04   0.343E+01 -.371E-06 -.412E+01
   0.725E+02 -.278E-05 0.162E+04   -.788E+02 -.520E-06 -.161E+04   0.677E+01 0.766E-05 -.242E+01
   -.835E+02 0.564E-01 0.186E+04   0.900E+02 -.558E-01 -.186E+04   -.635E+01 -.182E-03 -.295E+00
   -.637E+02 0.760E+00 0.101E+04   0.684E+02 -.812E+00 -.102E+04   -.493E+01 0.528E-01 0.417E+01
   0.785E+02 -.451E-01 0.132E+04   -.825E+02 0.211E-01 -.132E+04   0.329E+01 0.266E-01 -.403E+01
   0.716E+02 -.866E-01 0.162E+04   -.779E+02 0.932E-01 -.161E+04   0.678E+01 -.161E-01 -.244E+01
   -.837E+02 0.114E-05 0.186E+04   0.902E+02 0.131E-05 -.186E+04   -.633E+01 0.882E-05 -.314E+00
   -.735E+02 0.172E-04 0.101E+04   0.791E+02 -.221E-04 -.101E+04   -.575E+01 0.907E-05 0.399E+01
   0.788E+02 -.102E-05 0.149E+03   -.851E+02 0.149E-05 -.144E+03   0.646E+01 0.441E-05 -.536E+01
   0.738E+02 -.342E-04 0.465E+03   -.794E+02 0.350E-04 -.462E+03   0.569E+01 0.304E-05 -.274E+01
   -.769E+02 0.220E-01 0.715E+03   0.827E+02 -.437E-01 -.718E+03   -.593E+01 0.231E-01 0.248E+01
   -.592E+02 0.193E+01 -.118E+03   0.632E+02 -.202E+01 0.112E+03   -.408E+01 0.930E-01 0.551E+01
   0.767E+02 -.673E+00 0.155E+03   -.822E+02 0.712E+00 -.151E+03   0.566E+01 -.387E-01 -.437E+01
   0.744E+02 -.660E+00 0.459E+03   -.802E+02 0.627E+00 -.456E+03   0.594E+01 0.329E-01 -.284E+01
   -.726E+02 0.574E-04 0.714E+03   0.781E+02 -.486E-04 -.716E+03   -.559E+01 0.646E-05 0.245E+01
   -.756E+02 0.126E-03 -.133E+03   0.816E+02 -.124E-03 0.128E+03   -.607E+01 0.165E-04 0.503E+01
   0.831E+02 0.731E-04 -.104E+04   -.891E+02 -.826E-04 0.105E+04   0.616E+01 0.140E-04 -.813E+01
   0.679E+02 -.879E-04 -.681E+03   -.732E+02 0.744E-04 0.684E+03   0.541E+01 0.448E-05 -.274E+01
   -.776E+02 0.715E+00 -.441E+03   0.832E+02 -.726E+00 0.438E+03   -.573E+01 0.850E-02 0.258E+01
   -.594E+02 0.786E+01 -.122E+04   0.609E+02 -.803E+01 0.121E+04   -.159E+01 0.170E+00 0.985E+01
   0.773E+02 0.709E+01 -.101E+04   -.829E+02 -.727E+01 0.101E+04   0.573E+01 0.181E+00 -.612E+01
   0.767E+02 0.976E+00 -.696E+03   -.824E+02 -.104E+01 0.699E+03   0.586E+01 0.609E-01 -.308E+01
   -.693E+02 -.183E-03 -.446E+03   0.746E+02 0.225E-03 0.444E+03   -.540E+01 -.878E-05 0.219E+01
   -.547E+02 -.279E-03 -.124E+04   0.593E+02 0.307E-03 0.124E+04   -.466E+01 -.283E-04 0.675E+01
   0.999E+02 -.112E-02 -.217E+04   -.105E+03 0.106E-02 0.219E+04   0.482E+01 0.790E-04 -.203E+02
   0.476E+02 -.846E-05 -.192E+04   -.509E+02 -.302E-05 0.193E+04   0.340E+01 0.278E-04 -.710E+01
   -.474E+02 0.562E+01 -.159E+04   0.518E+02 -.542E+01 0.159E+04   -.460E+01 -.208E+00 0.274E+01
   0.133E+02 0.271E+02 -.217E+04   -.182E+02 -.270E+02 0.219E+04   0.499E+01 -.790E-02 -.196E+02
   0.732E+02 0.429E+02 -.186E+04   -.779E+02 -.425E+02 0.187E+04   0.476E+01 -.387E+00 -.611E+01
   -.703E+02 -.539E-03 -.151E+04   0.746E+02 0.464E-03 0.151E+04   -.436E+01 0.104E-03 0.375E+01
 -----------------------------------------------------------------------------------------------
   -.191E+02 -.517E-02 0.553E+02   0.313E-12 -.162E-11 0.432E-11   0.191E+02 0.517E-02 -.553E+02
 
 
 POSITION                                       TOTAL-FORCE (eV/Angst)
 -----------------------------------------------------------------------------------
      6.29583      5.75885     21.99163        -0.135074      0.008286     -0.275061
      5.58647      5.75894     22.72634        -0.108684     -0.000422      0.034826
      6.89170      4.93871     22.12479         0.070717     -0.121191     -0.051804
      6.89175      6.57924     22.12481         0.065530      0.113452     -0.053365
      8.55404      9.59823      8.23961         3.699025      0.000514      2.086453
      6.28143      7.67858      9.13291        -1.610895      0.000647     -1.863726
      3.30657      7.67858      8.23961         3.677724     -0.003385      2.075272
      1.03396      9.59823      9.13291        -1.633645     -0.005046     -1.872043
      9.95736      9.59884     11.85837        -0.003317     -0.001924      0.004271
      7.65865      7.67404     12.66179        -0.007344     -0.004070     -0.005002
      4.70640      7.67543     11.85563        -0.003975      0.000192      0.007195
      2.40301      9.59740     12.66841        -0.012232     -0.004841     -0.008925
      0.91868      9.59898     15.47902        -0.006554     -0.001937      0.003584
      9.08728      7.67045     16.18209        -0.012206      0.001061     -0.007179
      6.15634      7.67595     15.46021        -0.003677     -0.008589      0.000730
      3.82736      9.59874     16.20356        -0.015465      0.000495     -0.007051
      2.42582      9.59075     19.18099         0.048629     -0.006524     -0.000006
      0.00586      7.66603     19.71157        -0.162212     -0.012249     -0.251086
      7.66242      7.68028     19.10807         0.021071     -0.011963      0.014594
      5.27187      9.61298     19.70195        -0.168028     -0.010122     -0.232132
      8.55404      1.91965      8.23961         3.698989     -0.000512      2.086457
      6.28143      0.00000      9.13291        -1.621379     -0.000025     -1.870228
      3.30657      0.00000      8.23961         3.689989     -0.000008      2.079596
      1.03396      1.91965      9.13291        -1.633650      0.005048     -1.872043
      9.95736      1.91904     11.85837        -0.003302      0.001933      0.004258
      7.65400      0.00000     12.66192        -0.005451     -0.000013     -0.003588
      4.70621     11.51788     11.85781        -0.000335     -0.000016      0.005486
      2.40301      1.92048     12.66840        -0.012246      0.004817     -0.008913
      0.91868      1.91890     15.47902        -0.006540      0.001944      0.003610
      9.07643     11.51788     16.19147        -0.023104      0.000016     -0.010897
      6.16178     11.51788     15.46781        -0.001357      0.000006      0.002217
      3.82736      1.91914     16.20355        -0.015473     -0.000492     -0.007046
      2.42581      1.92712     19.18098         0.048591      0.006548     -0.000009
      0.02729     11.51788     19.71118        -0.176951      0.000014     -0.241189
      7.69084     11.51787     19.16045         0.048877      0.000021      0.006221
      5.27187      1.90489     19.70194        -0.168028      0.010194     -0.232087
      8.55404      5.75894      8.23961         3.705546      0.000013      2.078879
      6.28143      3.83929      9.13291        -1.610887     -0.000657     -1.863650
      3.30657      3.83929      8.23961         3.677723      0.003392      2.075216
      1.03396      5.75894      9.13291        -1.601982      0.000015     -1.812531
      9.97179      5.75894     11.85233         0.002471     -0.000003      0.003290
      7.65865      3.84384     12.66179        -0.007341      0.004090     -0.004987
      4.70640      3.84245     11.85563        -0.003958     -0.000176      0.007179
      2.40510      5.75894     12.69594        -0.016112      0.000012     -0.002257
      0.95033      5.75894     15.48422         0.012527      0.000005      0.000953
      9.08728      3.84743     16.18209        -0.012210     -0.001065     -0.007154
      6.15634      3.84193     15.46021        -0.003662      0.008582      0.000759
      3.84235      5.75894     16.28847        -0.017240     -0.000004     -0.009640
      2.46606      5.75894     19.20249         0.072075     -0.000016     -0.003093
      0.00586      3.85184     19.71157        -0.162228      0.012223     -0.251091
      7.66242      3.83759     19.10806         0.021034      0.011938      0.014629
      5.30557      5.75894     19.86499        -0.066538     -0.000104     -0.091470
      5.18821      7.67858      7.50000        -1.778920      0.000117      1.502646
     10.43568      9.59823      7.50000        -1.775749      0.000457      1.499915
      9.64726      9.59823      9.87252        -0.765348     -0.000118     -0.206909
      6.67240      9.59823      8.97923         0.483299     -0.000013     -0.110500
      8.16307      7.67858      8.39329         0.122934     -0.000425     -0.948488
      6.59271      7.67858     11.07317        -0.187157      0.000158      0.475955
      4.39979      7.67858      9.87252        -0.772172     -0.002650     -0.189423
      1.42493      7.67858      8.97923         0.490853      0.009577     -0.116594
      2.91560      9.59823      8.39329         0.129849     -0.000701     -0.949806
      1.34524      9.59823     11.07317        -0.142256     -0.003839      0.484014
      0.57002      9.59783     13.46097         0.139629      0.002724     -0.089106
      8.07537      9.59791     12.55288         0.138912      0.000050     -0.059362
      9.56976      7.67723     11.97449        -0.133812     -0.001374      0.060468
      8.02733      7.67772     14.63095        -0.111175     -0.000750      0.086096
      5.81445      7.67365     13.46385         0.136974      0.000478     -0.081246
      2.82695      7.67672     12.56398         0.136074      0.000112     -0.061663
      4.31789      9.59721     11.97461        -0.134192      0.002908      0.057996
      2.78125      9.59270     14.64360        -0.113950      0.001372      0.090476
      2.04777      9.59409     17.06302         0.137946      0.001108     -0.141314
      9.51952      9.59881     16.11613         0.141617     -0.000793     -0.067454
      0.53793      7.67644     15.55723        -0.133304      0.002577      0.058189
      9.57795      7.67735     18.17285        -0.080127     -0.000053      0.129017
      7.30851      7.68614     17.04483         0.139198     -0.004333     -0.117809
      4.27551      7.67657     16.15214         0.134530      0.002225     -0.066023
      5.77393      9.59664     15.55634        -0.133200      0.004660      0.055329
      4.31322      9.62292     18.18722        -0.076146     -0.004795      0.124054
      3.64964      9.59412     20.60686         0.090156      0.003206     -0.527217
      0.55527      9.59324     19.94392         0.109587      0.007879     -0.204626
      2.03623      7.67599     19.19664        -0.109076      0.007158      0.048595
      8.85836      7.65909     20.58196         0.096657     -0.005307     -0.500627
      5.80982      7.70701     19.90430         0.120703     -0.000669     -0.153086
      7.28877      9.60579     19.14456        -0.111310      0.005033      0.054962
      5.18821      0.00000      7.50000        -1.777899     -0.000003      1.501959
     10.43568      1.91965      7.50000        -1.775755     -0.000453      1.499912
      9.64726      1.91965      9.87252        -0.765331      0.000118     -0.206913
      6.67240      1.91965      8.97923         0.483317      0.000027     -0.110501
      8.16307      0.00000      8.39329         0.123665      0.000006     -0.948903
      6.59271      0.00000     11.07317        -0.179262     -0.000007      0.449703
      4.39979      0.00000      9.87252        -0.769963     -0.000012     -0.193818
      1.42493      0.00000      8.97923         0.487989     -0.000004     -0.110290
      2.91560      1.91965      8.39329         0.129841      0.000693     -0.949818
      1.34524      1.91965     11.07317        -0.142290      0.003832      0.483987
      0.57002      1.92005     13.46097         0.139601     -0.002731     -0.089097
      8.07537      1.91997     12.55288         0.138936     -0.000059     -0.059370
      9.56999      0.00000     11.97483        -0.137266     -0.000007      0.053586
      8.02843      0.00000     14.63329        -0.114692     -0.000012      0.086490
      5.81661     11.51788     13.45953         0.136705     -0.000013     -0.085955
      2.82615      0.00000     12.56207         0.138362     -0.000012     -0.059191
      4.31789      1.92067     11.97461        -0.134168     -0.002923      0.057973
      2.78124      1.92517     14.64360        -0.113974     -0.001392      0.090469
      2.04777      1.92378     17.06302         0.137929     -0.001112     -0.141307
      9.51952      1.91907     16.11613         0.141633      0.000791     -0.067449
      0.53857      0.00000     15.55944        -0.128707     -0.000007      0.054284
      9.57523     11.51788     18.18472        -0.078472      0.000001      0.139770
      7.30288     11.51788     17.04602         0.135336     -0.000009     -0.142630
      4.26694     11.51788     16.11879         0.141235     -0.000024     -0.063420
      5.77393      1.92124     15.55634        -0.133186     -0.004684      0.055338
      4.31321      1.89495     18.18722        -0.076159      0.004788      0.124088
      3.64964      1.92375     20.60686         0.090126     -0.003209     -0.527209
      0.55527      1.92463     19.94392         0.109596     -0.007890     -0.204639
      2.03243     11.51788     19.18753        -0.119930     -0.000001      0.055615
      8.89040     11.51788     20.60156         0.105599      0.000001     -0.529854
      5.82258     11.51788     19.95140         0.099696     -0.000029     -0.207942
      7.28877      1.91209     19.14456        -0.111294     -0.005049      0.054958
      5.18821      3.83929      7.50000        -1.778899     -0.000123      1.502642
     10.43568      5.75894      7.50000        -1.788879      0.000000      1.489326
      9.64726      5.75894      9.87252        -0.778334      0.000001     -0.221071
      6.67240      5.75894      8.97923         0.481928      0.000004     -0.110745
      8.16307      3.83929      8.39329         0.122934      0.000423     -0.948487
      6.59271      3.83929     11.07317        -0.187135     -0.000153      0.475920
      4.39979      3.83929      9.87252        -0.772155      0.002659     -0.189407
      1.42493      3.83929      8.97923         0.490841     -0.009586     -0.116600
      2.91560      5.75894      8.39329         0.132840      0.000011     -0.954688
      1.34524      5.75894     11.07317        -0.125170      0.000004      0.558012
      0.57695      5.75894     13.46312         0.144943      0.000005     -0.094139
      8.07543      5.75894     12.55226         0.133308      0.000004     -0.057210
      9.56976      3.84065     11.97449        -0.133805      0.001374      0.060461
      8.02733      3.84016     14.63095        -0.111154      0.000761      0.086100
      5.81445      3.84423     13.46385         0.136977     -0.000464     -0.081264
      2.82695      3.84116     12.56398         0.136051     -0.000095     -0.061668
      4.32076      5.75894     11.97607        -0.130038      0.000015      0.056279
      2.78975      5.75894     14.67120        -0.139121      0.000018      0.080966
      2.04328      5.75894     17.07975         0.143421      0.000005     -0.152595
      9.51648      5.75894     16.11406         0.128967     -0.000009     -0.056738
      0.53793      3.84144     15.55723        -0.133332     -0.002575      0.058201
      9.57795      3.84053     18.17285        -0.080133      0.000046      0.129000
      7.30851      3.83174     17.04483         0.139227      0.004335     -0.117804
      4.27551      3.84130     16.15214         0.134516     -0.002200     -0.066006
      5.78128      5.75894     15.57927        -0.126855      0.000034      0.050962
      4.30855      5.75894     18.26367        -0.129853      0.000000      0.084766
      3.61902      5.75894     20.66899         0.111780      0.000020     -0.506252
      0.54608      5.75894     19.94993         0.091310      0.000016     -0.199748
      2.03623      3.84189     19.19664        -0.109073     -0.007156      0.048597
      8.85836      3.85879     20.58196         0.096691      0.005309     -0.500664
      5.80982      3.81086     19.90430         0.120706      0.000587     -0.153185
      7.26346      5.75894     19.12920        -0.101982      0.000030      0.084328
 -----------------------------------------------------------------------------------
    total drift:                               -0.001767     -0.000001      0.021356


--------------------------------------------------------------------------------------------------------



  FREE ENERGIE OF THE ION-ELECTRON SYSTEM (eV)
  ---------------------------------------------------
  free  energy   TOTEN  =     -1060.77077528 eV

  energy  without entropy=    -1060.77077528  energy(sigma->0) =    -1060.77077528
 


--------------------------------------------------------------------------------------------------------


    POTLOK:  cpu time      0.5870: real time      0.5892


--------------------------------------------------------------------------------------------------------


     LOOP+:  cpu time    710.8166: real time    714.4366
    4ORBIT:  cpu time      0.0000: real time      0.0000

 total amount of memory used by VASP MPI-rank0   470647. kBytes
=======================================================================

   base      :      30000. kBytes
   nonl-proj :     298338. kBytes
   fftplans  :      29442. kBytes
   grid      :      42405. kBytes
   one-center:       1150. kBytes
   wavefun   :      69312. kBytes
 
  
  
 General timing and accounting informations for this job:
 ========================================================
  
                  Total CPU time used (sec):      736.964
                            User time (sec):      734.143
                          System time (sec):        2.820
                         Elapsed time (sec):      741.396
  
                   Maximum memory used (kb):     1064516.
                   Average memory used (kb):          N/A
  
                          Minor page faults:       100460
                          Major page faults:          130
                 Voluntary context switches:         2767
