 **********************************************************************
                          MRCC program system
 **********************************************************************
 
                              Written by
     Mihaly Kallay, Peter R. Nagy, David Mester, Laszlo Gyevi-Nagy,
        Jozsef Csoka, P. Bernat Szabo, Zoltan Rolik, Gyula Samu,
     Jozsef Csontos, Bence Hegely, Adam Ganyecz, Istvan Ladjanszki,
       Lorant Szegedy, Bence Ladoczki, Klara Petrov, Mate Farkas,
                    Pal D. Mezei, and Reka A. Horvath
 
        Department of Physical Chemistry and Materials Science
            Budapest University of Technology and Economics
                  Budapest P.O.Box 91, H-1521 Hungary
 
                              www.mrcc.hu
 
                      Release date: March 18, 2022

 ************************ 2023-02-04 11:51:40 *************************
 Executing minp...

 Reading input from MINP...
 
 Input file:
 
calc=FNO-CCSD(T)
verbosity=3
mem=220GB
unit=angs
scfiguess=small
scfalg=locfit1
ccmaxit=400
ccsdalg=dfdirect
ccsdthreads=4
ccsdmkl=thr
ptthreads=4
lnoepsv=1e-5
naf_cor=1e-2
basis=aug-cc-pVQZ
basis_sm=def2-SVP
dfbasis_scf=def2-QZVPP-RI-JK
dfbasis_cor=aug-cc-pVQZ-RI
unit=angs
geom=xyz
10

C    29.54344629    29.54344629    16.97505516
H    29.54344670    30.44187631    17.60392580
H    29.54344662    28.64496649    17.60393442
H    30.44658454    29.54342777    16.34911135
H    28.64030918    29.54342779    16.34911130
C    12.66144652    33.76390703    16.97524142
H    11.76295464    33.76390727    17.60416815
H    13.55998837    33.76390723    17.60417697
H    12.66146506    32.86110881    16.34882759
H    12.66146513    34.66670636    16.34882843

--------------------Output has been truncated-------------------------


--------------------Output has been truncated-------------------------


--------------------Output has been truncated-------------------------


--------------------Output has been truncated-------------------------


--------------------Output has been truncated-------------------------


--------------------Output has been truncated-------------------------


--------------------Output has been truncated-------------------------


--------------------Output has been truncated-------------------------


--------------------Output has been truncated-------------------------


--------------------Output has been truncated-------------------------


 
 Reference energy [au]:                       -80.431229546140
 DF-MP2 singlet pair energy [au]:              -0.347506342155
 DF-MP2 triplet pair energy [au]:              -0.074996468626
 DF-SCS-MP2 correlation energy [au]:           -0.442006433461
 DF-SCS-MP2 energy [au]:                      -80.873235979601
 DF-SOS-MP2 correlation energy [au]:           -0.451758244801
 DF-SOS-MP2 energy [au]:                      -80.882987790942
 DF-MP2 correlation energy [au]:               -0.422502810780
 DF-MP2 energy [au]:                          -80.853732356921

 Results in FNO basis:
 
 
 Reference energy [au]:                       -80.431229546140
 DF-MP2 singlet pair energy [au]:              -0.341236961102
 DF-MP2 triplet pair energy [au]:              -0.074713860769
 DF-SCS-MP2 correlation energy [au]:           -0.434388973579
 DF-SCS-MP2 energy [au]:                      -80.865618519719
 DF-SOS-MP2 correlation energy [au]:           -0.443608049433
 DF-SOS-MP2 energy [au]:                      -80.874837595573
 DF-MP2 correlation energy [au]:               -0.415950821871
 DF-MP2 energy [au]:                          -80.847180368011

 Results in NAF basis:
 
 
 Reference energy [au]:                       -80.431229546140
 DF-MP2 singlet pair energy [au]:              -0.341201939841
 DF-MP2 triplet pair energy [au]:              -0.074727208053
 DF-SCS-MP2 correlation energy [au]:           -0.434351397160
 DF-SCS-MP2 energy [au]:                      -80.865580943301
 DF-SOS-MP2 correlation energy [au]:           -0.443562521794
 DF-SOS-MP2 energy [au]:                      -80.874792067934
 DF-MP2 correlation energy [au]:               -0.415929147894
 DF-MP2 energy [au]:                          -80.847158694034

 ************************ 2023-02-04 11:52:15 *************************
 Executing ccsd...

 Allocation of 220.0 Gbytes of memory...

 Direct DF-CCSD(T) calculation
 
 Convergence criterion:  1.0E-06
 
 Number of occupied/virtual/auxiliary orbitals:     8   202   640
   1312.15 MB is the minimal memory requirement for (T)
    293.11 MB is the minimal memory requirement for CCSD
 
 Reference energy [au]:             -80.431229546140
 T1 contribution [au]:                0.000000000000
 Same spin MP2 energy [au]:          -0.074720525604
 Opposite spin MP2 energy [au]:      -0.341219431226
 MP2 correlation energy [au]:        -0.415939956830
 Total MP2 energy [au]:             -80.847169502971
 MP2 correction [au]:                -0.006562853950
 
 
 CPU time [min]:     0.489                   Wall time [min]:     0.058
 
 Starting CCSD iterations...
 
                     Residual norm          Energy
 Iteration  1        0.196126091329      -80.873059568405
 Iteration  2        0.050030359473      -80.884107001655
 Iteration  3        0.013819970104      -80.885272542472
 Iteration  4        0.002858147144      -80.885281543758
 Iteration  5        0.000530219242      -80.885294568172
 Iteration  6        0.000119932212      -80.885294321633
 Iteration  7        0.000028603110      -80.885295701877
 Iteration  8        0.000005287853      -80.885295815816
 Iteration  9        0.000001125804      -80.885295791856
 
 CCSD iteration has converged in  9 steps.
     6687.81 MB memory was utilized by CCSD
 
 T1 diagnostic:      7.996E-03            D1 diagnostic:      1.292E-02
 
 T1 contribution [au]:                                  0.000000000000
 PPL energy contribution [au]:                          0.121206002000
 Scaled PPL energy contribution [au]:                   0.123119596691

 OS-PPL energy contribution [au]:                       0.107549021063
 Scaled OS-PPL energy contribution [au]:                0.109535130721
 SS-PPL energy contribution [au]:                       0.013656980936
 Scaled SS-PPL energy contribution [au]:                0.013705585556

 Opposite spin CCSD energy [au]:                       -0.382008132868
 Same spin CCSD energy [au]:                           -0.072071573515
 CCSD correlation energy [au]:                         -0.454079706382
 CCSD correlation energy + MP2 correction [au]:        -0.460642560333
 CCSD correlation energy + MP2 + PPL corr. [au]:       -0.458728965641
 Total CCSD energy [au]:                              -80.885309252523
 Total CCSD energy + MP2 correction [au]:             -80.891872106473
 Total CCSD energy + MP2 + PPL corr. [au]:            -80.889958511782
 
 CPU time [min]:    12.811                   Wall time [min]:     0.410
 
 Calculation of (T) correction...
 
 
     1275.43 MB memory is utilized for (T)

 0%       25%       50%       75%       100%
 |---------|---------|---------|---------| 
 
 (T) correction [au]:                                    -0.013883702944
 (T*) correction [au]:                                   -0.014102765127
 (T+) correction [au]:                                   -0.014101950218
 CCSD(T) correlation energy [au]:                        -0.467963409327
 CCSD(T) correlation energy + MP2 correction [au]:       -0.474526263277
 CCSD(T+) correlation en. + MP2 + PPL corr. [au]:        -0.472830915859
 Total CCSD(T) energy [au]:                             -80.899192955467
 Total CCSD(T) energy + MP2 correction [au]:            -80.905755809417
 Total CCSD(T+) energy + MP2 + PPL corr. [au]:          -80.904060461999
 
 CPU time [min]:    16.793                   Wall time [min]:     0.541
 
 ************************ 2023-02-04 11:52:48 *************************
                      Normal termination of mrcc.
 **********************************************************************
