 vasp.6.3.0 20Jan22 (build Mar 11 2022 13:48:16) complex                        
  
 executed on             LinuxIFC date 2024.01.22  07:17:32
 running on  304 total cores
 distrk:  each k-point on  304 cores,    1 groups
 distr:  one band on NCORE=   2 cores,  152 groups


--------------------------------------------------------------------------------------------------------


 INCAR:
   SYSTEM = TiO2
   ISMEAR = 0
   SIGMA = 0.05
   EDIFF = 1E-5
   ALGO = ALL
   ISTART = 0
   IBRION = -1
   NSW = 0
   ISYM = 0
   ISIF = 2
   EDIFFG = -0.01
   DIPOL = 0.5 0.5 0.5
   IDIPOL = 3
   LDIPOL = .TRUE.
   GGA = MK
   LUSE_VDW = .TRUE.
   PARAM1 = 0.1234
   PARAM2 = 0.711357
   ZAB_VDW = -1.8867
   AGGAC = 0.0
   ENCUT = 600
   PREC = Accurate
   LASPH = .TRUE.
   LREAL = .FALSE.
   ISPIN = 1
   NELM = 200
   NELMIN = 8
   NCORE = 2
   KPAR = 1
   LWAVE = .FALSE.
   LCHARG = .FALSE.

 POTCAR:    PAW_PBE Ti_pv 07Sep2000               
 POTCAR:    PAW_PBE O 08Apr2002                   
 -----------------------------------------------------------------------------
|                                                                             |
|           W    W    AA    RRRRR   N    N  II  N    N   GGGG   !!!           |
|           W    W   A  A   R    R  NN   N  II  NN   N  G    G  !!!           |
|           W    W  A    A  R    R  N N  N  II  N N  N  G       !!!           |
|           W WW W  AAAAAA  RRRRR   N  N N  II  N  N N  G  GGG   !            |
|           WW  WW  A    A  R   R   N   NN  II  N   NN  G    G                |
|           W    W  A    A  R    R  N    N  II  N    N   GGGG   !!!           |
|                                                                             |
|     For optimal performance we recommend to set                             |
|       NCORE = 2 up to number-of-cores-per-socket                            |
|     NCORE specifies how many cores store one orbital (NPAR=cpu/NCORE).      |
|     This setting can greatly improve the performance of VASP for DFT.       |
|     The default, NCORE=1 might be grossly inefficient on modern             |
|     multi-core architectures or massively parallel machines. Do your        |
|     own testing! More info at https://www.vasp.at/wiki/index.php/NCORE      |
|     Unfortunately you need to use the default for GW and RPA                |
|     calculations (for HF NCORE is supported but not extensively tested      |
|     yet).                                                                   |
|                                                                             |
 -----------------------------------------------------------------------------

 -----------------------------------------------------------------------------
|                                                                             |
|               ----> ADVICE to this user running VASP <----                  |
|                                                                             |
|     You have switched on vdW-DFT.                                           |
|     This routine was written and supplied by Jiri Klimes. We recommend      |
|     that you carefully read and cite the following publications:            |
|       J. Klimes, D.R. Bowler, A. Michelides                                 |
|          J. Phys.: Cond Matt. 22 022201 (2010)                              |
|       J. Klimes, D.R. Bowler, A. Michelides                                 |
|          Phys. Rev. B. 83, 195131 (2011)                                    |
|     and references therein.                                                 |
|                                                                             |
 -----------------------------------------------------------------------------

 POTCAR:    PAW_PBE Ti_pv 07Sep2000               
   SHA256 =  f757a1b2c6d082f4c628fa3d987464a8763bf92e53844ac0500b0e2ddc9ce5c0 Ti_pv/POTCAR          
   COPYR  = (c) Copyright 07Sep2000 Georg Kresse                                                    
   COPYR  = This file is part of the software VASP. Any use, copying, and all other rights are regul
   COPYR  = If you do not have a valid VASP license, you may not use, copy or distribute this file. 
   VRHFIN =Ti: d3 s1                                                                                
   LEXCH  = PE                                                                                      
   EATOM  =  1042.5995 eV,   76.6289 Ry                                                             
                                                                                                    
   TITEL  = PAW_PBE Ti_pv 07Sep2000                                                                 
   LULTRA =        F    use ultrasoft PP ?                                                          
   IUNSCR =        1    unscreen: 0-lin 1-nonlin 2-no                                               
   RPACOR =    2.200    partial core radius                                                         
   POMASS =   47.880; ZVAL   =   10.000    mass and valenz                                          
   RCORE  =    2.500    outmost cutoff radius                                                       
   RWIGS  =    2.500; RWIGS  =    1.323    wigner-seitz radius (au A)                               
   ENMAX  =  222.335; ENMIN  =  166.751 eV                                                          
   RCLOC  =    1.701    cutoff for local pot                                                        
   LCOR   =        T    correct aug charges                                                         
   LPAW   =        T    paw PP                                                                      
   EAUG   =  482.848                                                                                
   DEXC   =    0.000                                                                                
   RMAX   =    2.564    core radius for proj-oper                                                   
   RAUG   =    1.300    factor for augmentation sphere                                              
   RDEP   =    2.538    radius for radial grids                                                     
   RDEPT  =    1.952    core radius for aug-charge                                                  
                                                                                                    
   Atomic configuration                                                                             
    8 entries                                                                                       
     n  l   j            E        occ.                                                              
     1  0  0.50     -4865.3608   2.0000                                                             
     2  0  0.50      -533.1368   2.0000                                                             
     2  1  1.50      -440.5031   6.0000                                                             
     3  0  0.50       -59.3186   2.0000                                                             
     3  1  1.50       -35.7012   6.0000                                                             
     3  2  2.50        -1.9157   3.0000                                                             
     4  0  0.50        -3.7291   1.0000                                                             
     4  3  2.50        -1.3606   0.0000                                                             
   Description                                                                                      
     l       E           TYP  RCUT    TYP  RCUT                                                     
     1    -35.7012140     23  2.300                                                                 
     1     -1.3605826     23  2.300                                                                 
     2     -1.9156996     23  2.500                                                                 
     2     -0.4063033     23  2.500                                                                 
     0     -3.7290856     23  2.500                                                                 
     0     20.4087390     23  2.500                                                                 
  local pseudopotential read in
  partial core-charges read in
  partial kinetic energy density read in
  atomic valenz-charges read in
  non local Contribution for L=           1  read in
    real space projection operators read in
  non local Contribution for L=           1  read in
    real space projection operators read in
  non local Contribution for L=           2  read in
    real space projection operators read in
  non local Contribution for L=           2  read in
    real space projection operators read in
  non local Contribution for L=           0  read in
    real space projection operators read in
  non local Contribution for L=           0  read in
    real space projection operators read in
    PAW grid and wavefunctions read in
 
   number of l-projection  operators is LMAX  =           6
   number of lm-projection operators is LMMAX =          18
 
 POTCAR:    PAW_PBE O 08Apr2002                   
   SHA256 =  818f92134a0a090dccd8ba1447fa70422a3b330e708bb4f08108d8ae51209ddf O/POTCAR              
   COPYR  = (c) Copyright 08Apr2002 Georg Kresse                                                    
   COPYR  = This file is part of the software VASP. Any use, copying, and all other rights are regul
   COPYR  = If you do not have a valid VASP license, you may not use, copy or distribute this file. 
   VRHFIN =O: s2p4                                                                                  
   LEXCH  = PE                                                                                      
   EATOM  =   432.3788 eV,   31.7789 Ry                                                             
                                                                                                    
   TITEL  = PAW_PBE O 08Apr2002                                                                     
   LULTRA =        F    use ultrasoft PP ?                                                          
   IUNSCR =        1    unscreen: 0-lin 1-nonlin 2-no                                               
   RPACOR =    1.200    partial core radius                                                         
   POMASS =   16.000; ZVAL   =    6.000    mass and valenz                                          
   RCORE  =    1.520    outmost cutoff radius                                                       
   RWIGS  =    1.550; RWIGS  =    0.820    wigner-seitz radius (au A)                               
   ENMAX  =  400.000; ENMIN  =  300.000 eV                                                          
   ICORE  =        2    local potential                                                             
   LCOR   =        T    correct aug charges                                                         
   LPAW   =        T    paw PP                                                                      
   EAUG   =  605.392                                                                                
   DEXC   =    0.000                                                                                
   RMAX   =    1.553    core radius for proj-oper                                                   
   RAUG   =    1.300    factor for augmentation sphere                                              
   RDEP   =    1.550    radius for radial grids                                                     
   RDEPT  =    1.329    core radius for aug-charge                                                  
                                                                                                    
   Atomic configuration                                                                             
    4 entries                                                                                       
     n  l   j            E        occ.                                                              
     1  0  0.50      -514.6923   2.0000                                                             
     2  0  0.50       -23.9615   2.0000                                                             
     2  1  0.50        -9.0305   4.0000                                                             
     3  2  1.50        -9.5241   0.0000                                                             
   Description                                                                                      
     l       E           TYP  RCUT    TYP  RCUT                                                     
     0    -23.9615318     23  1.200                                                                 
     0     -9.5240782     23  1.200                                                                 
     1     -9.0304911     23  1.520                                                                 
     1      8.1634956     23  1.520                                                                 
     2     -9.5240782      7  1.500                                                                 
  local pseudopotential read in
  partial core-charges read in
  partial kinetic energy density read in
  kinetic energy density of atom read in
  atomic valenz-charges read in
  non local Contribution for L=           0  read in
    real space projection operators read in
  non local Contribution for L=           0  read in
    real space projection operators read in
  non local Contribution for L=           1  read in
    real space projection operators read in
  non local Contribution for L=           1  read in
    real space projection operators read in
    PAW grid and wavefunctions read in
 
   number of l-projection  operators is LMAX  =           4
   number of lm-projection operators is LMMAX =           8
 
 -----------------------------------------------------------------------------
|                                                                             |
|               ----> ADVICE to this user running VASP <----                  |
|                                                                             |
|     You have a (more or less) 'large supercell' and for larger cells it     |
|     might be more efficient to use real-space projection operators.         |
|     Therefore, try LREAL= Auto in the INCAR file.                           |
|     Mind: For very accurate calculation, you might also keep the            |
|     reciprocal projection scheme (i.e. LREAL=.FALSE.).                      |
|                                                                             |
 -----------------------------------------------------------------------------

 -----------------------------------------------------------------------------
|                                                                             |
|               ----> ADVICE to this user running VASP <----                  |
|                                                                             |
|     You enforced a specific xc type in the INCAR file but a different       |
|     type was found in the POTCAR file.                                      |
|     I HOPE YOU KNOW WHAT YOU ARE DOING!                                     |
|                                                                             |
 -----------------------------------------------------------------------------

  PAW_PBE Ti_pv 07Sep2000               :
 energy of atom  1       EATOM=-1042.5995
 kinetic energy error for atom=    0.0007 (will be added to EATOM!!)
  PAW_PBE O 08Apr2002                   :
 energy of atom  2       EATOM= -432.3788
 kinetic energy error for atom=    0.0168 (will be added to EATOM!!)
 
 
 POSCAR: Ti  O
  positions in direct lattice
  No initial velocities read in
 exchange correlation table for  LEXCH =       43
   RHO(1)=    0.500       N(1)  =     2000
   RHO(2)=  100.500       N(2)  =     4000
 


--------------------------------------------------------------------------------------------------------


 ion  position               nearest neighbor table
   1  0.750  0.625  0.285-  82 1.98 142 1.98 141 1.98  81 1.98  84 2.02 163 2.02  11 3.00  31 3.00

   2  0.000  0.750  0.285-  83 1.98  84 1.98 103 1.98 104 1.98  85 2.02  32 3.00  12 3.00
   3  0.000  0.625  0.393-  85 1.98 145 1.98  86 1.98 146 1.98  87 2.02  88 2.02  13 3.00  33 3.00

   4  0.750  0.750  0.393-  87 1.98 107 1.98 168 1.98 188 1.98  89 2.02  82 2.02  14 3.00  34 3.00

   5  0.750  0.625  0.500-  89 1.98  90 1.98 149 1.98 150 1.98  92 2.02 171 2.02  15 3.00  35 3.00

   6  0.000  0.750  0.500-  91 1.98 111 1.98  92 1.98 112 1.98  86 2.02  93 2.05  16 3.00  36 3.00

   7  0.991  0.625  0.605-  95 1.87  93 1.92 153 1.92  94 2.05 154 2.05  96 2.13  17 3.00  37 3.00

   8  0.743  0.750  0.612-  97 1.88 196 1.93 176 1.93  95 2.07 115 2.07  90 2.17  18 3.00  38 3.00

   9  0.751  0.625  0.722-  98 1.85 158 1.85 100 2.07 179 2.08  97 2.13 157 2.13  19 2.99  39 3.00

  10  0.001  0.750  0.710-  94 1.83 119 1.97  99 1.97 120 1.98 100 1.98  20 2.99  40 3.00
  11  0.750  0.875  0.285-  82 1.98 102 1.98 101 1.98  81 1.98 104 2.02 183 2.02   1 3.00  21 3.00

  12  0.000  0.000  0.285- 103 1.98 104 1.98 123 1.98 124 1.98 105 2.02  22 3.00   2 3.00
  13  0.000  0.875  0.393-  85 1.98 105 1.98  86 1.98 106 1.98 107 2.02 108 2.02   3 3.00  23 3.00

  14  0.750  0.000  0.393- 107 1.98 127 1.98 188 1.98 208 1.98 109 2.02 102 2.02   4 3.00  24 3.00

  15  0.750  0.875  0.500-  89 1.98  90 1.98 109 1.98 110 1.98 112 2.02 191 2.02   5 3.00  25 3.00

  16  0.000  0.000  0.500- 111 1.98 131 1.98 112 1.98 132 1.98 106 2.02 113 2.05   6 3.00  26 3.00

  17  0.991  0.875  0.605- 115 1.87  93 1.92 113 1.92  94 2.05 114 2.05 116 2.13  27 3.00   7 3.00

  18  0.743  1.000  0.612- 117 1.88 216 1.93 196 1.93 115 2.07 135 2.07 110 2.17   8 3.00  28 3.00

  19  0.751  0.875  0.722- 118 1.85  98 1.85 120 2.07 199 2.08 117 2.13  97 2.13   9 2.99  29 3.00

  20  0.001  1.000  0.710- 114 1.83 139 1.97 119 1.97 140 1.98 120 1.98  30 2.99  10 2.99
  21  0.750  0.125  0.285- 102 1.98 122 1.98 121 1.98 101 1.98 124 2.02 203 2.02  11 3.00  31 3.00

  22  0.000  0.250  0.285- 123 1.98 124 1.98 143 1.98 144 1.98 125 2.02  32 3.00  12 3.00
  23  0.000  0.125  0.393- 105 1.98 125 1.98 106 1.98 126 1.98 127 2.02 128 2.02  13 3.00  33 3.00

  24  0.750  0.250  0.393- 127 1.98 147 1.98 208 1.98 228 1.98 129 2.02 122 2.02  14 3.00  34 3.00

  25  0.750  0.125  0.500- 109 1.98 110 1.98 129 1.98 130 1.98 132 2.02 211 2.02  15 3.00  35 3.00

  26  0.000  0.250  0.500- 131 1.98 151 1.98 132 1.98 152 1.98 126 2.02 133 2.05  16 3.00  36 3.00

  27  0.991  0.125  0.605- 135 1.87 113 1.92 133 1.92 114 2.05 134 2.05 136 2.13  17 3.00  37 3.00

  28  0.743  0.250  0.612- 137 1.88 236 1.93 216 1.93 155 2.07 135 2.07 130 2.17  38 3.00  18 3.00

  29  0.751  0.125  0.722- 118 1.85 138 1.85 140 2.07 219 2.07 137 2.13 117 2.13  39 2.99  19 3.00

  30  0.001  0.250  0.710- 134 1.83 139 1.97 159 1.97 140 1.97 160 1.98  20 2.99  40 3.00
  31  0.750  0.375  0.285- 122 1.98 142 1.98 141 1.98 121 1.98 144 2.02 223 2.02   1 3.00  21 3.00

  32  0.000  0.500  0.285-  83 1.98  84 1.98 143 1.98 144 1.98 145 2.02  22 3.00   2 3.00
  33  0.000  0.375  0.393- 125 1.98 145 1.98 126 1.98 146 1.98 147 2.02 148 2.02   3 3.00  23 3.00

  34  0.750  0.500  0.393-  87 1.98 147 1.98 168 1.98 228 1.98 142 2.02 149 2.02   4 3.00  24 3.00

  35  0.750  0.375  0.500- 129 1.98 130 1.98 149 1.98 150 1.98 152 2.02 231 2.02   5 3.00  25 3.00

  36  0.000  0.500  0.500-  91 1.98 151 1.98  92 1.98 152 1.98 146 2.02 153 2.05   6 3.00  26 3.00

  37  0.991  0.375  0.605- 155 1.87 153 1.92 133 1.92 134 2.05 154 2.05 156 2.13  27 3.00   7 3.00

  38  0.743  0.500  0.612- 157 1.88 236 1.93 176 1.93  95 2.07 155 2.07 150 2.17  28 3.00   8 3.00

  39  0.751  0.375  0.722- 138 1.85 158 1.85 160 2.07 239 2.08 137 2.13 157 2.13  29 2.99   9 3.00

  40  0.001  0.500  0.710- 154 1.83 159 1.97  99 1.97 160 1.98 100 1.98  10 3.00  30 3.00
  41  0.250  0.625  0.285- 162 1.98 222 1.98 221 1.98 161 1.98  83 2.02 164 2.02  51 3.00  71 3.00

  42  0.500  0.750  0.285- 163 1.98 164 1.98 183 1.98 184 1.98 165 2.02  72 3.00  52 3.00
  43  0.500  0.625  0.393- 165 1.98 225 1.98 166 1.98 226 1.98 168 2.02 167 2.02  53 3.00  73 3.00

  44  0.250  0.750  0.393- 167 1.98 187 1.98  88 1.98 108 1.98 169 2.02 162 2.02  54 3.00  74 3.00

  45  0.250  0.625  0.500- 169 1.98 170 1.98 229 1.98 230 1.98 172 2.02  91 2.02  55 3.00  75 3.00

  46  0.500  0.750  0.500- 171 1.98 191 1.98 172 1.98 192 1.98 166 2.02 173 2.05  56 3.00  76 3.00

  47  0.491  0.625  0.605- 175 1.87 233 1.92 173 1.92 174 2.05 234 2.05 176 2.13  77 2.99  57 3.00

  48  0.243  0.750  0.612- 177 1.88  96 1.93 116 1.93 195 2.07 175 2.07 170 2.17  58 3.00  78 3.00

  49  0.251  0.625  0.722- 178 1.85 238 1.85 180 2.07  99 2.08 177 2.13 237 2.13  59 2.99  79 3.00

  50  0.501  0.750  0.710- 174 1.83 179 1.97 199 1.97 180 1.97 200 1.98  80 2.99  60 3.00
  51  0.250  0.875  0.285- 162 1.98 182 1.98 181 1.98 161 1.98 103 2.02 184 2.02  41 3.00  61 3.00

  52  0.500  0.000  0.285- 183 1.98 184 1.98 203 1.98 204 1.98 185 2.02  62 3.00  42 3.00
  53  0.500  0.875  0.393- 165 1.98 185 1.98 166 1.98 186 1.98 188 2.02 187 2.02  43 3.00  63 3.00

  54  0.250  0.000  0.393- 187 1.98 207 1.98 108 1.98 128 1.98 189 2.02 182 2.02  44 3.00  64 3.00

  55  0.250  0.875  0.500- 169 1.98 170 1.98 189 1.98 190 1.98 192 2.02 111 2.02  45 3.00  65 3.00

  56  0.500  0.000  0.500- 191 1.98 211 1.98 192 1.98 212 1.98 186 2.02 193 2.05  46 3.00  66 3.00

  57  0.491  0.875  0.605- 195 1.87 173 1.92 193 1.92 174 2.05 194 2.05 196 2.13  47 3.00  67 3.00

  58  0.243  0.000  0.612- 197 1.88 136 1.93 116 1.93 195 2.07 215 2.07 190 2.17  68 2.99  48 3.00

  59  0.251  0.875  0.722- 198 1.85 178 1.85 200 2.07 119 2.08 177 2.13 197 2.13  49 2.99  69 3.00

  60  0.501  0.000  0.710- 194 1.83 219 1.97 199 1.97 220 1.97 200 1.97  70 3.00  50 3.00
  61  0.250  0.125  0.285- 182 1.98 202 1.98 201 1.98 181 1.98 123 2.02 204 2.02  51 3.00  71 3.00

  62  0.500  0.250  0.285- 203 1.98 204 1.98 223 1.98 224 1.98 205 2.02  72 3.00  52 3.00
  63  0.500  0.125  0.393- 185 1.98 205 1.98 186 1.98 206 1.98 208 2.02 207 2.02  53 3.00  73 3.00

  64  0.250  0.250  0.393- 207 1.98 227 1.98 128 1.98 148 1.98 209 2.02 202 2.02  54 3.00  74 3.00

  65  0.250  0.125  0.500- 189 1.98 190 1.98 209 1.98 210 1.98 212 2.02 131 2.02  55 3.00  75 3.00

  66  0.500  0.250  0.500- 211 1.98 231 1.98 212 1.98 232 1.98 206 2.02 213 2.05  56 3.00  76 3.00

  67  0.491  0.125  0.605- 215 1.87 213 1.92 193 1.92 214 2.05 194 2.05 216 2.13  77 3.00  57 3.00

  68  0.243  0.250  0.612- 217 1.88 136 1.93 156 1.93 215 2.07 235 2.07 210 2.17  58 2.99  78 3.00

  69  0.251  0.125  0.722- 198 1.85 218 1.85 220 2.07 139 2.08 217 2.13 197 2.13  79 2.99  59 3.00

  70  0.501  0.250  0.710- 214 1.83 239 1.97 240 1.97 219 1.97 220 1.98  80 2.99  60 3.00
  71  0.250  0.375  0.285- 202 1.98 222 1.98 221 1.98 201 1.98 143 2.02 224 2.02  41 3.00  61 3.00

  72  0.500  0.500  0.285- 163 1.98 164 1.98 223 1.98 224 1.98 225 2.02  62 3.00  42 3.00
  73  0.500  0.375  0.393- 205 1.98 225 1.98 206 1.98 226 1.98 228 2.02 227 2.02  43 3.00  63 3.00

  74  0.250  0.500  0.393- 167 1.98 227 1.98  88 1.98 148 1.98 222 2.02 229 2.02  44 3.00  64 3.00

  75  0.250  0.375  0.500- 209 1.98 210 1.98 229 1.98 230 1.98 232 2.02 151 2.02  45 3.00  65 3.00

  76  0.500  0.500  0.500- 171 1.98 231 1.98 172 1.98 232 1.98 226 2.02 233 2.05  46 3.00  66 3.00

  77  0.491  0.375  0.605- 235 1.87 233 1.92 213 1.92 214 2.05 234 2.05 236 2.13  47 2.99  67 3.00

  78  0.243  0.500  0.612- 237 1.88 156 1.93  96 1.93 175 2.07 235 2.07 230 2.17  48 3.00  68 3.00

  79  0.251  0.375  0.722- 218 1.85 238 1.85 240 2.07 159 2.07 217 2.13 237 2.13  69 2.99  49 3.00

  80  0.501  0.500  0.710- 234 1.84 239 1.97 179 1.97 240 1.98 180 1.98  70 2.99  50 2.99
  81  0.750  0.750  0.243-   1 1.98  11 1.98
  82  0.750  0.750  0.327-   1 1.98  11 1.98   4 2.02
  83  0.098  0.625  0.285-   2 1.98  32 1.98  41 2.02
  84  0.902  0.625  0.285-   2 1.98  32 1.98   1 2.02
  85  0.000  0.750  0.351-   3 1.98  13 1.98   2 2.02
  86  0.000  0.750  0.434-   3 1.98  13 1.98   6 2.02
  87  0.848  0.625  0.393-   4 1.98  34 1.98   3 2.02
  88  0.152  0.625  0.393-  44 1.98  74 1.98   3 2.02
  89  0.750  0.750  0.458-   5 1.98  15 1.98   4 2.02
  90  0.750  0.750  0.542-   5 1.98  15 1.98   8 2.17
  91  0.098  0.625  0.500-   6 1.98  36 1.98  45 2.02
  92  0.902  0.625  0.500-   6 1.98  36 1.98   5 2.02
  93  1.000  0.750  0.566-  17 1.92   7 1.92   6 2.05
  94  0.000  0.750  0.651-  10 1.83   7 2.05  17 2.05
  95  0.850  0.625  0.608-   7 1.87  38 2.07   8 2.07
  96  0.151  0.625  0.608-  48 1.93  78 1.93   7 2.13
  97  0.750  0.750  0.673-   8 1.88   9 2.13  19 2.13
  98  0.750  0.750  0.758-   9 1.85  19 1.85
  99  0.094  0.625  0.721-  10 1.97  40 1.97  49 2.08
 100  0.907  0.625  0.721-  40 1.98  10 1.98   9 2.07
 101  0.750  0.000  0.243-  11 1.98  21 1.98
 102  0.750  0.000  0.327-  11 1.98  21 1.98  14 2.02
 103  0.098  0.875  0.285-   2 1.98  12 1.98  51 2.02
 104  0.902  0.875  0.285-   2 1.98  12 1.98  11 2.02
 105  0.000  0.000  0.351-  13 1.98  23 1.98  12 2.02
 106  0.000  0.000  0.434-  13 1.98  23 1.98  16 2.02
 107  0.848  0.875  0.393-   4 1.98  14 1.98  13 2.02
 108  0.152  0.875  0.393-  44 1.98  54 1.98  13 2.02
 109  0.750  0.000  0.458-  15 1.98  25 1.98  14 2.02
 110  0.750  0.000  0.542-  15 1.98  25 1.98  18 2.17
 111  0.098  0.875  0.500-   6 1.98  16 1.98  55 2.02
 112  0.902  0.875  0.500-   6 1.98  16 1.98  15 2.02
 113  0.000  1.000  0.566-  27 1.92  17 1.92  16 2.05
 114  0.000  0.000  0.651-  20 1.83  27 2.05  17 2.05
 115  0.850  0.875  0.608-  17 1.87  18 2.07   8 2.07
 116  0.151  0.875  0.608-  48 1.93  58 1.93  17 2.13
 117  0.750  0.000  0.673-  18 1.88  29 2.13  19 2.13
 118  0.751  0.000  0.758-  19 1.85  29 1.85
 119  0.094  0.875  0.721-  10 1.97  20 1.97  59 2.08
 120  0.907  0.875  0.721-  10 1.98  20 1.98  19 2.07
 121  0.750  0.250  0.243-  21 1.98  31 1.98
 122  0.750  0.250  0.327-  21 1.98  31 1.98  24 2.02
 123  0.098  0.125  0.285-  12 1.98  22 1.98  61 2.02
 124  0.902  0.125  0.285-  12 1.98  22 1.98  21 2.02
 125  0.000  0.250  0.351-  23 1.98  33 1.98  22 2.02
 126  0.000  0.250  0.434-  23 1.98  33 1.98  26 2.02
 127  0.848  0.125  0.393-  14 1.98  24 1.98  23 2.02
 128  0.152  0.125  0.393-  54 1.98  64 1.98  23 2.02
 129  0.750  0.250  0.458-  25 1.98  35 1.98  24 2.02
 130  0.750  0.250  0.542-  25 1.98  35 1.98  28 2.17
 131  0.098  0.125  0.500-  16 1.98  26 1.98  65 2.02
 132  0.902  0.125  0.500-  16 1.98  26 1.98  25 2.02
 133  0.000  0.250  0.566-  37 1.92  27 1.92  26 2.05
 134  0.000  0.250  0.651-  30 1.83  27 2.05  37 2.05
 135  0.850  0.125  0.608-  27 1.87  28 2.07  18 2.07
 136  0.151  0.125  0.608-  58 1.93  68 1.93  27 2.13
 137  0.750  0.250  0.673-  28 1.88  39 2.13  29 2.13
 138  0.750  0.250  0.758-  39 1.85  29 1.85
 139  0.094  0.125  0.721-  20 1.97  30 1.97  69 2.08
 140  0.907  0.125  0.721-  30 1.97  20 1.98  29 2.07
 141  0.750  0.500  0.243-   1 1.98  31 1.98
 142  0.750  0.500  0.327-   1 1.98  31 1.98  34 2.02
 143  0.098  0.375  0.285-  22 1.98  32 1.98  71 2.02
 144  0.902  0.375  0.285-  22 1.98  32 1.98  31 2.02
 145  0.000  0.500  0.351-   3 1.98  33 1.98  32 2.02
 146  0.000  0.500  0.434-   3 1.98  33 1.98  36 2.02
 147  0.848  0.375  0.393-  24 1.98  34 1.98  33 2.02
 148  0.152  0.375  0.393-  64 1.98  74 1.98  33 2.02
 149  0.750  0.500  0.458-   5 1.98  35 1.98  34 2.02
 150  0.750  0.500  0.542-   5 1.98  35 1.98  38 2.17
 151  0.098  0.375  0.500-  26 1.98  36 1.98  75 2.02
 152  0.902  0.375  0.500-  26 1.98  36 1.98  35 2.02
 153  0.000  0.500  0.566-  37 1.92   7 1.92  36 2.05
 154  0.000  0.500  0.651-  40 1.83   7 2.05  37 2.05
 155  0.850  0.375  0.608-  37 1.87  28 2.07  38 2.07
 156  0.151  0.375  0.608-  68 1.93  78 1.93  37 2.13
 157  0.750  0.500  0.673-  38 1.88  39 2.13   9 2.13
 158  0.750  0.500  0.757-   9 1.85  39 1.85
 159  0.094  0.375  0.721-  40 1.97  30 1.97  79 2.07
 160  0.907  0.375  0.721-  40 1.98  30 1.98  39 2.07
 161  0.250  0.750  0.243-  41 1.98  51 1.98
 162  0.250  0.750  0.327-  41 1.98  51 1.98  44 2.02
 163  0.598  0.625  0.285-  42 1.98  72 1.98   1 2.02
 164  0.402  0.625  0.285-  42 1.98  72 1.98  41 2.02
 165  0.500  0.750  0.351-  43 1.98  53 1.98  42 2.02
 166  0.500  0.750  0.434-  43 1.98  53 1.98  46 2.02
 167  0.348  0.625  0.393-  44 1.98  74 1.98  43 2.02
 168  0.652  0.625  0.393-   4 1.98  34 1.98  43 2.02
 169  0.250  0.750  0.458-  45 1.98  55 1.98  44 2.02
 170  0.250  0.750  0.542-  45 1.98  55 1.98  48 2.17
 171  0.598  0.625  0.500-  46 1.98  76 1.98   5 2.02
 172  0.402  0.625  0.500-  46 1.98  76 1.98  45 2.02
 173  0.500  0.750  0.566-  57 1.92  47 1.92  46 2.05
 174  0.500  0.750  0.650-  50 1.83  57 2.05  47 2.05
 175  0.350  0.625  0.608-  47 1.87  78 2.07  48 2.07
 176  0.651  0.625  0.608-   8 1.93  38 1.93  47 2.13
 177  0.250  0.750  0.673-  48 1.88  49 2.13  59 2.13
 178  0.251  0.750  0.758-  49 1.85  59 1.85
 179  0.594  0.625  0.720-  50 1.97  80 1.97   9 2.08
 180  0.407  0.625  0.721-  50 1.97  80 1.98  49 2.07
 181  0.250  0.000  0.243-  51 1.98  61 1.98
 182  0.250  0.000  0.327-  51 1.98  61 1.98  54 2.02
 183  0.598  0.875  0.285-  42 1.98  52 1.98  11 2.02
 184  0.402  0.875  0.285-  42 1.98  52 1.98  51 2.02
 185  0.500  0.000  0.351-  53 1.98  63 1.98  52 2.02
 186  0.500  0.000  0.434-  53 1.98  63 1.98  56 2.02
 187  0.348  0.875  0.393-  44 1.98  54 1.98  53 2.02
 188  0.652  0.875  0.393-   4 1.98  14 1.98  53 2.02
 189  0.250  0.000  0.458-  55 1.98  65 1.98  54 2.02
 190  0.250  0.000  0.542-  55 1.98  65 1.98  58 2.17
 191  0.598  0.875  0.500-  46 1.98  56 1.98  15 2.02
 192  0.402  0.875  0.500-  46 1.98  56 1.98  55 2.02
 193  0.500  1.000  0.566-  67 1.92  57 1.92  56 2.05
 194  0.500  0.000  0.650-  60 1.83  67 2.05  57 2.05
 195  0.350  0.875  0.608-  57 1.87  58 2.07  48 2.07
 196  0.651  0.875  0.608-   8 1.93  18 1.93  57 2.13
 197  0.250  0.000  0.673-  58 1.88  69 2.13  59 2.13
 198  0.251  0.000  0.758-  59 1.85  69 1.85
 199  0.594  0.875  0.721-  60 1.97  50 1.97  19 2.08
 200  0.407  0.875  0.721-  60 1.97  50 1.98  59 2.07
 201  0.250  0.250  0.243-  61 1.98  71 1.98
 202  0.250  0.250  0.327-  61 1.98  71 1.98  64 2.02
 203  0.598  0.125  0.285-  52 1.98  62 1.98  21 2.02
 204  0.402  0.125  0.285-  52 1.98  62 1.98  61 2.02
 205  0.500  0.250  0.351-  63 1.98  73 1.98  62 2.02
 206  0.500  0.250  0.434-  63 1.98  73 1.98  66 2.02
 207  0.348  0.125  0.393-  54 1.98  64 1.98  63 2.02
 208  0.652  0.125  0.393-  14 1.98  24 1.98  63 2.02
 209  0.250  0.250  0.458-  65 1.98  75 1.98  64 2.02
 210  0.250  0.250  0.542-  65 1.98  75 1.98  68 2.17
 211  0.598  0.125  0.500-  56 1.98  66 1.98  25 2.02
 212  0.402  0.125  0.500-  56 1.98  66 1.98  65 2.02
 213  0.500  0.250  0.566-  67 1.92  77 1.92  66 2.05
 214  0.500  0.250  0.650-  70 1.83  67 2.05  77 2.05
 215  0.350  0.125  0.608-  67 1.87  68 2.07  58 2.07
 216  0.651  0.125  0.608-  18 1.93  28 1.93  67 2.13
 217  0.250  0.250  0.673-  68 1.88  79 2.13  69 2.13
 218  0.251  0.250  0.757-  79 1.85  69 1.85
 219  0.594  0.125  0.721-  60 1.97  70 1.97  29 2.07
 220  0.407  0.125  0.721-  60 1.97  70 1.98  69 2.07
 221  0.250  0.500  0.243-  41 1.98  71 1.98
 222  0.250  0.500  0.327-  41 1.98  71 1.98  74 2.02
 223  0.598  0.375  0.285-  62 1.98  72 1.98  31 2.02
 224  0.402  0.375  0.285-  62 1.98  72 1.98  71 2.02
 225  0.500  0.500  0.351-  43 1.98  73 1.98  72 2.02
 226  0.500  0.500  0.434-  43 1.98  73 1.98  76 2.02
 227  0.348  0.375  0.393-  64 1.98  74 1.98  73 2.02
 228  0.652  0.375  0.393-  24 1.98  34 1.98  73 2.02
 229  0.250  0.500  0.458-  45 1.98  75 1.98  74 2.02
 230  0.250  0.500  0.542-  45 1.98  75 1.98  78 2.17
 231  0.598  0.375  0.500-  66 1.98  76 1.98  35 2.02
 232  0.402  0.375  0.500-  66 1.98  76 1.98  75 2.02
 233  0.500  0.500  0.566-  77 1.92  47 1.92  76 2.05
 234  0.500  0.500  0.651-  80 1.84  77 2.05  47 2.05
 235  0.350  0.375  0.608-  77 1.87  78 2.07  68 2.07
 236  0.651  0.375  0.608-  38 1.93  28 1.93  77 2.13
 237  0.250  0.500  0.673-  78 1.88  79 2.13  49 2.13
 238  0.251  0.500  0.757-  49 1.85  79 1.85
 239  0.594  0.375  0.720-  70 1.97  80 1.97  39 2.08
 240  0.407  0.375  0.721-  70 1.97  80 1.98  79 2.07
 

IMPORTANT INFORMATION: All symmetrisations will be switched off!
NOSYMM: (Re-)initialisation of all symmetry stuff for point group C_1.


----------------------------------------------------------------------------------------

                                     Primitive cell                                     

  volume of cell :    4895.9617

  direct lattice vectors                    reciprocal lattice vectors
    13.251680751  0.000000000  0.000000000     0.075462126  0.000000000  0.000000000
     0.000000000 11.981436613  0.000000000     0.000000000  0.083462445  0.000000000
     0.000000000  0.000000000 30.836008487     0.000000000  0.000000000  0.032429619

  length of vectors
    13.251680751 11.981436613 30.836008487     0.075462126  0.083462445  0.032429619

  position of ions in fractional coordinates (direct lattice)
     0.750000000  0.625000000  0.285126523
     0.000000000  0.750000000  0.285126523
     0.000000000  0.625000000  0.392563261
     0.750000000  0.750000000  0.392563261
     0.750000000  0.625000000  0.500000000
     0.000000000  0.750000000  0.500000000
     0.990860722  0.625010312  0.605211217
     0.742984532  0.750001809  0.612102535
     0.750989427  0.625054114  0.722285544
     0.000805496  0.750059263  0.709966652
     0.750000000  0.875000000  0.285126523
     0.000000000  0.000000000  0.285126523
     0.000000000  0.875000000  0.392563261
     0.750000000  0.000000000  0.392563261
     0.750000000  0.875000000  0.500000000
     0.000000000  0.000000000  0.500000000
     0.990855767  0.875005284  0.605202357
     0.743033464  0.999998594  0.612136516
     0.750833206  0.875005954  0.722394568
     0.000763672  0.999999268  0.709961820
     0.750000000  0.125000000  0.285126523
     0.000000000  0.250000000  0.285126523
     0.000000000  0.125000000  0.392563261
     0.750000000  0.250000000  0.392563261
     0.750000000  0.125000000  0.500000000
     0.000000000  0.250000000  0.500000000
     0.990914333  0.124988265  0.605199383
     0.743116819  0.250008033  0.612107166
     0.750756218  0.125005460  0.722384311
     0.000722150  0.249936450  0.709950987
     0.750000000  0.375000000  0.285126523
     0.000000000  0.500000000  0.285126523
     0.000000000  0.375000000  0.392563261
     0.750000000  0.500000000  0.392563261
     0.750000000  0.375000000  0.500000000
     0.000000000  0.500000000  0.500000000
     0.990953166  0.374996140  0.605194993
     0.743080127  0.499995664  0.612096310
     0.750910787  0.374944737  0.722288471
     0.000764450  0.500001086  0.709968481
     0.250000000  0.625000000  0.285126523
     0.500000000  0.750000000  0.285126523
     0.500000000  0.625000000  0.392563261
     0.250000000  0.750000000  0.392563261
     0.250000000  0.625000000  0.500000000
     0.500000000  0.750000000  0.500000000
     0.490850053  0.624913445  0.605311704
     0.242944062  0.750022121  0.612106072
     0.250874750  0.625057540  0.722296602
     0.500809930  0.749926844  0.709931604
     0.250000000  0.875000000  0.285126523
     0.500000000  0.000000000  0.285126523
     0.500000000  0.875000000  0.392563261
     0.250000000  0.000000000  0.392563261
     0.250000000  0.875000000  0.500000000
     0.500000000  0.000000000  0.500000000
     0.490837474  0.874953042  0.605175292
     0.243079777  0.000002685  0.612139752
     0.251029238  0.875004782  0.722394876
     0.500773699  0.000002913  0.709929401
     0.250000000  0.125000000  0.285126523
     0.500000000  0.250000000  0.285126523
     0.500000000  0.125000000  0.392563261
     0.250000000  0.250000000  0.392563261
     0.250000000  0.125000000  0.500000000
     0.500000000  0.250000000  0.500000000
     0.490926175  0.125044709  0.605163172
     0.243079470  0.249964694  0.612098244
     0.250953067  0.124994830  0.722381309
     0.500725760  0.250077324  0.709918227
     0.250000000  0.375000000  0.285126523
     0.500000000  0.500000000  0.285126523
     0.500000000  0.375000000  0.392563261
     0.250000000  0.500000000  0.392563261
     0.250000000  0.375000000  0.500000000
     0.500000000  0.500000000  0.500000000
     0.490899447  0.375089073  0.605311769
     0.243027052  0.500004323  0.612094112
     0.250778628  0.374919469  0.722268856
     0.500752298  0.499995362  0.710233843
     0.750000000  0.750000000  0.243222141
     0.750000000  0.750000000  0.327030904
     0.097509432  0.625000000  0.285126523
     0.902490568  0.625000000  0.285126523
     0.000000000  0.750000000  0.350658880
     0.000000000  0.750000000  0.434467643
     0.847509432  0.625000000  0.392563261
     0.152490568  0.625000000  0.392563261
     0.750000000  0.750000000  0.458095618
     0.750000000  0.750000000  0.541904382
     0.097509432  0.625000000  0.500000000
     0.902490568  0.625000000  0.500000000
     0.999982166  0.750004935  0.566370622
     0.000014445  0.750001819  0.650508406
     0.850006179  0.625022066  0.608003948
     0.151135811  0.625037654  0.608423263
     0.750283848  0.750078749  0.673143562
     0.750492160  0.749911265  0.757505914
     0.094268976  0.625019810  0.720681883
     0.906904760  0.625006361  0.720783057
     0.750000000  0.000000000  0.243222141
     0.750000000  0.000000000  0.327030904
     0.097509432  0.875000000  0.285126523
     0.902490568  0.875000000  0.285126523
     0.000000000  0.000000000  0.350658880
     0.000000000  0.000000000  0.434467643
     0.847509432  0.875000000  0.392563261
     0.152490568  0.875000000  0.392563261
     0.750000000  0.000000000  0.458095618
     0.750000000  0.000000000  0.541904382
     0.097509432  0.875000000  0.500000000
     0.902490568  0.875000000  0.500000000
     0.000029235  0.999997988  0.566365700
     0.000063403  0.000024618  0.650503356
     0.850016356  0.875032819  0.608025616
     0.151137914  0.875024530  0.608448520
     0.750081616  0.000013540  0.673176271
     0.750662748  0.000008088  0.757526661
     0.094278239  0.874990757  0.720663867
     0.906889768  0.874999846  0.720769841
     0.750000000  0.250000000  0.243222141
     0.750000000  0.250000000  0.327030904
     0.097509432  0.125000000  0.285126523
     0.902490568  0.125000000  0.285126523
     0.000000000  0.250000000  0.350658880
     0.000000000  0.250000000  0.434467643
     0.847509432  0.125000000  0.392563261
     0.152490568  0.125000000  0.392563261
     0.750000000  0.250000000  0.458095618
     0.750000000  0.250000000  0.541904382
     0.097509432  0.125000000  0.500000000
     0.902490568  0.125000000  0.500000000
     0.000054455  0.249987812  0.566365669
     0.000102260  0.249983200  0.650500315
     0.850065540  0.124980783  0.608025648
     0.151222357  0.124973567  0.608446231
     0.750299442  0.249923576  0.673155589
     0.750497363  0.250084376  0.757506575
     0.094254677  0.124988799  0.720678580
     0.906872415  0.124998881  0.720734611
     0.750000000  0.500000000  0.243222141
     0.750000000  0.500000000  0.327030904
     0.097509432  0.375000000  0.285126523
     0.902490568  0.375000000  0.285126523
     0.000000000  0.500000000  0.350658880
     0.000000000  0.500000000  0.434467643
     0.847509432  0.375000000  0.392563261
     0.152490568  0.375000000  0.392563261
     0.750000000  0.500000000  0.458095618
     0.750000000  0.500000000  0.541904382
     0.097509432  0.375000000  0.500000000
     0.902490568  0.375000000  0.500000000
     0.000019438  0.500006592  0.566373335
     0.000063338  0.499989325  0.650515288
     0.850077301  0.374964669  0.608011688
     0.151198752  0.374955372  0.608423468
     0.750409647  0.499983638  0.673121106
     0.750361595  0.500003024  0.757452868
     0.094250171  0.374996610  0.720680154
     0.906893678  0.374992750  0.720756699
     0.250000000  0.750000000  0.243222141
     0.250000000  0.750000000  0.327030904
     0.597509432  0.625000000  0.285126523
     0.402490568  0.625000000  0.285126523
     0.500000000  0.750000000  0.350658880
     0.500000000  0.750000000  0.434467643
     0.347509432  0.625000000  0.392563261
     0.652490568  0.625000000  0.392563261
     0.250000000  0.750000000  0.458095618
     0.250000000  0.750000000  0.541904382
     0.597509432  0.625000000  0.500000000
     0.402490568  0.625000000  0.500000000
     0.499965703  0.749897935  0.566382052
     0.500027568  0.750154345  0.650467328
     0.349973247  0.624968834  0.608081128
     0.651169292  0.624997272  0.608486594
     0.250050165  0.750081574  0.673151465
     0.250694454  0.749919495  0.757513671
     0.594390405  0.625215961  0.720441371
     0.406783221  0.625230487  0.720560837
     0.250000000  0.000000000  0.243222141
     0.250000000  0.000000000  0.327030904
     0.597509432  0.875000000  0.285126523
     0.402490568  0.875000000  0.285126523
     0.500000000  0.000000000  0.350658880
     0.500000000  0.000000000  0.434467643
     0.347509432  0.875000000  0.392563261
     0.652490568  0.875000000  0.392563261
     0.250000000  0.000000000  0.458095618
     0.250000000  0.000000000  0.541904382
     0.597509432  0.875000000  0.500000000
     0.402490568  0.875000000  0.500000000
     0.500036800  0.999994576  0.566345227
     0.500058528  0.000012114  0.650485168
     0.349958119  0.875014870  0.608006194
     0.651182617  0.875000436  0.608426585
     0.250218438  0.000009430  0.673173297
     0.250529052  0.000007176  0.757526444
     0.594287926  0.875031569  0.720677352
     0.406891199  0.875061776  0.720777714
     0.250000000  0.250000000  0.243222141
     0.250000000  0.250000000  0.327030904
     0.597509432  0.125000000  0.285126523
     0.402490568  0.125000000  0.285126523
     0.500000000  0.250000000  0.350658880
     0.500000000  0.250000000  0.434467643
     0.347509432  0.125000000  0.392563261
     0.652490568  0.125000000  0.392563261
     0.250000000  0.250000000  0.458095618
     0.250000000  0.250000000  0.541904382
     0.597509432  0.125000000  0.500000000
     0.402490568  0.125000000  0.500000000
     0.500034061  0.250108687  0.566377099
     0.500123025  0.249857881  0.650459965
     0.350028681  0.124998867  0.608013286
     0.651242707  0.125007365  0.608433075
     0.250059002  0.249915464  0.673151526
     0.250686566  0.250082022  0.757498593
     0.594272403  0.124943069  0.720680331
     0.406874948  0.124948159  0.720741423
     0.250000000  0.500000000  0.243222141
     0.250000000  0.500000000  0.327030904
     0.597509432  0.375000000  0.285126523
     0.402490568  0.375000000  0.285126523
     0.500000000  0.500000000  0.350658880
     0.500000000  0.500000000  0.434467643
     0.347509432  0.375000000  0.392563261
     0.652490568  0.375000000  0.392563261
     0.250000000  0.500000000  0.458095618
     0.250000000  0.500000000  0.541904382
     0.597509432  0.375000000  0.500000000
     0.402490568  0.375000000  0.500000000
     0.500014597  0.499996645  0.566425033
     0.500030242  0.499976497  0.650659698
     0.350018309  0.375018064  0.608079048
     0.651255145  0.374995887  0.608490286
     0.249942581  0.499992468  0.673120098
     0.250827902  0.499976828  0.757445727
     0.594362019  0.374807285  0.720468009
     0.406754022  0.374760634  0.720509426

  ion indices of the primitive-cell ions
   primitive index   ion index
                 1           1
                 2           2
                 3           3
                 4           4
                 5           5
                 6           6
                 7           7
                 8           8
                 9           9
                10          10
                11          11
                12          12
                13          13
                14          14
                15          15
                16          16
                17          17
                18          18
                19          19
                20          20
                21          21
                22          22
                23          23
                24          24
                25          25
                26          26
                27          27
                28          28
                29          29
                30          30
                31          31
                32          32
                33          33
                34          34
                35          35
                36          36
                37          37
                38          38
                39          39
                40          40
                41          41
                42          42
                43          43
                44          44
                45          45
                46          46
                47          47
                48          48
                49          49
                50          50
                51          51
                52          52
                53          53
                54          54
                55          55
                56          56
                57          57
                58          58
                59          59
                60          60
                61          61
                62          62
                63          63
                64          64
                65          65
                66          66
                67          67
                68          68
                69          69
                70          70
                71          71
                72          72
                73          73
                74          74
                75          75
                76          76
                77          77
                78          78
                79          79
                80          80
                81          81
                82          82
                83          83
                84          84
                85          85
                86          86
                87          87
                88          88
                89          89
                90          90
                91          91
                92          92
                93          93
                94          94
                95          95
                96          96
                97          97
                98          98
                99          99
               100         100
               101         101
               102         102
               103         103
               104         104
               105         105
               106         106
               107         107
               108         108
               109         109
               110         110
               111         111
               112         112
               113         113
               114         114
               115         115
               116         116
               117         117
               118         118
               119         119
               120         120
               121         121
               122         122
               123         123
               124         124
               125         125
               126         126
               127         127
               128         128
               129         129
               130         130
               131         131
               132         132
               133         133
               134         134
               135         135
               136         136
               137         137
               138         138
               139         139
               140         140
               141         141
               142         142
               143         143
               144         144
               145         145
               146         146
               147         147
               148         148
               149         149
               150         150
               151         151
               152         152
               153         153
               154         154
               155         155
               156         156
               157         157
               158         158
               159         159
               160         160
               161         161
               162         162
               163         163
               164         164
               165         165
               166         166
               167         167
               168         168
               169         169
               170         170
               171         171
               172         172
               173         173
               174         174
               175         175
               176         176
               177         177
               178         178
               179         179
               180         180
               181         181
               182         182
               183         183
               184         184
               185         185
               186         186
               187         187
               188         188
               189         189
               190         190
               191         191
               192         192
               193         193
               194         194
               195         195
               196         196
               197         197
               198         198
               199         199
               200         200
               201         201
               202         202
               203         203
               204         204
               205         205
               206         206
               207         207
               208         208
               209         209
               210         210
               211         211
               212         212
               213         213
               214         214
               215         215
               216         216
               217         217
               218         218
               219         219
               220         220
               221         221
               222         222
               223         223
               224         224
               225         225
               226         226
               227         227
               228         228
               229         229
               230         230
               231         231
               232         232
               233         233
               234         234
               235         235
               236         236
               237         237
               238         238
               239         239
               240         240

----------------------------------------------------------------------------------------

 
 
 KPOINTS: pymatgen v2020.8.13 with grid density = 

Automatic generation of k-mesh.
 Grid dimensions read from file:
 generate k-points for:    2    2    1

 Generating k-lattice:

  Cartesian coordinates                     Fractional coordinates (reciprocal lattice)
     0.037731063  0.000000000  0.000000000     0.500000000  0.000000000  0.000000000
     0.000000000  0.041731223  0.000000000     0.000000000  0.500000000  0.000000000
     0.000000000  0.000000000  0.032429619     0.000000000  0.000000000  1.000000000

  Length of vectors
     0.037731063  0.041731223  0.032429619

  Shift w.r.t. Gamma in fractional coordinates (k-lattice)
     0.000000000  0.000000000  0.000000000

 
 Subroutine IBZKPT returns following result:
 ===========================================
 
 Found      4 irreducible k-points:
 
 Following reciprocal coordinates:
            Coordinates               Weight
  0.000000  0.000000  0.000000      1.000000
  0.500000  0.000000  0.000000      1.000000
  0.000000  0.500000  0.000000      1.000000
  0.500000  0.500000  0.000000      1.000000
 
 Following cartesian coordinates:
            Coordinates               Weight
  0.000000  0.000000  0.000000      1.000000
  0.037731  0.000000  0.000000      1.000000
  0.000000  0.041731  0.000000      1.000000
  0.037731  0.041731  0.000000      1.000000
 


--------------------------------------------------------------------------------------------------------




 Dimension of arrays:
   k-points           NKPTS =      4   k-points in BZ     NKDIM =      4   number of bands    NBANDS=   1064
   number of dos      NEDOS =    301   number of ions     NIONS =    240
   non local maximal  LDIM  =      6   non local SUM 2l+1 LMDIM =     18
   total plane-waves  NPLWV = ******
   max r-space proj   IRMAX =      1   max aug-charges    IRDMAX=  20751
   dimension x,y,z NGX =   108 NGY =   96 NGZ =  250
   dimension x,y,z NGXF=   216 NGYF=  192 NGZF=  500
   support grid    NGXF=   216 NGYF=  192 NGZF=  500
   ions per type =              80 160
   NGX,Y,Z   is equivalent  to a cutoff of  13.55, 13.32, 13.48 a.u.
   NGXF,Y,Z  is equivalent  to a cutoff of  27.10, 26.64, 26.96 a.u.

 SYSTEM =  TiO2                                    
 POSCAR =  Ti  O                                   

--------------------------------------------------------------------------------------------------------


  energy-cutoff  :      600.00
  volume of cell :     4895.96
      direct lattice vectors                 reciprocal lattice vectors
    13.251680751  0.000000000  0.000000000     0.075462126  0.000000000  0.000000000
     0.000000000 11.981436613  0.000000000     0.000000000  0.083462445  0.000000000
     0.000000000  0.000000000 30.836008487     0.000000000  0.000000000  0.032429619

  length of vectors
    13.251680751 11.981436613 30.836008487     0.075462126  0.083462445  0.032429619


 
 k-points in units of 2pi/SCALE and weight: pymatgen v2020.8.13 with grid density = 
   0.00000000  0.00000000  0.00000000       0.250
   0.03773106  0.00000000  0.00000000       0.250
   0.00000000  0.04173122  0.00000000       0.250
   0.03773106  0.04173122  0.00000000       0.250
 
 k-points in reciprocal lattice and weights: pymatgen v2020.8.13 with grid density = 
   0.00000000  0.00000000  0.00000000       0.250
   0.50000000  0.00000000  0.00000000       0.250
   0.00000000  0.50000000  0.00000000       0.250
   0.50000000  0.50000000  0.00000000       0.250
 
 position of ions in fractional coordinates (direct lattice) 
   0.75000000  0.62500000  0.28512652
   0.00000000  0.75000000  0.28512652
   0.00000000  0.62500000  0.39256326
   0.75000000  0.75000000  0.39256326
   0.75000000  0.62500000  0.50000000
   0.00000000  0.75000000  0.50000000
   0.99086072  0.62501031  0.60521122
   0.74298453  0.75000181  0.61210254
   0.75098943  0.62505411  0.72228554
   0.00080550  0.75005926  0.70996665
   0.75000000  0.87500000  0.28512652
   0.00000000  0.00000000  0.28512652
   0.00000000  0.87500000  0.39256326
   0.75000000  0.00000000  0.39256326
   0.75000000  0.87500000  0.50000000
   0.00000000  0.00000000  0.50000000
   0.99085577  0.87500528  0.60520236
   0.74303346  0.99999859  0.61213652
   0.75083321  0.87500595  0.72239457
   0.00076367  0.99999927  0.70996182
   0.75000000  0.12500000  0.28512652
   0.00000000  0.25000000  0.28512652
   0.00000000  0.12500000  0.39256326
   0.75000000  0.25000000  0.39256326
   0.75000000  0.12500000  0.50000000
   0.00000000  0.25000000  0.50000000
   0.99091433  0.12498826  0.60519938
   0.74311682  0.25000803  0.61210717
   0.75075622  0.12500546  0.72238431
   0.00072215  0.24993645  0.70995099
   0.75000000  0.37500000  0.28512652
   0.00000000  0.50000000  0.28512652
   0.00000000  0.37500000  0.39256326
   0.75000000  0.50000000  0.39256326
   0.75000000  0.37500000  0.50000000
   0.00000000  0.50000000  0.50000000
   0.99095317  0.37499614  0.60519499
   0.74308013  0.49999566  0.61209631
   0.75091079  0.37494474  0.72228847
   0.00076445  0.50000109  0.70996848
   0.25000000  0.62500000  0.28512652
   0.50000000  0.75000000  0.28512652
   0.50000000  0.62500000  0.39256326
   0.25000000  0.75000000  0.39256326
   0.25000000  0.62500000  0.50000000
   0.50000000  0.75000000  0.50000000
   0.49085005  0.62491344  0.60531170
   0.24294406  0.75002212  0.61210607
   0.25087475  0.62505754  0.72229660
   0.50080993  0.74992684  0.70993160
   0.25000000  0.87500000  0.28512652
   0.50000000  0.00000000  0.28512652
   0.50000000  0.87500000  0.39256326
   0.25000000  0.00000000  0.39256326
   0.25000000  0.87500000  0.50000000
   0.50000000  0.00000000  0.50000000
   0.49083747  0.87495304  0.60517529
   0.24307978  0.00000268  0.61213975
   0.25102924  0.87500478  0.72239488
   0.50077370  0.00000291  0.70992940
   0.25000000  0.12500000  0.28512652
   0.50000000  0.25000000  0.28512652
   0.50000000  0.12500000  0.39256326
   0.25000000  0.25000000  0.39256326
   0.25000000  0.12500000  0.50000000
   0.50000000  0.25000000  0.50000000
   0.49092617  0.12504471  0.60516317
   0.24307947  0.24996469  0.61209824
   0.25095307  0.12499483  0.72238131
   0.50072576  0.25007732  0.70991823
   0.25000000  0.37500000  0.28512652
   0.50000000  0.50000000  0.28512652
   0.50000000  0.37500000  0.39256326
   0.25000000  0.50000000  0.39256326
   0.25000000  0.37500000  0.50000000
   0.50000000  0.50000000  0.50000000
   0.49089945  0.37508907  0.60531177
   0.24302705  0.50000432  0.61209411
   0.25077863  0.37491947  0.72226886
   0.50075230  0.49999536  0.71023384
   0.75000000  0.75000000  0.24322214
   0.75000000  0.75000000  0.32703090
   0.09750943  0.62500000  0.28512652
   0.90249057  0.62500000  0.28512652
   0.00000000  0.75000000  0.35065888
   0.00000000  0.75000000  0.43446764
   0.84750943  0.62500000  0.39256326
   0.15249057  0.62500000  0.39256326
   0.75000000  0.75000000  0.45809562
   0.75000000  0.75000000  0.54190438
   0.09750943  0.62500000  0.50000000
   0.90249057  0.62500000  0.50000000
   0.99998217  0.75000494  0.56637062
   0.00001444  0.75000182  0.65050841
   0.85000618  0.62502207  0.60800395
   0.15113581  0.62503765  0.60842326
   0.75028385  0.75007875  0.67314356
   0.75049216  0.74991126  0.75750591
   0.09426898  0.62501981  0.72068188
   0.90690476  0.62500636  0.72078306
   0.75000000  0.00000000  0.24322214
   0.75000000  0.00000000  0.32703090
   0.09750943  0.87500000  0.28512652
   0.90249057  0.87500000  0.28512652
   0.00000000  0.00000000  0.35065888
   0.00000000  0.00000000  0.43446764
   0.84750943  0.87500000  0.39256326
   0.15249057  0.87500000  0.39256326
   0.75000000  0.00000000  0.45809562
   0.75000000  0.00000000  0.54190438
   0.09750943  0.87500000  0.50000000
   0.90249057  0.87500000  0.50000000
   0.00002923  0.99999799  0.56636570
   0.00006340  0.00002462  0.65050336
   0.85001636  0.87503282  0.60802562
   0.15113791  0.87502453  0.60844852
   0.75008162  0.00001354  0.67317627
   0.75066275  0.00000809  0.75752666
   0.09427824  0.87499076  0.72066387
   0.90688977  0.87499985  0.72076984
   0.75000000  0.25000000  0.24322214
   0.75000000  0.25000000  0.32703090
   0.09750943  0.12500000  0.28512652
   0.90249057  0.12500000  0.28512652
   0.00000000  0.25000000  0.35065888
   0.00000000  0.25000000  0.43446764
   0.84750943  0.12500000  0.39256326
   0.15249057  0.12500000  0.39256326
   0.75000000  0.25000000  0.45809562
   0.75000000  0.25000000  0.54190438
   0.09750943  0.12500000  0.50000000
   0.90249057  0.12500000  0.50000000
   0.00005446  0.24998781  0.56636567
   0.00010226  0.24998320  0.65050032
   0.85006554  0.12498078  0.60802565
   0.15122236  0.12497357  0.60844623
   0.75029944  0.24992358  0.67315559
   0.75049736  0.25008438  0.75750658
   0.09425468  0.12498880  0.72067858
   0.90687241  0.12499888  0.72073461
   0.75000000  0.50000000  0.24322214
   0.75000000  0.50000000  0.32703090
   0.09750943  0.37500000  0.28512652
   0.90249057  0.37500000  0.28512652
   0.00000000  0.50000000  0.35065888
   0.00000000  0.50000000  0.43446764
   0.84750943  0.37500000  0.39256326
   0.15249057  0.37500000  0.39256326
   0.75000000  0.50000000  0.45809562
   0.75000000  0.50000000  0.54190438
   0.09750943  0.37500000  0.50000000
   0.90249057  0.37500000  0.50000000
   0.00001944  0.50000659  0.56637333
   0.00006334  0.49998933  0.65051529
   0.85007730  0.37496467  0.60801169
   0.15119875  0.37495537  0.60842347
   0.75040965  0.49998364  0.67312111
   0.75036159  0.50000302  0.75745287
   0.09425017  0.37499661  0.72068015
   0.90689368  0.37499275  0.72075670
   0.25000000  0.75000000  0.24322214
   0.25000000  0.75000000  0.32703090
   0.59750943  0.62500000  0.28512652
   0.40249057  0.62500000  0.28512652
   0.50000000  0.75000000  0.35065888
   0.50000000  0.75000000  0.43446764
   0.34750943  0.62500000  0.39256326
   0.65249057  0.62500000  0.39256326
   0.25000000  0.75000000  0.45809562
   0.25000000  0.75000000  0.54190438
   0.59750943  0.62500000  0.50000000
   0.40249057  0.62500000  0.50000000
   0.49996570  0.74989793  0.56638205
   0.50002757  0.75015435  0.65046733
   0.34997325  0.62496883  0.60808113
   0.65116929  0.62499727  0.60848659
   0.25005017  0.75008157  0.67315146
   0.25069445  0.74991949  0.75751367
   0.59439040  0.62521596  0.72044137
   0.40678322  0.62523049  0.72056084
   0.25000000  0.00000000  0.24322214
   0.25000000  0.00000000  0.32703090
   0.59750943  0.87500000  0.28512652
   0.40249057  0.87500000  0.28512652
   0.50000000  0.00000000  0.35065888
   0.50000000  0.00000000  0.43446764
   0.34750943  0.87500000  0.39256326
   0.65249057  0.87500000  0.39256326
   0.25000000  0.00000000  0.45809562
   0.25000000  0.00000000  0.54190438
   0.59750943  0.87500000  0.50000000
   0.40249057  0.87500000  0.50000000
   0.50003680  0.99999458  0.56634523
   0.50005853  0.00001211  0.65048517
   0.34995812  0.87501487  0.60800619
   0.65118262  0.87500044  0.60842658
   0.25021844  0.00000943  0.67317330
   0.25052905  0.00000718  0.75752644
   0.59428793  0.87503157  0.72067735
   0.40689120  0.87506178  0.72077771
   0.25000000  0.25000000  0.24322214
   0.25000000  0.25000000  0.32703090
   0.59750943  0.12500000  0.28512652
   0.40249057  0.12500000  0.28512652
   0.50000000  0.25000000  0.35065888
   0.50000000  0.25000000  0.43446764
   0.34750943  0.12500000  0.39256326
   0.65249057  0.12500000  0.39256326
   0.25000000  0.25000000  0.45809562
   0.25000000  0.25000000  0.54190438
   0.59750943  0.12500000  0.50000000
   0.40249057  0.12500000  0.50000000
   0.50003406  0.25010869  0.56637710
   0.50012302  0.24985788  0.65045996
   0.35002868  0.12499887  0.60801329
   0.65124271  0.12500737  0.60843308
   0.25005900  0.24991546  0.67315153
   0.25068657  0.25008202  0.75749859
   0.59427240  0.12494307  0.72068033
   0.40687495  0.12494816  0.72074142
   0.25000000  0.50000000  0.24322214
   0.25000000  0.50000000  0.32703090
   0.59750943  0.37500000  0.28512652
   0.40249057  0.37500000  0.28512652
   0.50000000  0.50000000  0.35065888
   0.50000000  0.50000000  0.43446764
   0.34750943  0.37500000  0.39256326
   0.65249057  0.37500000  0.39256326
   0.25000000  0.50000000  0.45809562
   0.25000000  0.50000000  0.54190438
   0.59750943  0.37500000  0.50000000
   0.40249057  0.37500000  0.50000000
   0.50001460  0.49999665  0.56642503
   0.50003024  0.49997650  0.65065970
   0.35001831  0.37501806  0.60807905
   0.65125514  0.37499589  0.60849029
   0.24994258  0.49999247  0.67312010
   0.25082790  0.49997683  0.75744573
   0.59436202  0.37480729  0.72046801
   0.40675402  0.37476063  0.72050943
 
 position of ions in cartesian coordinates  (Angst):
   9.93876056  7.48839788  8.79216387
   0.00000000  8.98607746  8.79216387
   0.00000000  7.48839788 12.10508406
   9.93876056  8.98607746 12.10508406
   9.93876056  7.48839788 15.41800424
   0.00000000  8.98607746 15.41800424
  13.13056996  7.48852144 18.66229821
   9.84579382  8.98609914 18.87479897
   9.95187213  7.48904624 22.27240316
   0.01067417  8.98678751 21.89253770
   9.93876056 10.48375704  8.79216387
   0.00000000  0.00000000  8.79216387
   0.00000000 10.48375704 12.10508406
   9.93876056  0.00000000 12.10508406
   9.93876056 10.48375704 15.41800424
   0.00000000  0.00000000 15.41800424
  13.13050429 10.48382035 18.66202502
   9.84644225 11.98141977 18.87584680
   9.94980195 10.48382838 22.27576503
   0.01011993 11.98142785 21.89238870
   9.93876056  1.49767958  8.79216387
   0.00000000  2.99535915  8.79216387
   0.00000000  1.49767958 12.10508406
   9.93876056  2.99535915 12.10508406
   9.93876056  1.49767958 15.41800424
   0.00000000  2.99535915 15.41800424
  13.13128039  1.49753897 18.66193331
   9.84754684  2.99545540 18.87494178
   9.94878172  1.49774500 22.27544875
   0.00956970  2.99459774 21.89205466
   9.93876056  4.49303873  8.79216387
   0.00000000  5.99071831  8.79216387
   0.00000000  4.49303873 12.10508406
   9.93876056  5.99071831 12.10508406
   9.93876056  4.49303873 15.41800424
   0.00000000  5.99071831 15.41800424
  13.13179500  4.49299248 18.66179795
   9.84706062  5.99066635 18.87460700
   9.95083003  4.49237659 22.27249343
   0.01013025  5.99073131 21.89259410
   3.31292019  7.48839788  8.79216387
   6.62584038  8.98607746  8.79216387
   6.62584038  7.48839788 12.10508406
   3.31292019  8.98607746 12.10508406
   3.31292019  7.48839788 15.41800424
   6.62584038  8.98607746 15.41800424
   6.50458820  7.48736083 18.66539685
   3.21941714  8.98634251 18.87490802
   3.32451210  7.48908729 22.27274415
   6.63657332  8.98520094 21.89145696
   3.31292019 10.48375704  8.79216387
   6.62584038  0.00000000  8.79216387
   6.62584038 10.48375704 12.10508406
   3.31292019  0.00000000 12.10508406
   3.31292019 10.48375704 15.41800424
   6.62584038  0.00000000 15.41800424
   6.50442151 10.48319441 18.66119045
   3.22121560  0.00003217 18.87594657
   3.32655932 10.48381433 22.27577452
   6.63609319  0.00003490 21.89138904
   3.31292019  1.49767958  8.79216387
   6.62584038  2.99535915  8.79216387
   6.62584038  1.49767958 12.10508406
   3.31292019  2.99535915 12.10508406
   3.31292019  1.49767958 15.41800424
   6.62584038  2.99535915 15.41800424
   6.50559694  1.49821525 18.66081671
   3.22121153  2.99493614 18.87466665
   3.32554992  1.49761763 22.27535617
   6.63545791  2.99628561 21.89104446
   3.31292019  4.49303873  8.79216387
   6.62584038  5.99071831  8.79216387
   6.62584038  4.49303873 12.10508406
   3.31292019  5.99071831 12.10508406
   3.31292019  4.49303873 15.41800424
   6.62584038  5.99071831 15.41800424
   6.50524275  4.49410595 18.66539884
   3.22051690  5.99077010 18.87453922
   3.32323832  4.49207386 22.27188856
   6.63580959  5.99066273 21.90077681
   9.93876056  8.98607746  7.50000000
   9.93876056  8.98607746 10.08432774
   1.29216387  7.48839788  8.79216387
  11.95951688  7.48839788  8.79216387
   0.00000000  8.98607746 10.81292019
   0.00000000  8.98607746 13.39724792
  11.23092443  7.48839788 12.10508406
   2.02075632  7.48839788 12.10508406
   9.93876056  8.98607746 14.12584038
   9.93876056  8.98607746 16.71016811
   1.29216387  7.48839788 15.41800424
  11.95951688  7.48839788 15.41800424
  13.25144443  8.98613659 17.46460931
   0.00019142  8.98609925 20.05908273
  11.26401052  7.48866226 18.74841490
   2.00280352  7.48884903 18.76134490
   9.94252203  8.98702098 20.75706060
   9.94528251  8.98501429 23.35845879
   1.24922238  7.48863524 22.22295266
  12.01801235  7.48847410 22.22607247
   9.93876056  0.00000000  7.50000000
   9.93876056  0.00000000 10.08432774
   1.29216387 10.48375704  8.79216387
  11.95951688 10.48375704  8.79216387
   0.00000000  0.00000000 10.81292019
   0.00000000  0.00000000 13.39724792
  11.23092443 10.48375704 12.10508406
   2.02075632 10.48375704 12.10508406
   9.93876056  0.00000000 14.12584038
   9.93876056  0.00000000 16.71016811
   1.29216387 10.48375704 15.41800424
  11.95951688 10.48375704 15.41800424
   0.00038741 11.98141251 17.46445754
   0.00084020  0.00029495 20.05892701
  11.26414538 10.48415026 18.74908304
   2.00283138 10.48405094 18.76212371
   9.93984211  0.00016222 20.75806920
   9.94754308  0.00009690 23.35909856
   1.24934512 10.48364630 22.22239711
  12.01781368 10.48375519 22.22566493
   9.93876056  2.99535915  7.50000000
   9.93876056  2.99535915 10.08432774
   1.29216387  1.49767958  8.79216387
  11.95951688  1.49767958  8.79216387
   0.00000000  2.99535915 10.81292019
   0.00000000  2.99535915 13.39724792
  11.23092443  1.49767958 12.10508406
   2.02075632  1.49767958 12.10508406
   9.93876056  2.99535915 14.12584038
   9.93876056  2.99535915 16.71016811
   1.29216387  1.49767958 15.41800424
  11.95951688  1.49767958 15.41800424
   0.00072162  2.99521312 17.46445658
   0.00135512  2.99515786 20.05883324
  11.26479715  1.49744933 18.74908403
   2.00395039  1.49736288 18.76205315
   9.94272868  2.99444348 20.75743147
   9.94535145  2.99637010 23.35847918
   1.24903289  1.49754537 22.22285081
  12.01758372  1.49766617 22.22457859
   9.93876056  5.99071831  7.50000000
   9.93876056  5.99071831 10.08432774
   1.29216387  4.49303873  8.79216387
  11.95951688  4.49303873  8.79216387
   0.00000000  5.99071831 10.81292019
   0.00000000  5.99071831 13.39724792
  11.23092443  4.49303873 12.10508406
   2.02075632  4.49303873 12.10508406
   9.93876056  5.99071831 14.12584038
   9.93876056  5.99071831 16.71016811
   1.29216387  4.49303873 15.41800424
  11.95951688  4.49303873 15.41800424
   0.00025759  5.99079728 17.46469296
   0.00083934  5.99059040 20.05929494
  11.26495301  4.49261541 18.74865357
   2.00363759  4.49250403 18.76135123
   9.94418907  5.99052227 20.75636814
   9.94355230  5.99075454 23.35682305
   1.24897318  4.49299811 22.22289934
  12.01786550  4.49295186 22.22525969
   3.31292019  8.98607746  7.50000000
   3.31292019  8.98607746 10.08432774
   7.91800424  7.48839788  8.79216387
   5.33367651  7.48839788  8.79216387
   6.62584038  8.98607746 10.81292019
   6.62584038  8.98607746 13.39724792
   4.60508406  7.48839788 12.10508406
   8.64659670  7.48839788 12.10508406
   3.31292019  8.98607746 14.12584038
   3.31292019  8.98607746 16.71016811
   7.91800424  7.48839788 15.41800424
   5.33367651  7.48839788 15.41800424
   6.62538588  8.98485457 17.46496175
   6.62620570  8.98792674 20.05781605
   4.63773374  7.48802447 18.75079482
   8.62908757  7.48836520 18.76329776
   3.31358496  8.98705483 20.75730428
   3.32212288  8.98511289 23.35869799
   7.87667188  7.49098540 22.21553622
   5.39056138  7.49115945 22.21922009
   3.31292019  0.00000000  7.50000000
   3.31292019  0.00000000 10.08432774
   7.91800424 10.48375704  8.79216387
   5.33367651 10.48375704  8.79216387
   6.62584038  0.00000000 10.81292019
   6.62584038  0.00000000 13.39724792
   4.60508406 10.48375704 12.10508406
   8.64659670 10.48375704 12.10508406
   3.31292019  0.00000000 14.12584038
   3.31292019  0.00000000 16.71016811
   7.91800424 10.48375704 15.41800424
   5.33367651 10.48375704 15.41800424
   6.62632803 11.98137162 17.46382623
   6.62661597  0.00014515 20.05836616
   4.63753327 10.48393520 18.74848417
   8.62926415 10.48376227 18.76144734
   3.31581486  0.00011298 20.75797749
   3.31993101  0.00008598 23.35909185
   7.87531387 10.48413527 22.22281293
   5.39199228 10.48449720 22.22590770
   3.31292019  2.99535915  7.50000000
   3.31292019  2.99535915 10.08432774
   7.91800424  1.49767958  8.79216387
   5.33367651  1.49767958  8.79216387
   6.62584038  2.99535915 10.81292019
   6.62584038  2.99535915 13.39724792
   4.60508406  1.49767958 12.10508406
   8.64659670  1.49767958 12.10508406
   3.31292019  2.99535915 14.12584038
   3.31292019  2.99535915 16.71016811
   7.91800424  1.49767958 15.41800424
   5.33367651  1.49767958 15.41800424
   6.62629174  2.99666137 17.46480903
   6.62747066  2.99365637 20.05758899
   4.63846833  1.49766600 18.74870284
   8.63006044  1.49776782 18.76164747
   3.31370206  2.99434629 20.75730618
   3.32201834  2.99634189 23.35823305
   7.87510816  1.49699746 22.22290480
   5.39177691  1.49705845 22.22478864
   3.31292019  5.99071831  7.50000000
   3.31292019  5.99071831 10.08432774
   7.91800424  4.49303873  8.79216387
   5.33367651  4.49303873  8.79216387
   6.62584038  5.99071831 10.81292019
   6.62584038  5.99071831 13.39724792
   4.60508406  4.49303873 12.10508406
   8.64659670  4.49303873 12.10508406
   3.31292019  5.99071831 14.12584038
   3.31292019  5.99071831 16.71016811
   7.91800424  4.49303873 15.41800424
   5.33367651  4.49303873 15.41800424
   6.62603381  5.99067811 17.46628714
   6.62624113  5.99043671 20.06374797
   4.63833089  4.49325517 18.75073068
   8.63022526  4.49298945 18.76341163
   3.31215929  5.99062806 20.75633706
   3.32389129  5.99044068 23.35660286
   7.87629573  4.49072973 22.21635765
   5.39017445  4.49017078 22.21763478
 


--------------------------------------------------------------------------------------------------------

--------------------------------------- Iteration      FINAL  ---------------------------------------


--------------------OUTCAR has been truncated-------------------------


--------------------OUTCAR has been truncated-------------------------


--------------------OUTCAR has been truncated-------------------------


--------------------OUTCAR has been truncated-------------------------


--------------------OUTCAR has been truncated-------------------------


--------------------OUTCAR has been truncated-------------------------


--------------------OUTCAR has been truncated-------------------------


--------------------OUTCAR has been truncated-------------------------


--------------------OUTCAR has been truncated-------------------------


--------------------OUTCAR has been truncated-------------------------


  FORCE on cell =-STRESS in cart. coord.  units (eV):
  Direction    XX          YY          ZZ          XY          YZ          ZX
  --------------------------------------------------------------------------------------
  Alpha Z  4468.19931  4468.19931  4468.19931
  Ewald  938445.22278956680.98590************    -0.02037    -0.01160    16.30309
  Hartree979248.59104989328.84456************    -0.00900    -0.00308     8.71192
  E(xc)   -8575.80075 -8569.83690 -8572.46225    -0.00002    -0.00001     0.01227
  Local  ************************************     0.02918     0.01483   -24.99577
  n-local -5499.69060 -5422.78728 -5537.72550    -0.00031     0.00011     0.31210
  augment  5252.60924  5233.79846  5257.36156    -0.00005    -0.00025     0.03099
  Kinetic 28460.01599 27990.47896 28505.27902    -0.00028    -0.00056    -0.98574
  Fock        0.00000     0.00000     0.00000     0.00000     0.00000     0.00000
  -------------------------------------------------------------------------------------
  Total    -116.38402  -188.36153  -148.59766    -0.00084    -0.00058    -0.61115
  in kB     -38.08605   -61.64031   -48.62779    -0.00027    -0.00019    -0.20000
  external pressure =      -49.45 kB  Pullay stress =        0.00 kB


 VOLUME and BASIS-vectors are now :
 -----------------------------------------------------------------------------
  energy-cutoff  :      600.00
  volume of cell :     4895.96
      direct lattice vectors                 reciprocal lattice vectors
    13.251680751  0.000000000  0.000000000     0.075462126  0.000000000  0.000000000
     0.000000000 11.981436613  0.000000000     0.000000000  0.083462445  0.000000000
     0.000000000  0.000000000 30.836008487     0.000000000  0.000000000  0.032429619

  length of vectors
    13.251680751 11.981436613 30.836008487     0.075462126  0.083462445  0.032429619


 FORCES acting on ions:
    Electron-Ion                     Ewald-Force                    Non-Local-Force
 -----------------------------------------------------------------------------------------------
   0.112E-01 0.176E-02 0.364E+04   -.111E-01 -.166E-02 -.364E+04   -.659E-04 -.657E-05 0.316E+00
   -.356E-02 0.191E-02 0.381E+04   0.351E-02 -.186E-02 -.381E+04   0.295E-05 -.388E-05 -.368E+01
   -.919E-01 0.163E-02 0.185E+04   0.925E-01 -.138E-02 -.185E+04   -.226E-03 -.260E-04 -.457E-01
   0.123E+00 0.149E-01 0.184E+04   -.123E+00 -.146E-01 -.184E+04   -.569E-03 -.557E-05 0.204E+00
   0.176E+01 0.375E-01 -.202E+02   -.178E+01 -.357E-01 0.210E+02   -.211E-02 -.156E-03 -.122E+00
   -.272E+01 0.732E-02 -.965E+01   0.277E+01 -.596E-02 0.860E+01   -.174E-01 -.143E-03 0.362E+00
   -.316E+02 0.799E-01 -.181E+04   0.316E+02 -.777E-01 0.181E+04   0.836E-01 -.136E-02 0.158E+00
   -.105E+02 -.494E-01 -.188E+04   0.104E+02 0.536E-01 0.188E+04   0.132E+00 -.149E-02 -.202E+00
   -.593E+00 0.566E+00 -.363E+04   0.630E+00 -.582E+00 0.363E+04   -.172E-01 0.226E-02 -.162E+00
   -.103E+01 0.271E+00 -.365E+04   0.103E+01 -.272E+00 0.365E+04   -.461E-02 -.336E-04 0.995E+00
   0.970E-02 0.253E-02 0.364E+04   -.969E-02 -.243E-02 -.364E+04   -.513E-04 -.117E-04 0.316E+00
   -.346E-02 0.639E-03 0.381E+04   0.341E-02 -.647E-03 -.381E+04   0.352E-05 -.488E-05 -.368E+01
   -.917E-01 0.659E-02 0.185E+04   0.924E-01 -.635E-02 -.185E+04   -.226E-03 -.333E-04 -.457E-01
   0.112E+00 0.285E-02 0.184E+04   -.112E+00 -.283E-02 -.184E+04   -.538E-03 0.112E-05 0.204E+00
   0.163E+01 0.360E-01 -.202E+02   -.164E+01 -.313E-01 0.210E+02   -.181E-02 -.253E-03 -.123E+00
   -.267E+01 0.221E-01 -.962E+01   0.272E+01 -.223E-01 0.857E+01   -.180E-01 0.744E-04 0.362E+00
   -.316E+02 -.160E-01 -.181E+04   0.316E+02 0.173E-01 0.181E+04   0.834E-01 -.766E-03 0.157E+00
   -.107E+02 0.705E-01 -.188E+04   0.106E+02 -.713E-01 0.188E+04   0.134E+00 0.611E-03 -.200E+00
   -.586E+00 0.873E-01 -.364E+04   0.596E+00 -.891E-01 0.364E+04   -.567E-02 0.142E-03 -.161E+00
   -.109E+01 0.121E+00 -.365E+04   0.109E+01 -.120E+00 0.365E+04   -.421E-02 -.551E-03 0.997E+00
   0.970E-02 -.173E-02 0.364E+04   -.968E-02 0.164E-02 -.364E+04   -.552E-04 0.307E-05 0.316E+00
   -.340E-02 -.190E-02 0.381E+04   0.334E-02 0.186E-02 -.381E+04   -.202E-05 0.456E-05 -.368E+01
   -.899E-01 -.960E-03 0.185E+04   0.906E-01 0.788E-03 -.185E+04   -.232E-03 0.154E-04 -.457E-01
   0.122E+00 -.150E-01 0.184E+04   -.122E+00 0.147E-01 -.184E+04   -.551E-03 0.763E-05 0.204E+00
   0.162E+01 -.214E-01 -.202E+02   -.163E+01 0.168E-01 0.210E+02   -.176E-02 0.265E-03 -.123E+00
   -.263E+01 -.694E-02 -.958E+01   0.268E+01 0.507E-02 0.853E+01   -.181E-01 0.337E-03 0.362E+00
   -.317E+02 0.303E-01 -.181E+04   0.317E+02 -.317E-01 0.181E+04   0.855E-01 0.773E-03 0.155E+00
   -.104E+02 0.110E+00 -.188E+04   0.104E+02 -.115E+00 0.188E+04   0.131E+00 0.188E-02 -.202E+00
   -.588E+00 -.223E-01 -.364E+04   0.598E+00 0.222E-01 0.364E+04   -.311E-02 0.109E-02 -.159E+00
   -.117E+01 -.312E+00 -.365E+04   0.117E+01 0.313E+00 0.365E+04   -.389E-02 0.333E-04 0.994E+00
   0.112E-01 -.253E-02 0.364E+04   -.111E-01 0.245E-02 -.364E+04   -.699E-04 0.198E-04 0.316E+00
   -.349E-02 -.667E-03 0.381E+04   0.344E-02 0.648E-03 -.381E+04   -.426E-06 -.614E-06 -.368E+01
   -.901E-01 -.726E-02 0.185E+04   0.908E-01 0.694E-02 -.185E+04   -.227E-03 0.430E-04 -.457E-01
   0.133E+00 -.281E-02 0.184E+04   -.133E+00 0.279E-02 -.184E+04   -.601E-03 -.437E-05 0.204E+00
   0.175E+01 -.522E-01 -.202E+02   -.177E+01 0.502E-01 0.210E+02   -.191E-02 0.145E-03 -.122E+00
   -.268E+01 -.238E-01 -.964E+01   0.272E+01 0.245E-01 0.860E+01   -.177E-01 -.244E-03 0.363E+00
   -.316E+02 -.878E-01 -.181E+04   0.316E+02 0.855E-01 0.181E+04   0.850E-01 0.140E-02 0.157E+00
[...]
      9.94878      1.49774     22.27545         0.007271      0.000832      0.003581
      0.00957      2.99460     21.89205        -0.002738     -0.000664     -0.242230
      9.93876      4.49304      8.79216        -0.000026     -0.000059     -3.250884
      0.00000      5.99072      8.79216        -0.000069     -0.000020      3.046236
      0.00000      4.49304     12.10508         0.000437     -0.000285      0.488691
      9.93876      5.99072     12.10508        -0.000575     -0.000020     -0.668740
      9.93876      4.49304     15.41800        -0.018676     -0.001867      0.676421
      0.00000      5.99072     15.41800         0.026676      0.000445     -0.694093
     13.13179      4.49299     18.66180        -0.042212     -0.000849     -0.017734
      9.84706      5.99067     18.87461        -0.018923      0.000867      0.058567
      9.95083      4.49238     22.27249         0.023715      0.013777      0.022379
      0.01013      5.99073     21.89259        -0.002586     -0.000361     -0.245696
      3.31292      7.48840      8.79216        -0.000079      0.000074     -3.250918
      6.62584      8.98608      8.79216        -0.000069      0.000075      3.046229
      6.62584      7.48840     12.10508         0.000396      0.001120      0.488185
      3.31292      8.98608     12.10508        -0.000755      0.000288     -0.668157
      3.31292      7.48840     15.41800        -0.018027      0.002012      0.676852
      6.62584      8.98608     15.41800         0.026224     -0.000163     -0.687633
      6.50459      7.48736     18.66540        -0.043665      0.008117     -0.036393
      3.21942      8.98634     18.87491        -0.023195      0.002326      0.056711
      3.32451      7.48909     22.27274        -0.025241     -0.015119      0.021624
      6.63657      8.98520     21.89146        -0.002717      0.043980     -0.265500
      3.31292     10.48376      8.79216        -0.000069      0.000044     -3.250883
      6.62584      0.00000      8.79216        -0.000106      0.000009      3.046340
      6.62584     10.48376     12.10508         0.000419      0.000703      0.489160
      3.31292      0.00000     12.10508        -0.000684     -0.000020     -0.667845
      3.31292     10.48376     15.41800        -0.018471      0.004105      0.680785
      6.62584      0.00000     15.41800         0.026998     -0.000331     -0.694550
      6.50442     10.48319     18.66119        -0.043779      0.003353     -0.027414
      3.22122      0.00003     18.87595        -0.024835     -0.001859      0.057706
      3.32656     10.48381     22.27577        -0.008143     -0.002658      0.001980
      6.63609      0.00003     21.89139        -0.002594     -0.000311     -0.242802
      3.31292      1.49768      8.79216        -0.000069     -0.000081     -3.250846
      6.62584      2.99536      8.79216        -0.000058     -0.000068      3.046228
      6.62584      1.49768     12.10508         0.000456     -0.000617      0.489179
      3.31292      2.99536     12.10508        -0.000758     -0.000293     -0.668341
      3.31292      1.49768     15.41800        -0.018787     -0.005329      0.679893
      6.62584      2.99536     15.41800         0.026932      0.000516     -0.688453
      6.50560      1.49822     18.66082        -0.042389     -0.004080     -0.026656
      3.22121      2.99494     18.87467        -0.028460     -0.000779      0.056004
      3.32555      1.49762     22.27536        -0.007155      0.001849      0.004303
      6.63546      2.99629     21.89104        -0.002359     -0.044210     -0.263504
      3.31292      4.49304      8.79216        -0.000113     -0.000066     -3.250911
      6.62584      5.99072      8.79216        -0.000049     -0.000015      3.046148
      6.62584      4.49304     12.10508         0.000427     -0.001207      0.488235
      3.31292      5.99072     12.10508        -0.000809      0.000014     -0.668632
      3.31292      4.49304     15.41800        -0.018188     -0.000791      0.676083
      6.62584      5.99072     15.41800         0.026346     -0.000022     -0.688636
      6.50524      4.49411     18.66540        -0.042529     -0.007466     -0.036870
      3.22052      5.99077     18.87454        -0.027719      0.000179      0.058038
      3.32324      4.49207     22.27189        -0.022707      0.015974      0.025625
      6.63581      5.99066     21.90078        -0.003007      0.000420     -0.399017
      9.93876      8.98608      7.50000        -0.000024     -0.000028      2.415527
      9.93876      8.98608     10.08433         0.000176     -0.000054      1.510277
      1.29216      7.48840      8.79216        -1.763056      0.000007     -0.714715
     11.95952      7.48840      8.79216         1.763052      0.000003     -0.714763
      0.00000      8.98608     10.81292        -0.000050     -0.000088     -1.129021
      0.00000      8.98608     13.39725        -0.001071     -0.000163     -0.200505
     11.23092      7.48840     12.10508         0.313224     -0.000111      0.049204
      2.02076      7.48840     12.10508        -0.312525     -0.000116      0.049016
      9.93876      8.98608     14.12584         0.005911     -0.001347     -0.026416
      9.93876      8.98608     16.71017        -0.009161     -0.001494     -0.194790
      1.29216      7.48840     15.41800        -0.558510     -0.000303      0.096851
     11.95952      7.48840     15.41800         0.558278     -0.000755      0.102390
     13.25144      8.98614     17.46461        -0.026619     -0.000346      0.128130
      0.00019      8.98610     20.05908        -0.015578     -0.000134     -0.012005
     11.26401      7.48866     18.74841        -0.010442     -0.000616      0.008746
      2.00280      7.48885     18.76134         0.138900     -0.002134      0.018460
      9.94252      8.98702     20.75706        -0.016018     -0.003220     -0.022740
      9.94528      8.98501     23.35846         0.002082      0.006038     -0.522255
      1.24922      7.48864     22.22295        -0.105797     -0.001820     -0.122358
     12.01801      7.48847     22.22607         0.100748     -0.001175     -0.123503
      9.93876      0.00000      7.50000        -0.000036     -0.000007      2.415516
      9.93876      0.00000     10.08433         0.000181      0.000006      1.510126
      1.29216     10.48376      8.79216        -1.763073     -0.000011     -0.714733
     11.95952     10.48376      8.79216         1.763074     -0.000011     -0.714766
      0.00000      0.00000     10.81292        -0.000057     -0.000006     -1.129082
      0.00000      0.00000     13.39725        -0.001002     -0.000008     -0.200926
     11.23092     10.48376     12.10508         0.313223     -0.000120      0.049165
      2.02076     10.48376     12.10508        -0.312523     -0.000103      0.048976
      9.93876      0.00000     14.12584         0.005879     -0.000050     -0.027265
      9.93876      0.00000     16.71017        -0.008210      0.000101     -0.199720
      1.29216     10.48376     15.41800        -0.559114     -0.000887      0.096386
     11.95952     10.48376     15.41800         0.558891     -0.000267      0.102093
      0.00039     11.98141     17.46446        -0.027969     -0.000029      0.127854
      0.00084      0.00029     20.05893        -0.017011     -0.002485     -0.011345
     11.26415     10.48415     18.74908        -0.013830      0.000080      0.008849
      2.00283     10.48405     18.76212         0.140916     -0.000275      0.018520
      9.93984      0.00016     20.75807        -0.011196     -0.001479     -0.026450
      9.94754      0.00010     23.35910        -0.002677     -0.000674     -0.513278
      1.24935     10.48365     22.22240        -0.106184     -0.000057     -0.120744
     12.01781     10.48376     22.22566         0.101578     -0.000314     -0.122340
      9.93876      2.99536      7.50000        -0.000020      0.000038      2.415536
      9.93876      2.99536     10.08433         0.000174      0.000047      1.510257
      1.29216      1.49768      8.79216        -1.763079      0.000012     -0.714724
     11.95952      1.49768      8.79216         1.763054      0.000010     -0.714763
      0.00000      2.99536     10.81292        -0.000048      0.000080     -1.129023
      0.00000      2.99536     13.39725        -0.000983      0.000171     -0.200710
     11.23092      1.49768     12.10508         0.313220      0.000104      0.049166
      2.02076      1.49768     12.10508        -0.312502      0.000124      0.048962
      9.93876      2.99536     14.12584         0.005876      0.001337     -0.026496
      9.93876      2.99536     16.71017        -0.007808      0.001524     -0.194813
      1.29216      1.49768     15.41800        -0.558714      0.000414      0.095951
     11.95952      1.49768     15.41800         0.558997      0.000642      0.102430
      0.00072      2.99521     17.46446        -0.028327      0.000765      0.127921
      0.00136      2.99516     20.05883        -0.018097      0.000909     -0.012649
     11.26480      1.49745     18.74908        -0.015092     -0.000072      0.008758
      2.00395      1.49736     18.76205         0.134649      0.002444      0.017208
      9.94273      2.99444     20.75743        -0.017495      0.003287     -0.025999
      9.94535      2.99637     23.35848         0.001310     -0.005618     -0.522063
      1.24903      1.49755     22.22285        -0.105163      0.001523     -0.121492
     12.01758      1.49767     22.22458         0.101366      0.000981     -0.119824
      9.93876      5.99072      7.50000        -0.000021     -0.000016      2.415542
      9.93876      5.99072     10.08433         0.000177     -0.000001      1.510393
      1.29216      4.49304      8.79216        -1.763050      0.000008     -0.714719
     11.95952      4.49304      8.79216         1.763057      0.000007     -0.714756
      0.00000      5.99072     10.81292        -0.000059      0.000004     -1.128953
      0.00000      5.99072     13.39725        -0.001013     -0.000002     -0.199988
     11.23092      4.49304     12.10508         0.313229      0.000121      0.049214
      2.02076      4.49304     12.10508        -0.312511      0.000097      0.049014
      9.93876      5.99072     14.12584         0.005963      0.000052     -0.025805
      9.93876      5.99072     16.71017        -0.008887     -0.000124     -0.194111
      1.29216      4.49304     15.41800        -0.558149      0.000750      0.096594
     11.95952      4.49304     15.41800         0.558435      0.000355      0.102927
      0.00026      5.99080     17.46469        -0.027332     -0.000205      0.127633
      0.00084      5.99059     20.05929        -0.017215      0.001530     -0.014246
     11.26495      4.49262     18.74865        -0.014274      0.000504      0.007715
      2.00364      4.49250     18.76135         0.134975      0.000685      0.017280
      9.94419      5.99052     20.75637        -0.018375      0.001337     -0.027311
      9.94355      5.99075     23.35682        -0.000861      0.000006     -0.533410
      1.24897      4.49300     22.22290        -0.104642      0.000256     -0.122167
     12.01787      4.49295     22.22526         0.100377      0.000576     -0.121365
      3.31292      8.98608      7.50000         0.000001     -0.000015      2.415479
      3.31292      8.98608     10.08433         0.000192     -0.000063      1.510222
      7.91800      7.48840      8.79216        -1.763067     -0.000043     -0.714682
      5.33368      7.48840      8.79216         1.763092     -0.000042     -0.714735
      6.62584      8.98608     10.81292        -0.000023     -0.000292     -1.128925
      6.62584      8.98608     13.39725        -0.001064     -0.000622     -0.200497
      4.60508      7.48840     12.10508         0.313464     -0.000171      0.049221
      8.64660      7.48840     12.10508        -0.312659     -0.000150      0.049051
      3.31292      8.98608     14.12584         0.005948     -0.001294     -0.026685
      3.31292      8.98608     16.71017        -0.008606     -0.001457     -0.194948
      7.91800      7.48840     15.41800        -0.558803     -0.002353      0.097088
      5.33368      7.48840     15.41800         0.558780     -0.003057      0.102224
      6.62539      8.98485     17.46496        -0.027745     -0.002574      0.133769
      6.62621      8.98793     20.05782        -0.015455     -0.005539      0.004703
      4.63773      7.48802     18.75079        -0.005816      0.000699      0.007259
      8.62909      7.48837     18.76330         0.135826     -0.001911      0.018116
      3.31358      8.98705     20.75730        -0.008241     -0.003188     -0.022739
      3.32212      8.98511     23.35870        -0.001551      0.006356     -0.522573
      7.87667      7.49099     22.21554        -0.133379     -0.028453     -0.084585
      5.39056      7.49116     22.21922         0.128795     -0.028659     -0.086227
      3.31292      0.00000      7.50000        -0.000008      0.000011      2.415465
      3.31292      0.00000     10.08433         0.000175      0.000014      1.510107
      7.91800     10.48376      8.79216        -1.763080     -0.000037     -0.714718
      5.33368     10.48376      8.79216         1.763094     -0.000029     -0.714785
      6.62584      0.00000     10.81292        -0.000027     -0.000006     -1.129198
      6.62584      0.00000     13.39725        -0.000971     -0.000001     -0.202318
      4.60508     10.48376     12.10508         0.313259     -0.000118      0.049146
      8.64660     10.48376     12.10508        -0.312453     -0.000138      0.048959
      3.31292      0.00000     14.12584         0.005993      0.000225     -0.027292
      3.31292      0.00000     16.71017        -0.008445      0.000266     -0.200220
      7.91800     10.48376     15.41800        -0.558915     -0.002180      0.096694
      5.33368     10.48376     15.41800         0.558964     -0.001205      0.102367
      6.62633     11.98137     17.46383        -0.028544      0.000488      0.132841
      6.62662      0.00015     20.05837        -0.016955     -0.001692     -0.014333
      4.63753     10.48394     18.74848        -0.005800     -0.001018      0.009961
      8.62926     10.48376     18.76145         0.135911     -0.000237      0.020041
      3.31581      0.00011     20.75798        -0.012499     -0.000928     -0.024455
      3.31993      0.00009     23.35909         0.002874     -0.000336     -0.513527
      7.87531     10.48414     22.22281        -0.112387     -0.006402     -0.124095
      5.39199     10.48450     22.22591         0.106534     -0.007617     -0.125162
      3.31292      2.99536      7.50000        -0.000010      0.000040      2.415489
      3.31292      2.99536     10.08433         0.000186      0.000057      1.510262
      7.91800      1.49768      8.79216        -1.763058      0.000033     -0.714712
      5.33368      1.49768      8.79216         1.763111      0.000038     -0.714766
      6.62584      2.99536     10.81292        -0.000023      0.000283     -1.128950
      6.62584      2.99536     13.39725        -0.000994      0.000614     -0.200752
      4.60508      1.49768     12.10508         0.313242      0.000147      0.049152
      8.64660      1.49768     12.10508        -0.312441      0.000134      0.048949
      3.31292      2.99536     14.12584         0.005877      0.001293     -0.026370
      3.31292      2.99536     16.71017        -0.007112      0.001307     -0.194362
      7.91800      1.49768     15.41800        -0.558795      0.001643      0.096376
      5.33368      1.49768     15.41800         0.558826      0.001626      0.102894
      6.62629      2.99666     17.46481        -0.029371      0.002168      0.134249
      6.62747      2.99366     20.05759        -0.018259      0.004977      0.004360
      4.63847      1.49767     18.74870        -0.009884      0.000997      0.009011
      8.63006      1.49777     18.76165         0.132439      0.001767      0.018268
      3.31370      2.99435     20.75731        -0.009567      0.003095     -0.025498
      3.32202      2.99634     23.35823        -0.001630     -0.006909     -0.522011
      7.87511      1.49700     22.22290        -0.111867      0.008634     -0.123419
      5.39178      1.49706     22.22479         0.106845      0.008080     -0.122483
      3.31292      5.99072      7.50000        -0.000002     -0.000006      2.415504
      3.31292      5.99072     10.08433         0.000197     -0.000011      1.510342
      7.91800      4.49304      8.79216        -1.763084      0.000037     -0.714685
      5.33368      4.49304      8.79216         1.763102      0.000047     -0.714719
      6.62584      5.99072     10.81292        -0.000027      0.000011     -1.128619
      6.62584      5.99072     13.39725        -0.000959      0.000009     -0.196833
      4.60508      4.49304     12.10508         0.313446      0.000146      0.049228
      8.64660      4.49304     12.10508        -0.312650      0.000165      0.049041
      3.31292      5.99072     14.12584         0.005784     -0.000231     -0.025970
      3.31292      5.99072     16.71017        -0.007585     -0.000198     -0.195008
      7.91800      4.49304     15.41800        -0.558612      0.002869      0.096525
      5.33368      4.49304     15.41800         0.558564      0.002612      0.102513
      6.62603      5.99068     17.46629        -0.027829      0.000219      0.137317
      6.62624      5.99044     20.06375        -0.016052      0.002184      0.019347
      4.63833      4.49326     18.75073        -0.006578     -0.000945      0.007491
      8.63023      4.49299     18.76341         0.129580      0.000380      0.016418
      3.31216      5.99063     20.75634        -0.007465      0.001165     -0.027073
      3.32389      5.99044     23.35660         0.001231      0.001174     -0.533885
      7.87630      4.49073     22.21636        -0.132203      0.026414     -0.085391
      5.39017      4.49017     22.21763         0.129768      0.027944     -0.082903
 -----------------------------------------------------------------------------------
    total drift:                                0.005231      0.000040     -0.040359


--------------------------------------------------------------------------------------------------------



  FREE ENERGIE OF THE ION-ELECTRON SYSTEM (eV)
  ---------------------------------------------------
  free  energy   TOTEN  =     -1737.14553210 eV

  energy  without entropy=    -1737.14553210  energy(sigma->0) =    -1737.14553210
 


--------------------------------------------------------------------------------------------------------


    POTLOK:  cpu time      0.7381: real time      0.7409


--------------------------------------------------------------------------------------------------------


     LOOP+:  cpu time   1784.0666: real time   1792.7070
    4ORBIT:  cpu time      0.0000: real time      0.0000

 total amount of memory used by VASP MPI-rank0   650674. kBytes
=======================================================================

   base      :      30000. kBytes
   nonl-proj :     408225. kBytes
   fftplans  :      41525. kBytes
   grid      :      57314. kBytes
   one-center:       1866. kBytes
   wavefun   :     111744. kBytes
 
  
  
 General timing and accounting informations for this job:
 ========================================================
  
                  Total CPU time used (sec):     1829.676
                            User time (sec):     1823.554
                          System time (sec):        6.121
                         Elapsed time (sec):     1839.342
  
                   Maximum memory used (kb):     1294992.
                   Average memory used (kb):          N/A
  
                          Minor page faults:       168650
                          Major page faults:          129
                 Voluntary context switches:         3108
