 vasp.6.3.0 20Jan22 (build Apr  1 2022 16:44:48) complex                         
 executed on        HPECrayEX_GCC date 2023.03.11  23:09:32
 running  768 mpi-ranks, with    1 threads/rank
 distrk:  each k-point on  768 cores,    1 groups
 distr:  one band on NCORE=   8 cores,   96 groups


--------------------------------------------------------------------------------------------------------


 INCAR:
   SYSTEM = MgO-rocksalt
   ISMEAR = 0
   SIGMA = 0.05
   EDIFF = 1E-6
   ALGO = ALL
   ISTART = 0
   IBRION = -1
   NSW = 0
   ISYM = 0
   DIPOL = 0.5 0.5 0.5
   IDIPOL = 3
   LDIPOL = .TRUE.
   LHFCALC = .TRUE.
   GGA = PE
   IVDW = 13
   VDW_S8 = 1.2007
   VDW_A1 = 0.4009
   VDW_A2 = 5.0293
   ENCUT = 600
   PREC = Accurate
   LASPH = .TRUE.
   LREAL = .FALSE.
   ISPIN = 1
   NELM = 200
   NELMIN = 8
   NCORE = 8
   KPAR = 1
   LWAVE = .FALSE.
   LCHARG = .FALSE.

 POTCAR:    PAW_PBE Mg_pv 13Apr2007               
 POTCAR:    PAW_PBE O 08Apr2002                   
 POTCAR:    PAW_PBE Mg_pv 13Apr2007               
   SHA256 =  f474ac0dd33840b9ae76c01d57fea79fdf77cdfbb07d5ade72c65f83c709b62b Mg_pv/POTCAR          
   COPYR  = (c) Copyright 13Apr2007 Georg Kresse                                                    
   COPYR  = This file is part of the software VASP. Any use, copying, and all other rights are regul
   COPYR  = If you do not have a valid VASP license, you may not use, copy or distribute this file. 
   VRHFIN =Mg: p6s2                                                                                 
   LEXCH  = PE                                                                                      
   EATOM  =  1056.7344 eV,   77.6678 Ry                                                             
                                                                                                    
   TITEL  = PAW_PBE Mg_pv 13Apr2007                                                                 
   LULTRA =        F    use ultrasoft PP ?                                                          
   IUNSCR =        1    unscreen: 0-lin 1-nonlin 2-no                                               
   RPACOR =    1.500    partial core radius                                                         
   POMASS =   24.305; ZVAL   =    8.000    mass and valenz                                          
   RCORE  =    2.000    outmost cutoff radius                                                       
   RWIGS  =    2.000; RWIGS  =    1.058    wigner-seitz radius (au A)                               
   ENMAX  =  403.929; ENMIN  =  302.947 eV                                                          
   RCLOC  =    1.506    cutoff for local pot                                                        
   LCOR   =        T    correct aug charges                                                         
   LPAW   =        T    paw PP                                                                      
   EAUG   =  758.780                                                                                
   DEXC   =    0.000                                                                                
   RMAX   =    2.045    core radius for proj-oper                                                   
   RAUG   =    1.300    factor for augmentation sphere                                              
   RDEP   =    2.025    radius for radial grids                                                     
   RDEPT  =    1.557    core radius for aug-charge                                                  
                                                                                                    
   Atomic configuration                                                                             
    5 entries                                                                                       
     n  l   j            E        occ.                                                              
     1  0  0.50     -1259.6230   2.0000                                                             
     2  0  0.50       -79.8442   2.0000                                                             
     2  1  1.50       -46.6121   6.0000                                                             
     3  0  0.50        -4.7055   2.0000                                                             
     3  2  1.50        -1.3606   0.0000                                                             
   Description                                                                                      
     l       E           TYP  RCUT    TYP  RCUT                                                     
     1    -46.6121073     23  1.600                                                                 
     1      2.7211652     23  1.600                                                                 
     0     -4.7054661     23  2.000                                                                 
     0     61.2262170     23  2.000                                                                 
     2     -1.3605826     23  2.000                                                                 
  local pseudopotential read in
  partial core-charges read in
  partial kinetic energy density read in
  atomic valenz-charges read in
  non local Contribution for L=           1  read in
    real space projection operators read in
  non local Contribution for L=           1  read in
    real space projection operators read in
  non local Contribution for L=           0  read in
    real space projection operators read in
  non local Contribution for L=           0  read in
    real space projection operators read in
  non local Contribution for L=           2  read in
    real space projection operators read in
    PAW grid and wavefunctions read in

   number of l-projection  operators is LMAX  =           5
   number of lm-projection operators is LMMAX =          13

 POTCAR:    PAW_PBE O 08Apr2002                   
   SHA256 =  818f92134a0a090dccd8ba1447fa70422a3b330e708bb4f08108d8ae51209ddf O/POTCAR              
   COPYR  = (c) Copyright 08Apr2002 Georg Kresse                                                    
   COPYR  = This file is part of the software VASP. Any use, copying, and all other rights are regul
   COPYR  = If you do not have a valid VASP license, you may not use, copy or distribute this file. 
   VRHFIN =O: s2p4                                                                                  
   LEXCH  = PE                                                                                      
   EATOM  =   432.3788 eV,   31.7789 Ry                                                             
                                                                                                    
   TITEL  = PAW_PBE O 08Apr2002                                                                     
   LULTRA =        F    use ultrasoft PP ?                                                          
   IUNSCR =        1    unscreen: 0-lin 1-nonlin 2-no                                               
   RPACOR =    1.200    partial core radius                                                         
   POMASS =   16.000; ZVAL   =    6.000    mass and valenz                                          
   RCORE  =    1.520    outmost cutoff radius                                                       
   RWIGS  =    1.550; RWIGS  =    0.820    wigner-seitz radius (au A)                               
   ENMAX  =  400.000; ENMIN  =  300.000 eV                                                          
   ICORE  =        2    local potential                                                             
   LCOR   =        T    correct aug charges                                                         
   LPAW   =        T    paw PP                                                                      
   EAUG   =  605.392                                                                                
   DEXC   =    0.000                                                                                
   RMAX   =    1.553    core radius for proj-oper                                                   
   RAUG   =    1.300    factor for augmentation sphere                                              
   RDEP   =    1.550    radius for radial grids                                                     
   RDEPT  =    1.329    core radius for aug-charge                                                  
                                                                                                    
   Atomic configuration                                                                             
    4 entries                                                                                       
     n  l   j            E        occ.                                                              
     1  0  0.50      -514.6923   2.0000                                                             
     2  0  0.50       -23.9615   2.0000                                                             
     2  1  0.50        -9.0305   4.0000                                                             
     3  2  1.50        -9.5241   0.0000                                                             
   Description                                                                                      
     l       E           TYP  RCUT    TYP  RCUT                                                     
     0    -23.9615318     23  1.200                                                                 
     0     -9.5240782     23  1.200                                                                 
     1     -9.0304911     23  1.520                                                                 
     1      8.1634956     23  1.520                                                                 
     2     -9.5240782      7  1.500                                                                 
  local pseudopotential read in
  partial core-charges read in
  partial kinetic energy density read in
  kinetic energy density of atom read in
  atomic valenz-charges read in
  non local Contribution for L=           0  read in
    real space projection operators read in
  non local Contribution for L=           0  read in
    real space projection operators read in
  non local Contribution for L=           1  read in
    real space projection operators read in
  non local Contribution for L=           1  read in
    real space projection operators read in
    PAW grid and wavefunctions read in

   number of l-projection  operators is LMAX  =           4
   number of lm-projection operators is LMMAX =           8

 -----------------------------------------------------------------------------
|                                                                             |
|               ----> ADVICE to this user running VASP <----                  |
|                                                                             |
|     You have a (more or less) 'large supercell' and for larger cells it     |
|     might be more efficient to use real-space projection operators.         |
|     Therefore, try LREAL= Auto in the INCAR file.                           |
|     Mind: For very accurate calculation, you might also keep the            |
|     reciprocal projection scheme (i.e. LREAL=.FALSE.).                      |
|                                                                             |
 -----------------------------------------------------------------------------

  PAW_PBE Mg_pv 13Apr2007               :
 energy of atom  1       EATOM=-1056.7344
 kinetic energy error for atom=    0.0221 (will be added to EATOM!!)
  PAW_PBE O 08Apr2002                   :
 energy of atom  2       EATOM= -432.3788
 kinetic energy error for atom=    0.0168 (will be added to EATOM!!)


 POSCAR: Mg  O
  positions in direct lattice
  No initial velocities read in
 -----------------------------------------------------------------------------
|                                                                             |
|           W    W    AA    RRRRR   N    N  II  N    N   GGGG   !!!           |
|           W    W   A  A   R    R  NN   N  II  NN   N  G    G  !!!           |
|           W    W  A    A  R    R  N N  N  II  N N  N  G       !!!           |
|           W WW W  AAAAAA  RRRRR   N  N N  II  N  N N  G  GGG   !            |
|           WW  WW  A    A  R   R   N   NN  II  N   NN  G    G                |
|           W    W  A    A  R    R  N    N  II  N    N   GGGG   !!!           |
|                                                                             |
|     Specifying the vdW parameters                                           |
|     VDW_S8 = 1.201                                                          |
|     VDW_A1 = 0.401                                                          |
|     VDW_A2 = 5.029                                                          |
|     in the INCAR file will overwrite the defaults for pbe0. Please make     |
|     sure that is what you intended.                                         |
|                                                                             |
 -----------------------------------------------------------------------------

 exchange correlation table for  LEXCH =        8
   RHO(1)=    0.500       N(1)  =     2000
   RHO(2)=  100.500       N(2)  =     4000



--------------------------------------------------------------------------------------------------------


 ion  position               nearest neighbor table
   1  0.250  0.000  0.353-  35 2.09  36 2.09  43 2.09  52 2.09  33 2.09
   2  0.500  0.250  0.353-  35 2.09  36 2.09  44 2.09  51 2.09  34 2.09
   3  0.250  0.250  0.451-  33 2.09  34 2.09  41 2.09  50 2.09  35 2.09  39 2.09
   4  0.500  0.000  0.451-  33 2.09  34 2.09  42 2.09  49 2.09  36 2.09  40 2.09
   5  0.250  1.000  0.550-  56 2.09  40 2.09  47 2.09  39 2.09  33 2.10  37 2.13
   6  0.500  0.250  0.550-  40 2.09  55 2.09  39 2.09  48 2.09  34 2.10  38 2.12
   7  0.250  0.250  0.647-  39 2.08  54 2.09  37 2.09  45 2.09  38 2.09
   8  0.500  0.000  0.647-  40 2.08  38 2.09  53 2.09  37 2.09  46 2.09
   9  0.250  0.500  0.353-  35 2.09  43 2.09  44 2.09  60 2.09  41 2.09
  10  0.500  0.750  0.353-  36 2.09  43 2.09  44 2.09  59 2.09  42 2.09
  11  0.250  0.750  0.451-  33 2.09  41 2.09  42 2.09  58 2.09  43 2.09  47 2.09
  12  0.500  0.500  0.451-  34 2.09  41 2.09  42 2.09  57 2.09  44 2.09  48 2.09
  13  0.250  0.500  0.550-  64 2.09  47 2.09  39 2.09  48 2.09  41 2.10  45 2.12
  14  0.500  0.750  0.550-  63 2.08  40 2.09  48 2.09  47 2.09  42 2.10  46 2.13
  15  0.250  0.750  0.647-  62 2.08  47 2.08  46 2.09  45 2.09  37 2.09
  16  0.499  0.499  0.647-  48 2.07  45 2.08  38 2.08  61 2.09  46 2.09
  17  0.750  0.000  0.353-  36 2.09  51 2.09  52 2.09  59 2.09  49 2.09
  18  0.000  0.250  0.353-  35 2.09  51 2.09  52 2.09  60 2.09  50 2.09
  19  0.750  0.250  0.451-  34 2.09  49 2.09  50 2.09  57 2.09  51 2.09  55 2.09
  20  0.000  0.000  0.451-  33 2.09  49 2.09  50 2.09  58 2.09  52 2.09  56 2.09
  21  0.750  1.000  0.550-  63 2.09  56 2.09  40 2.09  55 2.09  49 2.10  53 2.11
  22  1.000  0.250  0.550-  56 2.09  64 2.09  55 2.09  39 2.09  50 2.10  54 2.13
  23  0.750  0.250  0.647-  53 2.08  55 2.08  61 2.09  38 2.09  54 2.09
  24  0.000  0.000  0.647-  56 2.08  53 2.09  62 2.09  54 2.09  37 2.09
  25  0.750  0.500  0.353-  44 2.09  51 2.09  59 2.09  60 2.09  57 2.09
  26  0.000  0.750  0.353-  43 2.09  52 2.09  59 2.09  60 2.09  58 2.09
  27  0.750  0.750  0.451-  42 2.09  49 2.09  57 2.09  58 2.09  59 2.09  63 2.10
  28  0.000  0.500  0.451-  41 2.09  50 2.09  57 2.09  58 2.09  60 2.09  64 2.10
  29  0.750  0.500  0.550-  63 2.08  64 2.09  48 2.09  55 2.09  57 2.10  61 2.13
  30  1.000  0.750  0.550-  63 2.09  56 2.09  64 2.09  47 2.09  58 2.10  62 2.12
  31  0.751  0.751  0.649-  62 2.08  53 2.08  61 2.10  46 2.10  63 2.10
  32  1.000  0.500  0.647-  64 2.08  45 2.09  62 2.09  54 2.09  61 2.09
  33  0.250  0.000  0.451-   3 2.09   4 2.09  11 2.09  20 2.09   1 2.09   5 2.10
  34  0.500  0.250  0.451-   3 2.09   4 2.09  12 2.09  19 2.09   2 2.09   6 2.10
  35  0.250  0.250  0.353-   1 2.09   2 2.09   9 2.09  18 2.09   3 2.09
  36  0.500  0.000  0.353-   1 2.09   2 2.09  10 2.09  17 2.09   4 2.09
  37  0.250  1.000  0.650-   7 2.09   8 2.09  24 2.09  15 2.09   5 2.13
  38  0.500  0.250  0.649-  16 2.08   8 2.09   7 2.09  23 2.09   6 2.12
  39  0.250  0.250  0.549-   7 2.08   5 2.09  22 2.09   6 2.09  13 2.09   3 2.09
  40  0.500  1.000  0.549-   8 2.08  14 2.09   6 2.09   5 2.09  21 2.09   4 2.09
  41  0.250  0.500  0.451-   3 2.09  11 2.09  12 2.09  28 2.09   9 2.09  13 2.10
  42  0.500  0.750  0.451-   4 2.09  11 2.09  12 2.09  27 2.09  10 2.09  14 2.10
  43  0.250  0.750  0.353-   1 2.09   9 2.09  10 2.09  26 2.09  11 2.09
  44  0.500  0.500  0.353-   2 2.09   9 2.09  10 2.09  25 2.09  12 2.09
  45  0.250  0.500  0.649-  16 2.08  32 2.09   7 2.09  15 2.09  13 2.12
  46  0.499  0.750  0.650-  15 2.09   8 2.09  16 2.09  31 2.10  14 2.13
  47  0.250  0.750  0.549-  15 2.08   5 2.09  13 2.09  14 2.09  30 2.09  11 2.09
  48  0.500  0.500  0.549-  16 2.07  29 2.09  14 2.09   6 2.09  13 2.09  12 2.09
  49  0.750  0.000  0.451-   4 2.09  19 2.09  20 2.09  27 2.09  17 2.09  21 2.10
  50  0.000  0.250  0.451-   3 2.09  19 2.09  20 2.09  28 2.09  18 2.09  22 2.10
  51  0.750  0.250  0.353-   2 2.09  17 2.09  18 2.09  25 2.09  19 2.09
  52  0.000  0.000  0.353-   1 2.09  17 2.09  18 2.09  26 2.09  20 2.09
  53  0.750  0.001  0.649-  23 2.08  31 2.08   8 2.09  24 2.09  21 2.11
  54  1.000  0.250  0.650-   7 2.09  32 2.09  24 2.09  23 2.09  22 2.13
  55  0.750  0.250  0.549-  23 2.08  22 2.09   6 2.09  29 2.09  21 2.09  19 2.09
  56  0.000  0.000  0.549-  24 2.08   5 2.09  22 2.09  21 2.09  30 2.09  20 2.09
  57  0.750  0.500  0.451-  12 2.09  19 2.09  27 2.09  28 2.09  25 2.09  29 2.10
  58  0.000  0.750  0.451-  11 2.09  20 2.09  27 2.09  28 2.09  26 2.09  30 2.10
  59  0.750  0.750  0.353-  10 2.09  17 2.09  25 2.09  26 2.09  27 2.09
  60  0.000  0.500  0.353-   9 2.09  18 2.09  25 2.09  26 2.09  28 2.09
  61  0.749  0.500  0.650-  23 2.09  32 2.09  16 2.09  31 2.10  29 2.13
  62  0.001  0.750  0.649-  15 2.08  31 2.08  32 2.09  24 2.09  30 2.12
  63  0.750  0.750  0.550-  29 2.08  14 2.08  30 2.09  21 2.09  27 2.10  31 2.10
  64  1.000  0.500  0.549-  32 2.08  29 2.09  22 2.09  13 2.09  30 2.09  28 2.10


IMPORTANT INFORMATION: All symmetrisations will be switched off!
NOSYMM: (Re-)initialisation of all symmetry stuff for point group C_1.


----------------------------------------------------------------------------------------

                                     Primitive cell                                     

  volume of cell :    1482.1129

  direct lattice vectors                    reciprocal lattice vectors
     8.349111827  0.000000000  0.000000000     0.119773219  0.000000000  0.000000000
     0.000000000  8.349111827  0.000000000     0.000000000  0.119773219  0.000000000
     0.000000000  0.000000000 21.261833870     0.000000000  0.000000000  0.047032632

  length of vectors
     8.349111827  8.349111827 21.261833870     0.119773219  0.119773219  0.047032632

  position of ions in fractional coordinates (direct lattice)
     0.250000000  0.000000000  0.352744737
     0.500000000  0.250000000  0.352744737
     0.250000000  0.250000000  0.450914912
     0.500000000  0.000000000  0.450914912
     0.249956618  0.999917683  0.549719934
     0.499906087  0.249737929  0.549648628
     0.249750995  0.249869825  0.647449302
     0.500057524  0.000084119  0.647268726
     0.250000000  0.500000000  0.352744737
     0.500000000  0.750000000  0.352744737
     0.250000000  0.750000000  0.450914912
     0.500000000  0.500000000  0.450914912
     0.249657779  0.499960743  0.549654158
     0.500293006  0.749966248  0.549891251
     0.249667345  0.749875063  0.647264433
     0.498717503  0.498823802  0.646785371
     0.750000000  0.000000000  0.352744737
     0.000000000  0.250000000  0.352744737
     0.750000000  0.250000000  0.450914912
     0.000000000  0.000000000  0.450914912
     0.750044377  0.999834442  0.549822684
     0.999857657  0.250025246  0.549726751
     0.749792815  0.249808845  0.647282851
     0.000014752  0.000120968  0.647347047
     0.750000000  0.500000000  0.352744737
     0.000000000  0.750000000  0.352744737
     0.750000000  0.750000000  0.450914912
     0.000000000  0.500000000  0.450914912
     0.749895413  0.500359104  0.549896405
     0.999762014  0.750081117  0.549825689
     0.751041761  0.751134064  0.648702733
     0.999929029  0.500144026  0.647329554
     0.250000000  0.000000000  0.450914912
     0.500000000  0.250000000  0.450914912
     0.250000000  0.250000000  0.352744737
     0.500000000  0.000000000  0.352744737
     0.250063111  0.999977639  0.649696453
     0.499695620  0.249769248  0.649388340
     0.249873835  0.249922002  0.549425717
     0.499908622  0.999790121  0.549444574
     0.250000000  0.500000000  0.450914912
     0.500000000  0.750000000  0.450914912
     0.250000000  0.750000000  0.352744737
     0.500000000  0.500000000  0.352744737
     0.249663079  0.499801460  0.649352356
     0.499474078  0.749541395  0.650096874
     0.250156310  0.749962764  0.549410349
     0.499899378  0.499957645  0.549403274
     0.750000000  0.000000000  0.450914912
     0.000000000  0.250000000  0.450914912
     0.750000000  0.250000000  0.352744737
     0.000000000  0.000000000  0.352744737
     0.749977627  0.000738255  0.649268103
     0.999881210  0.250156175  0.649692711
     0.749898152  0.250243389  0.549415897
     0.000086346  0.000130487  0.549416183
     0.750000000  0.500000000  0.450914912
     0.000000000  0.750000000  0.450914912
     0.750000000  0.750000000  0.352744737
     0.000000000  0.500000000  0.352744737
     0.749311190  0.499644086  0.650154291
     0.000593472  0.750073265  0.649312854
     0.749863384  0.749916238  0.549745486
     0.999698067  0.499968468  0.549461933

  ion indices of the primitive-cell ions
   primitive index   ion index
                 1           1
                 2           2
                 3           3
                 4           4
                 5           5
                 6           6
                 7           7
                 8           8
                 9           9
                10          10
                11          11
                12          12
                13          13
                14          14
                15          15
                16          16
                17          17
                18          18
                19          19
                20          20
                21          21
                22          22
                23          23
                24          24
                25          25
                26          26
                27          27
                28          28
                29          29
                30          30
                31          31
                32          32
                33          33
                34          34
                35          35
                36          36
                37          37
                38          38
                39          39
                40          40
                41          41
                42          42
                43          43
                44          44
                45          45
                46          46
                47          47
                48          48
                49          49
                50          50
                51          51
                52          52
                53          53
                54          54
                55          55
                56          56
                57          57
                58          58
                59          59
                60          60
                61          61
                62          62
                63          63
                64          64

----------------------------------------------------------------------------------------



 KPOINTS: pymatgen v2020.8.13 with grid density = 

Automatic generation of k-mesh.
 Grid dimensions read from file:
 generate k-points for:    2    2    1

 Generating k-lattice:

  Cartesian coordinates                     Fractional coordinates (reciprocal lattice)
     0.059886610  0.000000000  0.000000000     0.500000000  0.000000000  0.000000000
     0.000000000  0.059886610  0.000000000     0.000000000  0.500000000  0.000000000
     0.000000000  0.000000000  0.047032632     0.000000000  0.000000000  1.000000000

  Length of vectors
     0.059886610  0.059886610  0.047032632

  Shift w.r.t. Gamma in fractional coordinates (k-lattice)
     0.000000000  0.000000000  0.000000000

 
 Subroutine IBZKPT returns following result:
 ===========================================
 
 Found      4 irreducible k-points:
 
 Following reciprocal coordinates:
            Coordinates               Weight
  0.000000  0.000000  0.000000      1.000000
  0.500000  0.000000  0.000000      1.000000
  0.000000  0.500000  0.000000      1.000000
  0.500000  0.500000  0.000000      1.000000
 
 Following cartesian coordinates:
            Coordinates               Weight
  0.000000  0.000000  0.000000      1.000000
  0.059887  0.000000  0.000000      1.000000
  0.000000  0.059887  0.000000      1.000000
  0.059887  0.059887  0.000000      1.000000
 
 
 Subroutine IBZKPT_HF returns following result:
 ==============================================
 
 Found      4 k-points in 1st BZ
 the following      4 k-points will be used (e.g. in the exchange kernel)
 Following reciprocal coordinates:   # in IRBZ
  0.000000  0.000000  0.000000    0.25000000   1 t-inv F
  0.500000  0.000000  0.000000    0.25000000   2 t-inv F
  0.000000  0.500000  0.000000    0.25000000   3 t-inv F
  0.500000  0.500000  0.000000    0.25000000   4 t-inv F


--------------------------------------------------------------------------------------------------------




 Dimension of arrays:
   k-points           NKPTS =      4   k-points in BZ     NKDIM =      4   number of bands    NBANDS=    288
   number of dos      NEDOS =    301   number of ions     NIONS =     64
   non local maximal  LDIM  =      5   non local SUM 2l+1 LMDIM =     13
   total plane-waves  NPLWV = 882000
   max r-space proj   IRMAX =      1   max aug-charges    IRDMAX=  11926
   dimension x,y,z NGX =    70 NGY =   70 NGZ =  180
   dimension x,y,z NGXF=   140 NGYF=  140 NGZF=  360
   support grid    NGXF=   140 NGYF=  140 NGZF=  360
   ions per type =              32  32
   NGX,Y,Z   is equivalent  to a cutoff of  13.94, 13.94, 14.07 a.u.
   NGXF,Y,Z  is equivalent  to a cutoff of  27.88, 27.88, 28.15 a.u.

 SYSTEM =  MgO-rocksalt                            
 POSCAR =  Mg  O                                   

--------------------------------------------------------------------------------------------------------


  energy-cutoff  :      600.00
  volume of cell :     1482.11
      direct lattice vectors                 reciprocal lattice vectors
     8.349111827  0.000000000  0.000000000     0.119773219  0.000000000  0.000000000
     0.000000000  8.349111827  0.000000000     0.000000000  0.119773219  0.000000000
     0.000000000  0.000000000 21.261833870     0.000000000  0.000000000  0.047032632

  length of vectors
     8.349111827  8.349111827 21.261833870     0.119773219  0.119773219  0.047032632



 k-points in units of 2pi/SCALE and weight: pymatgen v2020.8.13 with grid density = 
   0.00000000  0.00000000  0.00000000       0.250
   0.05988661  0.00000000  0.00000000       0.250
   0.00000000  0.05988661  0.00000000       0.250
   0.05988661  0.05988661  0.00000000       0.250

 k-points in reciprocal lattice and weights: pymatgen v2020.8.13 with grid density = 
   0.00000000  0.00000000  0.00000000       0.250
   0.50000000  0.00000000  0.00000000       0.250
   0.00000000  0.50000000  0.00000000       0.250
   0.50000000  0.50000000  0.00000000       0.250

 position of ions in fractional coordinates (direct lattice) 
   0.25000000  0.00000000  0.35274474
   0.50000000  0.25000000  0.35274474
   0.25000000  0.25000000  0.45091491
   0.50000000  0.00000000  0.45091491
   0.24995662  0.99991768  0.54971993
   0.49990609  0.24973793  0.54964863
   0.24975099  0.24986982  0.64744930
   0.50005752  0.00008412  0.64726873
   0.25000000  0.50000000  0.35274474
   0.50000000  0.75000000  0.35274474
   0.25000000  0.75000000  0.45091491
   0.50000000  0.50000000  0.45091491
   0.24965778  0.49996074  0.54965416
   0.50029301  0.74996625  0.54989125
   0.24966734  0.74987506  0.64726443
   0.49871750  0.49882380  0.64678537
   0.75000000  0.00000000  0.35274474
   0.00000000  0.25000000  0.35274474
   0.75000000  0.25000000  0.45091491
   0.00000000  0.00000000  0.45091491
   0.75004438  0.99983444  0.54982268
   0.99985766  0.25002525  0.54972675
   0.74979281  0.24980884  0.64728285
   0.00001475  0.00012097  0.64734705
   0.75000000  0.50000000  0.35274474
   0.00000000  0.75000000  0.35274474
   0.75000000  0.75000000  0.45091491
   0.00000000  0.50000000  0.45091491
   0.74989541  0.50035910  0.54989641
   0.99976201  0.75008112  0.54982569
   0.75104176  0.75113406  0.64870273
   0.99992903  0.50014403  0.64732955
   0.25000000  0.00000000  0.45091491
   0.50000000  0.25000000  0.45091491
   0.25000000  0.25000000  0.35274474
   0.50000000  0.00000000  0.35274474
   0.25006311  0.99997764  0.64969645
   0.49969562  0.24976925  0.64938834
   0.24987384  0.24992200  0.54942572
   0.49990862  0.99979012  0.54944457
   0.25000000  0.50000000  0.45091491
   0.50000000  0.75000000  0.45091491
   0.25000000  0.75000000  0.35274474
   0.50000000  0.50000000  0.35274474
   0.24966308  0.49980146  0.64935236
   0.49947408  0.74954139  0.65009687
   0.25015631  0.74996276  0.54941035
   0.49989938  0.49995765  0.54940327
   0.75000000  0.00000000  0.45091491
   0.00000000  0.25000000  0.45091491
   0.75000000  0.25000000  0.35274474
   0.00000000  0.00000000  0.35274474
   0.74997763  0.00073826  0.64926810
   0.99988121  0.25015618  0.64969271
   0.74989815  0.25024339  0.54941590
   0.00008635  0.00013049  0.54941618
   0.75000000  0.50000000  0.45091491
   0.00000000  0.75000000  0.45091491
   0.75000000  0.75000000  0.35274474
   0.00000000  0.50000000  0.35274474
   0.74931119  0.49964409  0.65015429
   0.00059347  0.75007327  0.64931285
   0.74986338  0.74991624  0.54974549
   0.99969807  0.49996847  0.54946193

 position of ions in cartesian coordinates  (Angst):
   2.08727796  0.00000000  7.50000000
   4.17455591  2.08727796  7.50000000
   2.08727796  2.08727796  9.58727796
   4.17455591  0.00000000  9.58727796
   2.08691576  8.34842455 11.68805391
   4.17377182  2.08508990 11.68653782
   2.08519898  2.08619111 13.76595951
   4.17503619  0.00070232 13.76212012
   2.08727796  4.17455591  7.50000000
   4.17455591  6.26183387  7.50000000
   2.08727796  6.26183387  9.58727796
   4.17455591  4.17455591  9.58727796
   2.08442071  4.17422815 11.68665539
   4.17700226  6.26155207 11.69169642
   2.08450058  6.26079075 13.76202885
   4.16384821  4.16473570 13.75184311
   6.26183387  0.00000000  7.50000000
   0.00000000  2.08727796  7.50000000
   6.26183387  2.08727796  9.58727796
   0.00000000  0.00000000  9.58727796
   6.26220438  8.34772956 11.69023856
   8.34792339  2.08748873 11.68819886
   6.26010406  2.08568198 13.76242044
   0.00012317  0.00100997 13.76378536
   6.26183387  4.17455591  7.50000000
   0.00000000  6.26183387  7.50000000
   6.26183387  6.26183387  9.58727796
   0.00000000  4.17455591  9.58727796
   6.26096066  4.17755411 11.69180602
   8.34712485  6.26251112 11.69030246
   6.27053165  6.27130230 13.79260973
   8.34851928  4.17575840 13.76341345
   2.08727796  0.00000000  9.58727796
   4.17455591  2.08727796  9.58727796
   2.08727796  2.08727796  7.50000000
   4.17455591  0.00000000  7.50000000
   2.08780487  8.34892514 13.81373805
   4.17201461  2.08535138 13.80718701
   2.08622459  2.08662675 11.68179831
   4.17379299  8.34735952 11.68219926
   2.08727796  4.17455591  9.58727796
   4.17455591  6.26183387  9.58727796
   2.08727796  6.26183387  7.50000000
   4.17455591  4.17455591  7.50000000
   2.08446497  4.17289828 13.80642191
   4.17016493  6.25800492 13.82225174
   2.08858300  6.26152298 11.68147156
   4.17371581  4.17420229 11.68132113
   6.26183387  0.00000000  9.58727796
   0.00000000  2.08727796  9.58727796
   6.26183387  2.08727796  7.50000000
   0.00000000  0.00000000  7.50000000
   6.26164707  0.00616378 13.80463054
   8.34812004  2.08858188 13.81365849
   6.26098353  2.08931004 11.68158952
   0.00072091  0.00108945 11.68159560
   6.26183387  4.17455591  9.58727796
   0.00000000  6.26183387  9.58727796
   6.26183387  6.26183387  7.50000000
   0.00000000  4.17455591  7.50000000
   6.25608292  4.17158434 13.82347253
   0.00495497  6.26244557 13.80558204
   6.26069325  6.26113454 11.68859719
   8.34659095  4.17429265 11.68256833



--------------------------------------------------------------------------------------------------------

--------------------------------------- Iteration      FINAL  ---------------------------------------


--------------------OUTCAR has been truncated-------------------------


--------------------OUTCAR has been truncated-------------------------


--------------------OUTCAR has been truncated-------------------------


--------------------OUTCAR has been truncated-------------------------


--------------------OUTCAR has been truncated-------------------------


--------------------OUTCAR has been truncated-------------------------


--------------------OUTCAR has been truncated-------------------------


--------------------OUTCAR has been truncated-------------------------


--------------------OUTCAR has been truncated-------------------------


--------------------OUTCAR has been truncated-------------------------



 VOLUME and BASIS-vectors are now :
 -----------------------------------------------------------------------------
  energy-cutoff  :      600.00
  volume of cell :     1482.11
      direct lattice vectors                 reciprocal lattice vectors
     8.349111827  0.000000000  0.000000000     0.119773219  0.000000000  0.000000000
     0.000000000  8.349111827  0.000000000     0.000000000  0.119773219  0.000000000
     0.000000000  0.000000000 21.261833870     0.000000000  0.000000000  0.047032632

  length of vectors
     8.349111827  8.349111827 21.261833870     0.119773219  0.119773219  0.047032632


 FORCES acting on ions:
    Electron-Ion                     Ewald-Force                    Non-Local-Force
 -----------------------------------------------------------------------------------------------
   -.679E-02 0.799E-01 0.212E+04   0.740E-02 -.813E-01 -.212E+04   -.383E-03 0.864E-03 -.683E+01
   -.819E-01 -.108E-01 0.212E+04   0.829E-01 0.106E-01 -.212E+04   -.573E-03 0.116E-03 -.682E+01
   0.436E-01 0.104E-01 0.703E+03   -.609E-01 -.259E-01 -.703E+03   0.106E-01 0.969E-02 0.439E+00
   -.382E+00 0.482E+00 0.702E+03   0.378E+00 -.521E+00 -.703E+03   0.304E-02 0.237E-01 0.457E+00
   -.220E+00 0.372E+00 -.709E+03   0.220E+00 -.367E+00 0.709E+03   0.317E-02 -.148E-02 -.169E+00
   -.415E+00 -.619E-01 -.707E+03   0.414E+00 0.409E-01 0.707E+03   -.548E-03 0.241E-01 -.218E+00
   0.310E+00 0.347E+00 -.211E+04   -.350E+00 -.396E+00 0.210E+04   0.276E-01 0.319E-01 0.581E+01
   -.354E-01 0.220E+01 -.211E+04   -.147E+00 -.218E+01 0.210E+04   0.114E+00 -.478E-01 0.579E+01
   -.425E-02 -.803E-01 0.212E+04   0.394E-02 0.814E-01 -.212E+04   0.251E-03 -.671E-03 -.682E+01
   -.105E+00 0.865E-02 0.212E+04   0.107E+00 -.934E-02 -.212E+04   -.166E-02 0.422E-03 -.684E+01
   -.757E-01 -.188E-01 0.702E+03   0.100E+00 0.288E-01 -.703E+03   -.153E-01 -.652E-02 0.430E+00
   -.486E+00 -.485E+00 0.702E+03   0.506E+00 0.508E+00 -.703E+03   -.138E-01 -.148E-01 0.444E+00
   0.341E-03 -.406E+00 -.707E+03   -.211E-01 0.405E+00 0.707E+03   0.242E-01 -.440E-03 -.231E+00
   -.128E+01 0.238E+00 -.713E+03   0.137E+01 -.217E+00 0.713E+03   -.761E-01 -.221E-01 -.183E+00
   -.172E+01 -.252E+00 -.211E+04   0.187E+01 0.295E+00 0.210E+04   -.667E-01 -.268E-01 0.574E+01
   -.320E+01 -.339E+01 -.210E+04   0.325E+01 0.343E+01 0.210E+04   0.534E-01 0.687E-01 0.567E+01
   0.703E-02 0.105E+00 0.212E+04   -.760E-02 -.107E+00 -.212E+04   0.352E-03 0.141E-02 -.682E+01
   0.813E-01 -.134E-01 0.212E+04   -.827E-01 0.142E-01 -.212E+04   0.928E-03 -.485E-03 -.683E+01
   -.631E-01 -.857E-01 0.702E+03   0.701E-01 0.115E+00 -.703E+03   -.468E-02 -.183E-01 0.433E+00
   0.375E+00 0.365E+00 0.703E+03   -.370E+00 -.359E+00 -.703E+03   -.358E-02 -.409E-02 0.450E+00
   0.263E+00 0.106E+01 -.708E+03   -.271E+00 -.115E+01 0.708E+03   0.698E-03 0.746E-01 -.287E+00
   0.382E+00 -.256E+00 -.709E+03   -.377E+00 0.261E+00 0.709E+03   -.813E-03 -.115E-02 -.170E+00
   -.235E+00 -.174E+01 -.211E+04   0.269E+00 0.187E+01 0.210E+04   -.223E-01 -.534E-01 0.574E+01
   -.180E+00 -.136E+00 -.211E+04   0.351E+00 0.305E+00 0.210E+04   -.109E+00 -.108E+00 0.585E+01
   0.159E-02 -.103E+00 0.212E+04   -.243E-02 0.106E+00 -.212E+04   0.524E-03 -.179E-02 -.684E+01
   0.106E+00 0.139E-01 0.212E+04   -.108E+00 -.144E-01 -.212E+04   0.150E-02 0.292E-03 -.682E+01
   0.624E-01 0.855E-01 0.701E+03   -.819E-01 -.104E+00 -.701E+03   0.127E-01 0.121E-01 0.521E+00
   0.469E+00 -.361E+00 0.702E+03   -.513E+00 0.361E+00 -.703E+03   0.265E-01 0.104E-02 0.462E+00
   0.162E+00 -.126E+01 -.713E+03   -.140E+00 0.135E+01 0.713E+03   -.229E-01 -.757E-01 -.164E+00
   0.106E+01 0.296E+00 -.708E+03   -.115E+01 -.307E+00 0.709E+03   0.748E-01 0.390E-02 -.273E+00
   0.347E+01 0.328E+01 -.212E+04   -.361E+01 -.342E+01 0.211E+04   -.221E-01 -.106E-01 0.597E+01
   0.220E+01 -.375E-01 -.211E+04   -.217E+01 -.140E+00 0.210E+04   -.567E-01 0.112E+00 0.580E+01
   -.410E-01 0.208E+00 0.527E+03   0.421E-01 -.209E+00 -.526E+03   -.107E-02 0.117E-02 -.105E+00
   -.230E+00 -.613E-01 0.527E+03   0.240E+00 0.775E-01 -.527E+03   -.116E-01 -.181E-01 -.788E-01
   0.332E-02 -.265E-02 0.160E+04   -.429E-02 0.152E-02 -.160E+04   0.114E-02 0.136E-02 0.301E+01
   -.657E-01 0.767E-01 0.160E+04   0.656E-01 -.800E-01 -.160E+04   0.111E-03 0.398E-02 0.300E+01
   -.322E+00 0.407E+00 -.160E+04   0.399E+00 -.461E+00 0.161E+04   -.900E-01 0.512E-01 -.458E+01
   -.455E+00 0.456E+00 -.160E+04   0.504E+00 -.502E+00 0.161E+04   -.470E-01 0.268E-01 -.455E+01
   0.204E+00 0.172E+00 -.525E+03   -.202E+00 -.171E+00 0.525E+03   -.165E-02 0.332E-03 0.235E+00
   -.327E+00 0.977E+00 -.525E+03   0.322E+00 -.998E+00 0.525E+03   0.118E-01 0.260E-01 0.322E+00
   -.448E-01 -.220E+00 0.527E+03   0.660E-01 0.227E+00 -.527E+03   -.239E-01 -.882E-02 -.786E-01
   -.354E+00 0.278E-01 0.526E+03   0.334E+00 -.248E-01 -.525E+03   0.222E-01 -.364E-02 -.140E+00
   -.957E-02 0.287E-02 0.160E+04   0.119E-01 -.157E-02 -.160E+04   -.276E-02 -.158E-02 0.300E+01
   -.752E-01 -.751E-01 0.160E+04   0.794E-01 0.791E-01 -.160E+04   -.500E-02 -.475E-02 0.300E+01
   0.469E+00 -.480E+00 -.160E+04   -.518E+00 0.532E+00 0.161E+04   0.283E-01 -.494E-01 -.454E+01
   -.239E+01 0.876E+00 -.161E+04   0.250E+01 -.108E+01 0.161E+04   -.499E-01 0.222E+00 -.463E+01
   -.476E+00 -.139E+00 -.525E+03   0.509E+00 0.132E+00 0.524E+03   -.454E-01 0.613E-02 0.324E+00
   -.103E+01 -.105E+01 -.524E+03   0.103E+01 0.106E+01 0.523E+03   -.793E-02 -.136E-01 0.426E+00
   0.438E-01 0.364E+00 0.526E+03   -.462E-01 -.355E+00 -.526E+03   0.262E-02 -.108E-01 -.102E+00
   0.208E+00 -.575E-01 0.527E+03   -.206E+00 0.549E-01 -.526E+03   -.260E-02 0.321E-02 -.104E+00
   -.295E-02 -.139E-01 0.160E+04   0.421E-02 0.163E-01 -.160E+04   -.155E-02 -.280E-02 0.300E+01
   0.655E-01 0.635E-01 0.160E+04   -.655E-01 -.637E-01 -.160E+04   -.431E-04 0.211E-03 0.300E+01
   0.449E+00 0.771E+00 -.160E+04   -.503E+00 -.637E+00 0.160E+04   0.636E-01 -.173E+00 -.428E+01
   0.399E+00 -.318E+00 -.160E+04   -.449E+00 0.385E+00 0.161E+04   0.465E-01 -.788E-01 -.456E+01
   -.172E+00 -.503E+00 -.525E+03   0.163E+00 0.532E+00 0.524E+03   0.824E-02 -.407E-01 0.323E+00
   0.276E+00 0.272E+00 -.525E+03   -.262E+00 -.259E+00 0.524E+03   -.216E-01 -.204E-01 0.324E+00
   -.179E-02 -.343E+00 0.526E+03   0.803E-02 0.320E+00 -.525E+03   -.727E-02 0.259E-01 -.142E+00
   0.364E+00 0.689E-01 0.526E+03   -.350E+00 -.728E-01 -.526E+03   -.155E-01 0.421E-02 -.103E+00
   0.865E-02 0.127E-01 0.159E+04   -.112E-01 -.155E-01 -.160E+04   0.306E-02 0.336E-02 0.300E+01
   0.771E-01 -.639E-01 0.160E+04   -.804E-01 0.639E-01 -.160E+04   0.396E-02 0.244E-04 0.300E+01
   0.747E+00 -.232E+01 -.161E+04   -.957E+00 0.243E+01 0.161E+04   0.234E+00 -.561E-01 -.464E+01
   0.691E+00 0.413E+00 -.160E+04   -.554E+00 -.460E+00 0.161E+04   -.173E+00 0.554E-01 -.429E+01
   0.596E+00 0.604E+00 -.531E+03   -.620E+00 -.622E+00 0.531E+03   0.359E-01 0.297E-01 0.315E-01
   0.979E+00 -.317E+00 -.525E+03   -.996E+00 0.312E+00 0.525E+03   0.234E-01 0.120E-01 0.315E+00
 -----------------------------------------------------------------------------------------------
   0.944E-01 0.433E-01 0.199E+02   -.228E-12 0.179E-12 -.250E-11   -.852E-01 -.393E-01 -.169E+02


 POSITION                                       TOTAL-FORCE (eV/Angst)
 -----------------------------------------------------------------------------------
      2.08728      0.00000      7.50000         0.000177     -0.000363      0.428552
      4.17456      2.08728      7.50000         0.000301      0.000015      0.426563
      2.08728      2.08728      9.58728        -0.004914     -0.004273      0.061160
      4.17456      0.00000      9.58728        -0.000454     -0.011553      0.062065
      2.08692      8.34842     11.68805         0.004069      0.003368      0.005665
      4.17377      2.08509     11.68654        -0.001428      0.005485     -0.003974
      2.08520      2.08619     13.76596        -0.008255     -0.012186     -0.019120
      4.17504      0.00070     13.76212        -0.049994     -0.032192      0.015311
      2.08728      4.17456      7.50000        -0.000017      0.000328      0.426476
      4.17456      6.26183      7.50000         0.000615     -0.000190      0.430304
      2.08728      6.26183      9.58728         0.006937      0.002434      0.068074
      4.17456      4.17456      9.58728         0.004881      0.005721      0.064712
      2.08442      4.17423     11.68666         0.005871     -0.001219     -0.005335
      4.17700      6.26155     11.69170         0.001240     -0.003794      0.020647
      2.08450      6.26079     13.76203         0.070324      0.012089      0.028991
      4.16385      4.16474     13.75184         0.104738      0.106788      0.122013
      6.26183      0.00000      7.50000        -0.000148     -0.000500      0.427144
      0.00000      2.08728      7.50000        -0.000372      0.000195      0.428430
      6.26183      2.08728      9.58728         0.001576      0.008372      0.068049
      0.00000      0.00000      9.58728         0.001047      0.001449      0.060231
      6.26220      8.34773     11.69024        -0.007045     -0.003157     -0.032037
      8.34792      2.08749     11.68820         0.003562      0.003866      0.004270
      6.26010      2.08568     13.76242         0.007741      0.066634      0.027234
      0.00012      0.00101     13.76379         0.045027      0.043178     -0.019787
      6.26183      4.17456      7.50000        -0.000223      0.000651      0.430366
      0.00000      6.26183      7.50000        -0.000529     -0.000134      0.427200
      6.26183      6.26183      9.58728        -0.004753     -0.004179      0.076911
      0.00000      4.17456      9.58728        -0.012957      0.000461      0.062491
      6.26096      4.17755     11.69181        -0.003610      0.001387      0.019980
      8.34712      6.26251     11.69030        -0.002755     -0.006377     -0.031667
      6.27053      6.27130     13.79261        -0.145212     -0.140462     -0.192645
      8.34852      4.17576     13.76341        -0.029218     -0.047914      0.006760
      2.08728      0.00000      9.58728        -0.000114      0.000541      0.069018
      4.17456      2.08728      9.58728        -0.003595     -0.005189      0.070776
      2.08728      2.08728      7.50000         0.000395      0.000484     -0.563866
      4.17456      0.00000      7.50000         0.000060      0.001392     -0.564704
      2.08780      8.34893     13.81374        -0.028766      0.006021     -0.022346
      4.17201      2.08535     13.80719        -0.005340     -0.016547      0.002897
      2.08622      2.08663     11.68180         0.000208      0.001384     -0.005195
      4.17379      8.34736     11.68220         0.009362      0.010084     -0.002535
      2.08728      4.17456      9.58728        -0.006969     -0.002803      0.071558
      4.17456      6.26183      9.58728         0.006967     -0.001288      0.075859
      2.08728      6.26183      7.50000        -0.000952     -0.000555     -0.564585
      4.17456      4.17456      7.50000        -0.001761     -0.001652     -0.564933
      2.08446      4.17290     13.80642        -0.017601     -0.006304      0.009615
      4.17016      6.25800     13.82225         0.054160      0.054888     -0.056116
      2.08858      6.26152     11.68147        -0.020244      0.000341      0.003161
      4.17372      4.17420     11.68132        -0.007462     -0.007938     -0.015971
      6.26183      0.00000      9.58728         0.000633     -0.003483      0.082768
      0.00000      2.08728      9.58728        -0.000603      0.001178      0.070043
      6.26183      2.08728      7.50000        -0.000555     -0.000964     -0.564557
      0.00000      0.00000      7.50000         0.000003      0.000076     -0.564359
      6.26165      0.00616     13.80463         0.020884     -0.071551      0.090099
      8.34812      2.08858     13.81366         0.004411     -0.025314     -0.018731
      6.26098      2.08931     11.68159         0.001457     -0.019886      0.003938
      0.00072      0.00109     11.68160        -0.012047     -0.011136      0.011405
      6.26183      4.17456      9.58728        -0.002319      0.008064      0.075841
      0.00000      6.26183      9.58728        -0.004931      0.001079      0.082591
      6.26183      6.26183      7.50000         0.001076      0.001188     -0.565639
      0.00000      4.17456      7.50000         0.001381      0.000030     -0.564693
      6.25608      4.17158     13.82347         0.065833      0.048228     -0.061188
      0.00495      6.26245     13.80558        -0.068817      0.018737      0.085418
      6.26069      6.26113     11.68860         0.018709      0.018027      0.000717
      8.34659      4.17429     11.68257         0.010316      0.008940     -0.001321
 -----------------------------------------------------------------------------------
    total drift:                               -0.000634     -0.000478      0.003591


--------------------------------------------------------------------------------------------------------



  FREE ENERGIE OF THE ION-ELECTRON SYSTEM (eV)
  ---------------------------------------------------
  free  energy   TOTEN  =      -472.31325177 eV

  energy  without entropy=     -472.31325177  energy(sigma->0) =     -472.31325177



--------------------------------------------------------------------------------------------------------


    POTLOK:  cpu time      2.2954: real time      2.3117


--------------------------------------------------------------------------------------------------------


     LOOP+:  cpu time   3854.9387: real time   3856.8052
    4ORBIT:  cpu time      0.0000: real time      0.0000

 total amount of memory used by VASP MPI-rank0   189557. kBytes
=======================================================================

   base      :      30000. kBytes
   nonl-proj :      11581. kBytes
   fftplans  :       8021. kBytes
   grid      :       7379. kBytes
   one-center:         64. kBytes
   HF        :         67. kBytes
   nonlr-proj:       7441. kBytes
   wavefun   :       3648. kBytes
   fock_wrk  :     121356. kBytes

  
  
 General timing and accounting informations for this job:
 ========================================================
  
                  Total CPU time used (sec):     3908.841
                            User time (sec):     3900.068
                          System time (sec):        8.773
                         Elapsed time (sec):     3928.443
  
                   Maximum memory used (kb):      440384.
                   Average memory used (kb):          N/A
  
                          Minor page faults:       418908
                          Major page faults:            0
                 Voluntary context switches:        19773
