 **********************************************************************
                          MRCC program system
 **********************************************************************
 
                              Written by
     Mihaly Kallay, Peter R. Nagy, David Mester, Laszlo Gyevi-Nagy,
        Jozsef Csoka, P. Bernat Szabo, Zoltan Rolik, Gyula Samu,
     Jozsef Csontos, Bence Hegely, Adam Ganyecz, Istvan Ladjanszki,
       Lorant Szegedy, Bence Ladoczki, Klara Petrov, Mate Farkas,
                    Pal D. Mezei, and Reka A. Horvath
 
        Department of Physical Chemistry and Materials Science
            Budapest University of Technology and Economics
                  Budapest P.O.Box 91, H-1521 Hungary
 
                              www.mrcc.hu
 
                      Release date: March 18, 2022

 ************************ 2023-04-11 18:09:52 *************************
 Executing minp...

 Reading input from MINP...
 
 Input file:
 
calc=DF-CCSD(T)
scftype=rhf
verbosity=3
mem=220GB
symm=off
unit=angs
scfiguess=small
scfmaxit=1000
scfalg=locfit1


ccmaxit=400
ccsdalg=dfdirect
ccsdthreads=4
ccsdmkl=thr
ptthreads=4

charge=-6
core=15

basis=special
aug-cc-pVTZ
aug-cc-pVTZ
aug-cc-pVTZ
cc-pVTZ
aug-cc-pVTZ
aug-cc-pVTZ
aug-cc-pVTZ
aug-cc-pVTZ
aug-cc-pVTZ
nothing
nothing
nothing
nothing
nothing
nothing
nothing
nothing
nothing
nothing
nothing
nothing
nothing
nothing
nothing
nothing
nothing
nothing
nothing
nothing
nothing
nothing
nothing
nothing
nothing
nothing
nothing
nothing
nothing
nothing
nothing
nothing

basis_sm=special
def2-SVP
def2-SVP
def2-SVP
def2-SVP
def2-SVP
def2-SVP
def2-SVP
def2-SVP
def2-SVP
nothing
nothing
nothing
nothing
nothing
nothing
nothing
nothing
nothing
nothing
nothing
nothing
nothing
nothing
nothing
nothing
nothing
nothing
nothing
nothing
nothing
nothing
nothing
nothing
nothing
nothing
nothing
nothing
nothing
nothing
nothing
nothing

dfbasis_scf=special
def2-QZVPP-RI-JK
def2-QZVPP-RI-JK
def2-QZVPP-RI-JK
def2-QZVPP-RI-JK
def2-QZVPP-RI-JK
def2-QZVPP-RI-JK
def2-QZVPP-RI-JK
def2-QZVPP-RI-JK
def2-QZVPP-RI-JK
nothing
nothing
nothing
nothing
nothing
nothing
nothing
nothing
nothing
nothing
nothing
nothing
nothing
nothing
nothing
nothing
nothing
nothing
nothing
nothing
nothing
nothing
nothing
nothing
nothing
nothing
nothing
nothing
nothing
nothing
nothing
nothing

dfbasis_cor=special
aug-cc-pVTZ-RI
aug-cc-pVTZ-RI
aug-cc-pVTZ-RI
cc-pVTZ-RI
aug-cc-pVTZ-RI
aug-cc-pVTZ-RI
aug-cc-pVTZ-RI
aug-cc-pVTZ-RI
aug-cc-pVTZ-RI
nothing
nothing
nothing
nothing
nothing
nothing
nothing
nothing
nothing
nothing
nothing
nothing
nothing
nothing
nothing
nothing
nothing
nothing
nothing
nothing
nothing
nothing
nothing
nothing
nothing
nothing
nothing
nothing
nothing
nothing
nothing
nothing

ecp=special
none
none
none
none
none
none
none
none
none
ECP-22
ECP-22
ECP-22
ECP-22
ECP-22
ECP-22
ECP-22
ECP-22
ECP-22
ECP-22
ECP-22
ECP-22
ECP-22
ECP-22
ECP-22
ECP-22
ECP-22
ECP-22
ECP-22
ECP-22
ECP-22
ECP-22
ECP-22
ECP-22
ECP-22
ECP-22
ECP-22
ECP-22
ECP-22
ECP-22
ECP-22
ECP-22

unit=angs
geom=xyz
41
H2 O1 Ti1 O5 ECP32
H     1.89798442467    0.76892357091    1.09500300994
H     1.89796701023   -0.76888339837    1.09498291566
O     1.29090844524   -0.00005254918    1.12611635030
Ti    0.00000000000    0.00000000000   -0.77370084871
O    -1.64817325598   -0.00000215208    0.00000000000
O    -0.94100323191    0.00000142808   -2.37909136869
O     0.50556793744    1.91238553012   -0.73338906055
O     0.50556915160   -1.91238357459   -0.73338758178
O     1.92807916659   -0.00000035590   -1.64078281987
Ti   -2.78049178881    0.00000120312   -1.48033747516
Ti    2.29985076291    1.88259799097   -1.59633106815
Ti    2.29985203922   -1.88260089015   -1.59633312388
Ti   -0.01659662649    3.79938284995   -0.94179438239
Ti   -0.01659472499   -3.79938415148   -0.94179199941
Ti   -1.42692687711    0.00000132311   -4.31461670435
Ti   -2.81353667748    3.78130604725   -1.49243347955
Ti   -2.81353140596   -3.78130162268   -1.49243206062
Ti    0.81536056812    1.89450335410   -5.16120212020
Ti    0.81536004138   -1.89450071564   -5.16120271478
Ti    5.08724077673    1.88388830902   -0.94458395108
Ti    5.08724042819   -1.88388456178   -0.94458311852
Ti   -1.44960209749    3.79047733446   -4.39638265149
Ti   -1.44960262998   -3.79047458330   -4.39638262520
Ti   -5.18651807902    1.88388830902   -0.94458395108
Ti   -5.18651842756   -1.88388456178   -0.94458311852
Ti    3.70233321188    1.89011155380   -4.43452261597
Ti    3.70233342068   -1.89010721299   -4.43452384909
Ti   -4.27420279142    0.00000174056   -5.12312477151
Ti    2.33403400187    5.68440566678   -1.51651174168
Ti    2.33403400187   -5.68440798571   -1.51651174168
Ti   -4.30391908981    3.79304027090   -5.13111525611
Ti   -4.30391920697   -3.79303638748   -5.13111409206
Ti    0.82297015220    5.68440776894   -5.14248294343
Ti    0.82297015220   -5.68440588355   -5.14248294343
Ti    5.99955606433    0.00000174056   -5.12312477151
Ti    7.49326706694    0.00000120312   -1.48033747516
Ti   -0.01659472499    7.56942950101   -0.94179199941
Ti   -0.01659662649   -7.56943080254   -0.94179438239
Ti   -2.86933130450    0.00000124517   -7.85598111261
Ti    5.11542579946    5.68440974223   -0.94191258676
Ti    5.11542579946   -5.68440391026   -0.94191258676



ghost=serialno


qmmm=Amber
pointcharges
9572
     -2.78049178881    0.00000120312   -1.48033747516    4.00000000000
      2.29985076291    1.88259799097   -1.59633106815    4.00000000000
      2.29985203922   -1.88260089015   -1.59633312388    4.00000000000
     -3.18776140722    1.89015119990   -1.48811615453   -2.00000000000
--------------------Output has been truncated-------------------------


--------------------Output has been truncated-------------------------


--------------------Output has been truncated-------------------------


--------------------Output has been truncated-------------------------


--------------------Output has been truncated-------------------------


--------------------Output has been truncated-------------------------


--------------------Output has been truncated-------------------------


--------------------Output has been truncated-------------------------


--------------------Output has been truncated-------------------------


--------------------Output has been truncated-------------------------


 ************************ 2023-04-11 18:13:16 *************************
 Executing ccsd...

 Allocation of 220.0 Gbytes of memory...

 Direct DF-CCSD(T) calculation
 
 Convergence criterion:  1.0E-06
 
 Number of occupied/virtual/auxiliary orbitals:    24   351   972
   7286.32 MB is the minimal memory requirement for (T)
   2046.54 MB is the minimal memory requirement for CCSD
 
 Reference energy [au]:          -81944.201450701439
 T1 contribution [au]:                0.000000000000
 Same spin MP2 energy [au]:          -0.454052293891
 Opposite spin MP2 energy [au]:      -1.239699227848
 MP2 correlation energy [au]:        -1.693751521743
 Total MP2 energy [au]:          -81945.895202223182
 
 
 CPU time [min]:     1.166                   Wall time [min]:     0.195
 
 Starting CCSD iterations...
 
                     Residual norm          Energy
 Iteration  1        0.407412696427   -81945.822351803567
 Iteration  2        0.189122205925   -81945.867071488203
 Iteration  3        0.054155313324   -81945.879747479965
 Iteration  4        0.019516251475   -81945.880994142412
 Iteration  5        0.007650681934   -81945.879923911809
 Iteration  6        0.003990075007   -81945.879695181255
 Iteration  7        0.001877065387   -81945.879845703486
 Iteration  8        0.000815899937   -81945.879814183441
 Iteration  9        0.000306779880   -81945.879804753262
 Iteration 10        0.000151444671   -81945.879813582200
 Iteration 11        0.000060980232   -81945.879814758780
 Iteration 12        0.000029382952   -81945.879814158325
 Iteration 13        0.000013129470   -81945.879814396540
 Iteration 14        0.000006896976   -81945.879814368134
 
 CCSD iteration has converged in 14 steps.
    60028.84 MB memory was utilized by CCSD
 
 T1 diagnostic:      2.042E-02            D1 diagnostic:      7.553E-02
 
 T1 contribution [au]:                                  0.000000000000
 Opposite spin CCSD energy [au]:                       -1.281030698488
 Same spin CCSD energy [au]:                           -0.397332968210
 CCSD correlation energy [au]:                         -1.678363666695
 Total CCSD energy [au]:                           -81945.879814368134
 
 CPU time [min]:   306.465                   Wall time [min]:    10.116
 
 Calculation of (T) correction...
 
 
    13201.48 MB memory is utilized for (T)

 0%       25%       50%       75%       100%
 |---------|---------|---------|---------| 
 
 (T) correction [au]:                                    -0.078207591088
 CCSD(T) correlation energy [au]:                        -1.756571257778
 Total CCSD(T) energy [au]:                          -81945.958021959217
 
 CPU time [min]:   940.713                   Wall time [min]:    28.253
 
 ************************ 2023-04-11 18:41:32 *************************
                      Normal termination of mrcc.
 **********************************************************************
