 vasp.6.4.2 20Jul23 (build Feb 22 2024 13:53:45) complex                         
 executed on              LinuxNV date 2024.08.29  04:15:54
 running    4 mpi-ranks, with    1 threads/rank, on    1 nodes
 distrk:  each k-point on    4 cores,    1 groups
 distr:  one band on NCORE=   1 cores,    4 groups
 OpenACC runtime initialized ...    4 GPUs detected


--------------------------------------------------------------------------------------------------------


 INCAR:
   SYSTEM = Oxide-Surface
   ISMEAR = 0
   SIGMA = 0.05
   EDIFF = 1E-5
   ALGO = Normal
   IBRION = -1
   NSW = 0
   ISYM = 0
   DIPOL = 0.5 0.5 0.5
   IDIPOL = 3
   LDIPOL = .TRUE.
   ISTART = 0
   LHFCALC = .FALSE.
   GGA = PE
   HFRCUT = -1
   ENCUT = 520
   PREC = Normal
   PRECFOCK = Normal
   LASPH = .TRUE.
   LREAL = Auto
   ISPIN = 1
   NELM = 200
   NELMIN = 8
   NCORE = 1
   KPAR = 1
   LWAVE = .TRUE.
   LCHARG = .FALSE.

 POTCAR:    PAW_PBE Ti_pv 07Sep2000               
 POTCAR:    PAW_PBE O 08Apr2002                   
 POTCAR:    PAW_PBE Ti_pv 07Sep2000               
   SHA256 =  f757a1b2c6d082f4c628fa3d987464a8763bf92e53844ac0500b0e2ddc9ce5c0 Ti_pv/POTCAR          
   COPYR  = (c) Copyright 07Sep2000 Georg Kresse                                                    
   COPYR  = This file is part of the software VASP. Any use, copying, and all other rights are regul
   COPYR  = If you do not have a valid VASP license, you may not use, copy or distribute this file. 
   VRHFIN =Ti: d3 s1                                                                                
   LEXCH  = PE                                                                                      
   EATOM  =  1042.5995 eV,   76.6289 Ry                                                             
                                                                                                    
   TITEL  = PAW_PBE Ti_pv 07Sep2000                                                                 
   LULTRA =        F    use ultrasoft PP ?                                                          
   IUNSCR =        1    unscreen: 0-lin 1-nonlin 2-no                                               
   RPACOR =    2.200    partial core radius                                                         
   POMASS =   47.880; ZVAL   =   10.000    mass and valenz                                          
   RCORE  =    2.500    outmost cutoff radius                                                       
   RWIGS  =    2.500; RWIGS  =    1.323    wigner-seitz radius (au A)                               
   ENMAX  =  222.335; ENMIN  =  166.751 eV                                                          
   RCLOC  =    1.701    cutoff for local pot                                                        
   LCOR   =        T    correct aug charges                                                         
   LPAW   =        T    paw PP                                                                      
   EAUG   =  482.848                                                                                
   DEXC   =    0.000                                                                                
   RMAX   =    2.564    core radius for proj-oper                                                   
   RAUG   =    1.300    factor for augmentation sphere                                              
   RDEP   =    2.538    radius for radial grids                                                     
   RDEPT  =    1.952    core radius for aug-charge                                                  
                                                                                                    
   Atomic configuration                                                                             
    8 entries                                                                                       
     n  l   j            E        occ.                                                              
     1  0  0.50     -4865.3608   2.0000                                                             
     2  0  0.50      -533.1368   2.0000                                                             
     2  1  1.50      -440.5031   6.0000                                                             
     3  0  0.50       -59.3186   2.0000                                                             
     3  1  1.50       -35.7012   6.0000                                                             
     3  2  2.50        -1.9157   3.0000                                                             
     4  0  0.50        -3.7291   1.0000                                                             
     4  3  2.50        -1.3606   0.0000                                                             
   Description                                                                                      
     l       E           TYP  RCUT    TYP  RCUT                                                     
     1    -35.7012140     23  2.300                                                                 
     1     -1.3605826     23  2.300                                                                 
     2     -1.9156996     23  2.500                                                                 
     2     -0.4063033     23  2.500                                                                 
     0     -3.7290856     23  2.500                                                                 
     0     20.4087390     23  2.500                                                                 
  local pseudopotential read in
  partial core-charges read in
  partial kinetic energy density read in
  atomic valenz-charges read in
  non local Contribution for L=            1  read in
    real space projection operators read in
  non local Contribution for L=            1  read in
    real space projection operators read in
  non local Contribution for L=            2  read in
    real space projection operators read in
  non local Contribution for L=            2  read in
    real space projection operators read in
  non local Contribution for L=            0  read in
    real space projection operators read in
  non local Contribution for L=            0  read in
    real space projection operators read in
    PAW grid and wavefunctions read in
 
   number of l-projection  operators is LMAX  =            6
   number of lm-projection operators is LMMAX =           18
 
 POTCAR:    PAW_PBE O 08Apr2002                   
   SHA256 =  818f92134a0a090dccd8ba1447fa70422a3b330e708bb4f08108d8ae51209ddf O/POTCAR              
   COPYR  = (c) Copyright 08Apr2002 Georg Kresse                                                    
   COPYR  = This file is part of the software VASP. Any use, copying, and all other rights are regul
   COPYR  = If you do not have a valid VASP license, you may not use, copy or distribute this file. 
   VRHFIN =O: s2p4                                                                                  
   LEXCH  = PE                                                                                      
   EATOM  =   432.3788 eV,   31.7789 Ry                                                             
                                                                                                    
   TITEL  = PAW_PBE O 08Apr2002                                                                     
   LULTRA =        F    use ultrasoft PP ?                                                          
   IUNSCR =        1    unscreen: 0-lin 1-nonlin 2-no                                               
   RPACOR =    1.200    partial core radius                                                         
   POMASS =   16.000; ZVAL   =    6.000    mass and valenz                                          
   RCORE  =    1.520    outmost cutoff radius                                                       
   RWIGS  =    1.550; RWIGS  =    0.820    wigner-seitz radius (au A)                               
   ENMAX  =  400.000; ENMIN  =  300.000 eV                                                          
   ICORE  =        2    local potential                                                             
   LCOR   =        T    correct aug charges                                                         
   LPAW   =        T    paw PP                                                                      
   EAUG   =  605.392                                                                                
   DEXC   =    0.000                                                                                
   RMAX   =    1.553    core radius for proj-oper                                                   
   RAUG   =    1.300    factor for augmentation sphere                                              
   RDEP   =    1.550    radius for radial grids                                                     
   RDEPT  =    1.329    core radius for aug-charge                                                  
                                                                                                    
   Atomic configuration                                                                             
    4 entries                                                                                       
     n  l   j            E        occ.                                                              
     1  0  0.50      -514.6923   2.0000                                                             
     2  0  0.50       -23.9615   2.0000                                                             
     2  1  0.50        -9.0305   4.0000                                                             
     3  2  1.50        -9.5241   0.0000                                                             
   Description                                                                                      
     l       E           TYP  RCUT    TYP  RCUT                                                     
     0    -23.9615318     23  1.200                                                                 
     0     -9.5240782     23  1.200                                                                 
     1     -9.0304911     23  1.520                                                                 
     1      8.1634956     23  1.520                                                                 
     2     -9.5240782      7  1.500                                                                 
  local pseudopotential read in
  partial core-charges read in
  partial kinetic energy density read in
  kinetic energy density of atom read in
  atomic valenz-charges read in
  non local Contribution for L=            0  read in
    real space projection operators read in
  non local Contribution for L=            0  read in
    real space projection operators read in
  non local Contribution for L=            1  read in
    real space projection operators read in
  non local Contribution for L=            1  read in
    real space projection operators read in
    PAW grid and wavefunctions read in
 
   number of l-projection  operators is LMAX  =            4
   number of lm-projection operators is LMMAX =            8
 
 Optimization of the real space projectors (new method)

 maximal supplied QI-value         = 15.12
 optimisation between [QCUT,QGAM] = [ 11.64, 23.28] = [ 37.95,151.78] Ry 
 Optimized for a Real-space Cutoff    1.45 Angstroem

   l    n(q)    QCUT    max X(q) W(low)/X(q) W(high)/X(q)  e(spline) 
   1     10    11.641     4.216    0.33E-04    0.72E-04    0.48E-07
   1     10    11.641     5.422    0.11E-03    0.20E-03    0.10E-06
   2      9    11.641    72.084    0.36E-03    0.27E-03    0.57E-06
   2      9    11.641    65.965    0.35E-03    0.27E-03    0.57E-06
   0     10    11.641    41.531    0.11E-03    0.93E-04    0.16E-06
   0     10    11.641    16.290    0.82E-04    0.72E-04    0.13E-06
 Optimization of the real space projectors (new method)

 maximal supplied QI-value         = 24.76
 optimisation between [QCUT,QGAM] = [ 11.64, 23.27] = [ 37.91,151.63] Ry 
 Optimized for a Real-space Cutoff    1.04 Angstroem

   l    n(q)    QCUT    max X(q) W(low)/X(q) W(high)/X(q)  e(spline) 
   0      7    11.635    20.381    0.14E-03    0.49E-03    0.18E-06
   0      7    11.635    15.268    0.16E-03    0.52E-03    0.19E-06
   1      7    11.635     5.964    0.30E-03    0.44E-03    0.22E-06
   1      7    11.635     5.382    0.27E-03    0.34E-03    0.19E-06
  PAW_PBE Ti_pv 07Sep2000               :
 energy of atom  1       EATOM=-1042.5995
 kinetic energy error for atom=    0.0019 (will be added to EATOM!!)
  PAW_PBE O 08Apr2002                   :
 energy of atom  2       EATOM= -432.3788
 kinetic energy error for atom=    0.0208 (will be added to EATOM!!)
 
 
 POSCAR: Ti  O
  positions in direct lattice
  No initial velocities read in
 exchange correlation table for  LEXCH =        8
   RHO(1)=    0.500       N(1)  =     2000
   RHO(2)=  100.500       N(2)  =     4000
 


--------------------------------------------------------------------------------------------------------


 ion  position               nearest neighbor table
   1  0.750  0.625  0.192-  82 1.95 142 1.95 141 1.95  81 1.95  84 1.98 163 1.98  11 2.96  31 2.96

   2  0.000  0.750  0.192-  83 1.95 103 1.95  84 1.95 104 1.95  85 1.98  32 2.96  12 2.96
   3  0.000  0.625  0.322-  85 1.95 145 1.95  86 1.95 146 1.95  88 1.98  87 1.98  13 2.96  33 2.96

   4  0.750  0.750  0.322-  87 1.95 107 1.95 168 1.95 188 1.95  89 1.98  82 1.98  14 2.96  34 2.96

   5  0.750  0.625  0.452-  90 1.95 150 1.95 149 1.95  89 1.95  92 1.98 171 1.98  15 2.96  35 2.96

   6  0.000  0.750  0.452-  91 1.95 111 1.95  92 1.95 112 1.95  86 1.98  93 2.00  16 2.96  36 2.96

   7  1.000  0.625  0.579-  93 1.90 153 1.90  95 1.95  96 1.95  94 2.02 154 2.02  17 2.96  37 2.96

   8  0.750  0.750  0.587-  97 1.86 196 1.97 176 1.97  95 1.97 115 1.97  90 2.11  18 2.96  38 2.96

   9  0.750  0.625  0.721-  98 1.83 158 1.84 179 2.03 100 2.03  97 2.10 157 2.10  19 2.96  39 2.96

  10  0.000  0.750  0.706-  94 1.81 119 1.95 120 1.95  99 1.95 100 1.95  20 2.96  40 2.96
  11  0.750  0.875  0.192-  82 1.95 102 1.95 101 1.95  81 1.95 104 1.98 183 1.98   1 2.96  21 2.96

  12  0.000  0.000  0.192- 103 1.95 123 1.95 104 1.95 124 1.95 105 1.98  22 2.96   2 2.96
  13  0.000  0.875  0.322-  85 1.95 105 1.95  86 1.95 106 1.95 108 1.98 107 1.98   3 2.96  23 2.96

  14  0.750  0.000  0.322- 107 1.95 127 1.95 188 1.95 208 1.95 109 1.98 102 1.98   4 2.96  24 2.96

  15  0.750  0.875  0.452-  90 1.95 110 1.95 109 1.95  89 1.95 112 1.98 191 1.98   5 2.96  25 2.96

  16  0.000  0.000  0.452- 111 1.95 131 1.95 112 1.95 132 1.95 106 1.98 113 2.00   6 2.96  26 2.96

  17  1.000  0.875  0.579- 113 1.89  93 1.90 115 1.95 116 1.95 114 2.02  94 2.02  27 2.96   7 2.96

  18  0.750  0.000  0.587- 117 1.86 216 1.97 196 1.97 135 1.97 115 1.97 110 2.11  28 2.96   8 2.96

  19  0.750  0.875  0.721- 118 1.83  98 1.83 199 2.03 120 2.03 117 2.10  97 2.10   9 2.96  29 2.96

  20  1.000  1.000  0.706- 114 1.81 120 1.95 139 1.95 140 1.95 119 1.95  10 2.96  30 2.96
  21  0.750  0.125  0.192- 102 1.95 122 1.95 121 1.95 101 1.95 124 1.98 203 1.98  11 2.96  31 2.96

  22  0.000  0.250  0.192- 123 1.95 143 1.95 124 1.95 144 1.95 125 1.98  32 2.96  12 2.96
  23  0.000  0.125  0.322- 105 1.95 125 1.95 106 1.95 126 1.95 128 1.98 127 1.98  13 2.96  33 2.96

  24  0.750  0.250  0.322- 127 1.95 147 1.95 208 1.95 228 1.95 129 1.98 122 1.98  14 2.96  34 2.96

  25  0.750  0.125  0.452- 110 1.95 130 1.95 129 1.95 109 1.95 132 1.98 211 1.98  15 2.96  35 2.96

  26  0.000  0.250  0.452- 131 1.95 151 1.95 132 1.95 152 1.95 126 1.98 133 2.00  16 2.96  36 2.96

  27  0.000  0.125  0.579- 113 1.89 133 1.90 136 1.95 135 1.95 114 2.02 134 2.02  17 2.96  37 2.96

  28  0.750  0.250  0.587- 137 1.86 216 1.97 236 1.97 155 1.97 135 1.97 130 2.11  18 2.96  38 2.96

  29  0.750  0.125  0.721- 118 1.83 138 1.83 219 2.03 140 2.03 117 2.10 137 2.10  39 2.96  19 2.96

  30  1.000  0.250  0.706- 134 1.81 140 1.95 139 1.95 160 1.95 159 1.95  20 2.96  40 2.96
  31  0.750  0.375  0.192- 122 1.95 142 1.95 141 1.95 121 1.95 144 1.98 223 1.98   1 2.96  21 2.96

  32  0.000  0.500  0.192-  83 1.95 143 1.95  84 1.95 144 1.95 145 1.98  22 2.96   2 2.96
  33  0.000  0.375  0.322- 125 1.95 145 1.95 126 1.95 146 1.95 148 1.98 147 1.98   3 2.96  23 2.96

  34  0.750  0.500  0.322-  87 1.95 147 1.95 168 1.95 228 1.95 142 1.98 149 1.98   4 2.96  24 2.96

  35  0.750  0.375  0.452- 130 1.95 150 1.95 149 1.95 129 1.95 152 1.98 231 1.98   5 2.96  25 2.96

  36  0.000  0.500  0.452-  91 1.95 151 1.95  92 1.95 152 1.95 146 1.98 153 2.00   6 2.96  26 2.96

  37  0.000  0.375  0.579- 133 1.90 153 1.90 156 1.95 155 1.95 134 2.02 154 2.02  27 2.96   7 2.96

  38  0.750  0.500  0.587- 157 1.86 236 1.97 176 1.97 155 1.97  95 1.97 150 2.11  28 2.96   8 2.96

  39  0.750  0.375  0.721- 138 1.83 158 1.83 239 2.03 160 2.03 137 2.10 157 2.10  29 2.96   9 2.96

  40  0.000  0.500  0.706- 154 1.81 159 1.95 100 1.95  99 1.95 160 1.95  30 2.96  10 2.96
  41  0.250  0.625  0.192- 162 1.95 222 1.95 221 1.95 161 1.95  83 1.98 164 1.98  51 2.96  71 2.96

  42  0.500  0.750  0.192- 163 1.95 164 1.95 183 1.95 184 1.95 165 1.98  72 2.96  52 2.96
  43  0.500  0.625  0.322- 165 1.95 225 1.95 166 1.95 226 1.95 167 1.98 168 1.98  53 2.96  73 2.96

  44  0.250  0.750  0.322-  88 1.95 108 1.95 167 1.95 187 1.95 169 1.98 162 1.98  54 2.96  74 2.96

  45  0.250  0.625  0.452- 170 1.95 230 1.95 229 1.95 169 1.95  91 1.98 172 1.98  55 2.96  75 2.96

  46  0.500  0.750  0.452- 171 1.95 172 1.95 191 1.95 192 1.95 166 1.98 173 2.00  56 2.96  76 2.96

  47  0.500  0.625  0.580- 233 1.90 173 1.90 175 1.95 176 1.95 174 2.01 234 2.02  77 2.95  57 2.96

  48  0.250  0.750  0.587- 177 1.86 195 1.97 175 1.97  96 1.97 116 1.97 170 2.11  58 2.96  78 2.96

  49  0.250  0.625  0.721- 178 1.83 238 1.83 180 2.03  99 2.03 177 2.10 237 2.10  59 2.96  79 2.96

  50  0.500  0.750  0.706- 174 1.81 179 1.94 180 1.94 199 1.95 200 1.95  80 2.96  60 2.96
  51  0.250  0.875  0.192- 162 1.95 182 1.95 181 1.95 161 1.95 103 1.98 184 1.98  41 2.96  61 2.96

  52  0.500  0.000  0.192- 183 1.95 184 1.95 203 1.95 204 1.95 185 1.98  62 2.96  42 2.96
  53  0.500  0.875  0.322- 165 1.95 185 1.95 166 1.95 186 1.95 187 1.98 188 1.98  43 2.96  63 2.96

  54  0.250  0.000  0.322- 108 1.95 128 1.95 187 1.95 207 1.95 189 1.98 182 1.98  44 2.96  64 2.96

  55  0.250  0.875  0.452- 170 1.95 190 1.95 189 1.95 169 1.95 111 1.98 192 1.98  45 2.96  65 2.96

  56  0.500  0.000  0.452- 191 1.95 192 1.95 211 1.95 212 1.95 186 1.98 193 1.99  46 2.96  66 2.96

  57  0.500  0.875  0.579- 173 1.89 193 1.90 195 1.95 196 1.95 174 2.01 194 2.02  47 2.96  67 2.96

  58  0.250  1.000  0.587- 197 1.86 195 1.97 215 1.97 116 1.97 136 1.97 190 2.11  48 2.96  68 2.96

  59  0.250  0.875  0.721- 198 1.83 178 1.83 200 2.03 119 2.03 197 2.10 177 2.10  49 2.96  69 2.96

  60  0.500  1.000  0.706- 194 1.81 200 1.95 219 1.95 220 1.95 199 1.95  50 2.96  70 2.96
  61  0.250  0.125  0.192- 182 1.95 202 1.95 201 1.95 181 1.95 123 1.98 204 1.98  51 2.96  71 2.96

  62  0.500  0.250  0.192- 203 1.95 204 1.95 223 1.95 224 1.95 205 1.98  72 2.96  52 2.96
  63  0.500  0.125  0.322- 185 1.95 205 1.95 186 1.95 206 1.95 207 1.98 208 1.98  53 2.96  73 2.96

  64  0.250  0.250  0.322- 128 1.95 148 1.95 207 1.95 227 1.95 209 1.98 202 1.98  54 2.96  74 2.96

  65  0.250  0.125  0.452- 190 1.95 210 1.95 209 1.95 189 1.95 131 1.98 212 1.98  55 2.96  75 2.96

  66  0.500  0.250  0.452- 211 1.95 212 1.95 231 1.95 232 1.95 206 1.98 213 2.00  56 2.96  76 2.96

  67  0.500  0.125  0.579- 213 1.89 193 1.90 215 1.95 216 1.95 214 2.01 194 2.02  77 2.96  57 2.96

  68  0.250  0.250  0.587- 217 1.86 215 1.97 235 1.97 156 1.97 136 1.97 210 2.11  58 2.96  78 2.96

  69  0.250  0.125  0.721- 198 1.83 218 1.83 220 2.03 139 2.03 197 2.10 217 2.10  79 2.96  59 2.96

  70  0.500  0.250  0.706- 214 1.81 240 1.94 239 1.94 220 1.95 219 1.95  80 2.96  60 2.96
  71  0.250  0.375  0.192- 202 1.95 222 1.95 221 1.95 201 1.95 143 1.98 224 1.98  41 2.96  61 2.96

  72  0.500  0.500  0.192- 163 1.95 164 1.95 223 1.95 224 1.95 225 1.98  62 2.96  42 2.96
  73  0.500  0.375  0.322- 205 1.95 225 1.95 206 1.95 226 1.95 227 1.98 228 1.98  43 2.96  63 2.96

  74  0.250  0.500  0.322-  88 1.95 148 1.95 167 1.95 227 1.95 222 1.98 229 1.98  44 2.96  64 2.96

  75  0.250  0.375  0.452- 210 1.95 230 1.95 229 1.95 209 1.95 151 1.98 232 1.98  45 2.96  65 2.96

  76  0.500  0.500  0.452- 171 1.95 172 1.95 231 1.95 232 1.95 226 1.98 233 2.00  46 2.96  66 2.96

  77  0.500  0.375  0.580- 233 1.90 213 1.90 236 1.95 235 1.95 214 2.01 234 2.02  47 2.95  67 2.96

  78  0.250  0.500  0.587- 237 1.86 175 1.97 235 1.97  96 1.97 156 1.97 230 2.11  48 2.96  68 2.96

  79  0.250  0.375  0.721- 218 1.83 238 1.84 240 2.03 159 2.03 217 2.10 237 2.10  69 2.96  49 2.96

  80  0.500  0.500  0.707- 234 1.82 239 1.95 180 1.95 179 1.95 240 1.95  70 2.96  50 2.96
  81  0.750  0.750  0.141-   1 1.95  11 1.95
  82  0.750  0.750  0.243-   1 1.95  11 1.95   4 1.98
  83  0.098  0.625  0.192-   2 1.95  32 1.95  41 1.98
  84  0.902  0.625  0.192-   2 1.95  32 1.95   1 1.98
  85  0.000  0.750  0.271-   3 1.95  13 1.95   2 1.98
  86  0.000  0.750  0.373-   3 1.95  13 1.95   6 1.98
  87  0.848  0.625  0.322-   4 1.95  34 1.95   3 1.98
  88  0.152  0.625  0.322-  44 1.95  74 1.95   3 1.98
  89  0.750  0.750  0.401-   5 1.95  15 1.95   4 1.98
  90  0.750  0.750  0.503-   5 1.95  15 1.95   8 2.11
  91  0.098  0.625  0.452-   6 1.95  36 1.95  45 1.98
  92  0.902  0.625  0.452-   6 1.95  36 1.95   5 1.98
  93  0.000  0.750  0.532-  17 1.90   7 1.90   6 2.00
  94  0.000  0.750  0.634-  10 1.81   7 2.02  17 2.02
  95  0.850  0.625  0.583-   7 1.95   8 1.97  38 1.97
  96  0.150  0.625  0.583-   7 1.95  48 1.97  78 1.97
  97  0.750  0.750  0.662-   8 1.86   9 2.10  19 2.10
  98  0.750  0.750  0.765-   9 1.83  19 1.83
  99  0.094  0.625  0.719-  40 1.95  10 1.95  49 2.03
 100  0.906  0.625  0.719-  40 1.95  10 1.95   9 2.03
 101  0.750  0.000  0.141-  11 1.95  21 1.95
 102  0.750  0.000  0.243-  11 1.95  21 1.95  14 1.98
 103  0.098  0.875  0.192-   2 1.95  12 1.95  51 1.98
 104  0.902  0.875  0.192-   2 1.95  12 1.95  11 1.98
 105  0.000  0.000  0.271-  13 1.95  23 1.95  12 1.98
 106  0.000  0.000  0.373-  13 1.95  23 1.95  16 1.98
 107  0.848  0.875  0.322-   4 1.95  14 1.95  13 1.98
 108  0.152  0.875  0.322-  44 1.95  54 1.95  13 1.98
 109  0.750  0.000  0.401-  15 1.95  25 1.95  14 1.98
 110  0.750  0.000  0.503-  15 1.95  25 1.95  18 2.11
 111  0.098  0.875  0.452-   6 1.95  16 1.95  55 1.98
 112  0.902  0.875  0.452-   6 1.95  16 1.95  15 1.98
 113  0.000  0.000  0.532-  27 1.89  17 1.89  16 2.00
 114  1.000  0.000  0.634-  20 1.81  27 2.02  17 2.02
 115  0.850  0.875  0.583-  17 1.95   8 1.97  18 1.97
 116  0.150  0.875  0.583-  17 1.95  48 1.97  58 1.97
 117  0.750  0.000  0.662-  18 1.86  19 2.10  29 2.10
 118  0.750  0.000  0.765-  19 1.83  29 1.83
 119  0.094  0.875  0.719-  10 1.95  20 1.95  59 2.03
 120  0.906  0.875  0.719-  10 1.95  20 1.95  19 2.03
 121  0.750  0.250  0.141-  21 1.95  31 1.95
 122  0.750  0.250  0.243-  21 1.95  31 1.95  24 1.98
 123  0.098  0.125  0.192-  12 1.95  22 1.95  61 1.98
 124  0.902  0.125  0.192-  12 1.95  22 1.95  21 1.98
 125  0.000  0.250  0.271-  23 1.95  33 1.95  22 1.98
 126  0.000  0.250  0.373-  23 1.95  33 1.95  26 1.98
 127  0.848  0.125  0.322-  14 1.95  24 1.95  23 1.98
 128  0.152  0.125  0.322-  54 1.95  64 1.95  23 1.98
 129  0.750  0.250  0.401-  25 1.95  35 1.95  24 1.98
 130  0.750  0.250  0.503-  25 1.95  35 1.95  28 2.11
 131  0.098  0.125  0.452-  16 1.95  26 1.95  65 1.98
 132  0.902  0.125  0.452-  16 1.95  26 1.95  25 1.98
 133  0.000  0.250  0.532-  27 1.90  37 1.90  26 2.00
 134  1.000  0.250  0.634-  30 1.81  37 2.02  27 2.02
 135  0.850  0.125  0.583-  27 1.95  28 1.97  18 1.97
 136  0.150  0.125  0.583-  27 1.95  68 1.97  58 1.97
 137  0.750  0.250  0.662-  28 1.86  39 2.10  29 2.10
 138  0.750  0.250  0.765-  39 1.83  29 1.83
 139  0.094  0.125  0.719-  30 1.95  20 1.95  69 2.03
 140  0.906  0.125  0.719-  30 1.95  20 1.95  29 2.03
 141  0.750  0.500  0.141-   1 1.95  31 1.95
 142  0.750  0.500  0.243-   1 1.95  31 1.95  34 1.98
 143  0.098  0.375  0.192-  22 1.95  32 1.95  71 1.98
 144  0.902  0.375  0.192-  22 1.95  32 1.95  31 1.98
 145  0.000  0.500  0.271-   3 1.95  33 1.95  32 1.98
 146  0.000  0.500  0.373-   3 1.95  33 1.95  36 1.98
 147  0.848  0.375  0.322-  24 1.95  34 1.95  33 1.98
 148  0.152  0.375  0.322-  64 1.95  74 1.95  33 1.98
 149  0.750  0.500  0.401-   5 1.95  35 1.95  34 1.98
 150  0.750  0.500  0.503-   5 1.95  35 1.95  38 2.11
 151  0.098  0.375  0.452-  26 1.95  36 1.95  75 1.98
 152  0.902  0.375  0.452-  26 1.95  36 1.95  35 1.98
 153  0.000  0.500  0.532-  37 1.90   7 1.90  36 2.00
 154  0.000  0.500  0.634-  40 1.81  37 2.02   7 2.02
 155  0.850  0.375  0.583-  37 1.95  28 1.97  38 1.97
 156  0.150  0.375  0.583-  37 1.95  68 1.97  78 1.97
 157  0.751  0.500  0.662-  38 1.86   9 2.10  39 2.10
 158  0.749  0.500  0.765-  39 1.83   9 1.84
 159  0.094  0.375  0.719-  40 1.95  30 1.95  79 2.03
 160  0.906  0.375  0.719-  40 1.95  30 1.95  39 2.03
 161  0.250  0.750  0.141-  41 1.95  51 1.95
 162  0.250  0.750  0.243-  41 1.95  51 1.95  44 1.98
 163  0.598  0.625  0.192-  42 1.95  72 1.95   1 1.98
 164  0.402  0.625  0.192-  42 1.95  72 1.95  41 1.98
 165  0.500  0.750  0.271-  43 1.95  53 1.95  42 1.98
 166  0.500  0.750  0.373-  43 1.95  53 1.95  46 1.98
 167  0.348  0.625  0.322-  44 1.95  74 1.95  43 1.98
 168  0.652  0.625  0.322-   4 1.95  34 1.95  43 1.98
 169  0.250  0.750  0.401-  45 1.95  55 1.95  44 1.98
 170  0.250  0.750  0.503-  45 1.95  55 1.95  48 2.11
 171  0.598  0.625  0.452-  46 1.95  76 1.95   5 1.98
 172  0.402  0.625  0.452-  46 1.95  76 1.95  45 1.98
 173  0.500  0.750  0.532-  57 1.89  47 1.90  46 2.00
 174  0.500  0.750  0.634-  50 1.81  57 2.01  47 2.01
 175  0.350  0.625  0.583-  47 1.95  78 1.97  48 1.97
 176  0.650  0.625  0.583-  47 1.95  38 1.97   8 1.97
 177  0.250  0.750  0.662-  48 1.86  49 2.10  59 2.10
 178  0.250  0.750  0.765-  49 1.83  59 1.83
 179  0.594  0.626  0.719-  50 1.94  80 1.95   9 2.03
 180  0.406  0.626  0.719-  50 1.94  80 1.95  49 2.03
 181  0.250  0.000  0.141-  51 1.95  61 1.95
 182  0.250  0.000  0.243-  51 1.95  61 1.95  54 1.98
 183  0.598  0.875  0.192-  42 1.95  52 1.95  11 1.98
 184  0.402  0.875  0.192-  42 1.95  52 1.95  51 1.98
 185  0.500  0.000  0.271-  53 1.95  63 1.95  52 1.98
 186  0.500  0.000  0.373-  53 1.95  63 1.95  56 1.98
 187  0.348  0.875  0.322-  44 1.95  54 1.95  53 1.98
 188  0.652  0.875  0.322-   4 1.95  14 1.95  53 1.98
 189  0.250  0.000  0.401-  55 1.95  65 1.95  54 1.98
 190  0.250  0.000  0.503-  55 1.95  65 1.95  58 2.11
 191  0.598  0.875  0.452-  46 1.95  56 1.95  15 1.98
 192  0.402  0.875  0.452-  46 1.95  56 1.95  55 1.98
 193  0.500  0.000  0.532-  57 1.90  67 1.90  56 1.99
 194  0.500  0.000  0.634-  60 1.81  67 2.02  57 2.02
 195  0.350  0.875  0.583-  57 1.95  58 1.97  48 1.97
 196  0.650  0.875  0.583-  57 1.95  18 1.97   8 1.97
 197  0.250  0.000  0.662-  58 1.86  69 2.10  59 2.10
 198  0.250  1.000  0.765-  69 1.83  59 1.83
 199  0.594  0.875  0.719-  60 1.95  50 1.95  19 2.03
 200  0.406  0.875  0.719-  60 1.95  50 1.95  59 2.03
 201  0.250  0.250  0.141-  61 1.95  71 1.95
 202  0.250  0.250  0.243-  61 1.95  71 1.95  64 1.98
 203  0.598  0.125  0.192-  52 1.95  62 1.95  21 1.98
 204  0.402  0.125  0.192-  52 1.95  62 1.95  61 1.98
 205  0.500  0.250  0.271-  63 1.95  73 1.95  62 1.98
 206  0.500  0.250  0.373-  63 1.95  73 1.95  66 1.98
 207  0.348  0.125  0.322-  54 1.95  64 1.95  63 1.98
 208  0.652  0.125  0.322-  14 1.95  24 1.95  63 1.98
 209  0.250  0.250  0.401-  65 1.95  75 1.95  64 1.98
 210  0.250  0.250  0.503-  65 1.95  75 1.95  68 2.11
 211  0.598  0.125  0.452-  56 1.95  66 1.95  25 1.98
 212  0.402  0.125  0.452-  56 1.95  66 1.95  65 1.98
 213  0.500  0.250  0.532-  67 1.89  77 1.90  66 2.00
 214  0.500  0.250  0.634-  70 1.81  67 2.01  77 2.01
 215  0.350  0.125  0.583-  67 1.95  58 1.97  68 1.97
 216  0.650  0.125  0.583-  67 1.95  18 1.97  28 1.97
 217  0.250  0.250  0.662-  68 1.86  79 2.10  69 2.10
 218  0.250  0.250  0.765-  79 1.83  69 1.83
 219  0.594  0.125  0.719-  60 1.95  70 1.95  29 2.03
 220  0.406  0.125  0.719-  60 1.95  70 1.95  69 2.03
 221  0.250  0.500  0.141-  41 1.95  71 1.95
 222  0.250  0.500  0.243-  41 1.95  71 1.95  74 1.98
 223  0.598  0.375  0.192-  62 1.95  72 1.95  31 1.98
 224  0.402  0.375  0.192-  62 1.95  72 1.95  71 1.98
 225  0.500  0.500  0.271-  43 1.95  73 1.95  72 1.98
 226  0.500  0.500  0.373-  43 1.95  73 1.95  76 1.98
 227  0.348  0.375  0.322-  64 1.95  74 1.95  73 1.98
 228  0.652  0.375  0.322-  24 1.95  34 1.95  73 1.98
 229  0.250  0.500  0.401-  45 1.95  75 1.95  74 1.98
 230  0.250  0.500  0.503-  45 1.95  75 1.95  78 2.11
 231  0.598  0.375  0.452-  66 1.95  76 1.95  35 1.98
 232  0.402  0.375  0.452-  66 1.95  76 1.95  75 1.98
 233  0.500  0.500  0.532-  47 1.90  77 1.90  76 2.00
 234  0.500  0.500  0.635-  80 1.82  77 2.02  47 2.02
 235  0.350  0.375  0.583-  77 1.95  78 1.97  68 1.97
 236  0.650  0.375  0.583-  77 1.95  38 1.97  28 1.97
 237  0.249  0.500  0.662-  78 1.86  79 2.10  49 2.10
 238  0.251  0.500  0.765-  49 1.83  79 1.84
 239  0.594  0.374  0.719-  70 1.94  80 1.95  39 2.03
 240  0.406  0.374  0.719-  70 1.94  80 1.95  79 2.03
 

IMPORTANT INFORMATION: All symmetrisations will be switched off!
NOSYMM: (Re-)initialisation of all symmetry stuff for point group C_1.


----------------------------------------------------------------------------------------

                                     Primitive cell                                     

  volume of cell :    3846.0501

  direct lattice vectors                    reciprocal lattice vectors
    13.003980404  0.000000000  0.000000000     0.076899531  0.000000000  0.000000000
     0.000000000 11.830378115  0.000000000     0.000000000  0.084528152  0.000000000
     0.000000000  0.000000000 25.000000000     0.000000000  0.000000000  0.040000000

  length of vectors
    13.003980404 11.830378115 25.000000000     0.076899531  0.084528152  0.040000000

  position of ions in fractional coordinates (direct lattice)
     0.750000008  0.625000007  0.191872994
     0.000000008  0.750000007  0.191872994
     0.000000008  0.625000007  0.321912798
     0.750000008  0.750000007  0.321912798
     0.750000008  0.625000007  0.451952602
     0.000000008  0.750000007  0.451952602
     0.999998729  0.625016586  0.579214663
     0.750021378  0.750038300  0.587267412
     0.750117211  0.625133254  0.721168073
     0.000025095  0.750082334  0.706350679
     0.750000008  0.875000007  0.191872994
     0.000000008  0.000000007  0.191872994
     0.000000008  0.875000007  0.321912798
     0.750000008  0.000000007  0.321912798
     0.750000008  0.875000007  0.451952602
     0.000000008  0.000000007  0.451952602
     0.999995895  0.875019834  0.579234708
     0.749960162  0.000003641  0.587339263
     0.749868689  0.875032817  0.721416409
     0.999999847  0.999999993  0.706360792
     0.750000008  0.125000007  0.191872994
     0.000000008  0.250000007  0.191872994
     0.000000008  0.125000007  0.321912798
     0.750000008  0.250000007  0.321912798
     0.750000008  0.125000007  0.451952602
     0.000000008  0.250000007  0.451952602
     0.000004299  0.124980173  0.579234710
     0.750020916  0.249964339  0.587281564
     0.749849713  0.124984901  0.721421855
     0.999975965  0.249917711  0.706350689
     0.750000008  0.375000007  0.191872994
     0.000000008  0.500000007  0.191872994
     0.000000008  0.375000007  0.321912798
     0.750000008  0.500000007  0.321912798
     0.750000008  0.375000007  0.451952602
     0.000000008  0.500000007  0.451952602
     0.000001195  0.374983469  0.579214669
     0.750045966  0.499996875  0.587270533
     0.750061553  0.374909750  0.721212007
     0.000000696  0.500000012  0.706329162
     0.250000008  0.625000007  0.191872994
     0.500000008  0.750000007  0.191872994
     0.500000008  0.625000007  0.321912798
     0.250000008  0.750000007  0.321912798
     0.250000008  0.625000007  0.451952602
     0.500000008  0.750000007  0.451952602
     0.499999026  0.624688363  0.579585883
     0.249979194  0.750035526  0.587281864
     0.249940088  0.625089729  0.721213004
     0.500006830  0.749974620  0.706192418
     0.250000008  0.875000007  0.191872994
     0.500000008  0.000000007  0.191872994
     0.500000008  0.875000007  0.321912798
     0.250000008  0.000000007  0.321912798
     0.250000008  0.875000007  0.451952602
     0.500000008  0.000000007  0.451952602
     0.499998066  0.874845901  0.579050210
     0.250039839  0.999996499  0.587339287
     0.250150325  0.875015080  0.721421862
     0.500000028  0.999999944  0.706173444
     0.250000008  0.125000007  0.191872994
     0.500000008  0.250000007  0.191872994
     0.500000008  0.125000007  0.321912798
     0.250000008  0.250000007  0.321912798
     0.250000008  0.125000007  0.451952602
     0.500000008  0.250000007  0.451952602
     0.500001737  0.125154234  0.579050257
     0.249978783  0.249961984  0.587267726
     0.250131388  0.124967217  0.721416469
     0.499993201  0.250025408  0.706192563
     0.250000008  0.375000007  0.191872994
     0.500000008  0.500000007  0.191872994
     0.500000008  0.375000007  0.321912798
     0.250000008  0.500000007  0.321912798
     0.250000008  0.375000007  0.451952602
     0.500000008  0.500000007  0.451952602
     0.500000918  0.375311596  0.579585972
     0.249954079  0.500003196  0.587271024
     0.249884573  0.374867360  0.721169165
     0.500001922  0.500000009  0.707294499
     0.750000008  0.750000007  0.140897626
     0.750000008  0.750000007  0.242848363
     0.097999556  0.625000007  0.191872994
     0.902000459  0.625000007  0.191872994
     0.000000008  0.750000007  0.270937430
     0.000000008  0.750000007  0.372888167
     0.847999556  0.625000007  0.321912798
     0.152000459  0.625000007  0.321912798
     0.750000008  0.750000007  0.400977234
     0.750000008  0.750000007  0.502927971
     0.097999556  0.625000007  0.451952602
     0.902000459  0.625000007  0.451952602
     0.000000081  0.750035785  0.531821701
     0.000005441  0.749997493  0.634079048
     0.850228265  0.625045097  0.582822766
     0.149773595  0.625050786  0.582824216
     0.750332080  0.750163017  0.661697893
     0.749830986  0.749842022  0.764676835
     0.094080910  0.624949345  0.719366992
     0.905939040  0.624963094  0.719353467
     0.750000008  0.000000007  0.140897626
     0.750000008  0.000000007  0.242848363
     0.097999556  0.875000007  0.191872994
     0.902000459  0.875000007  0.191872994
     0.000000008  0.000000007  0.270937430
     0.000000008  0.000000007  0.372888167
     0.847999556  0.875000007  0.321912798
     0.152000459  0.875000007  0.321912798
     0.750000008  0.000000007  0.400977234
     0.750000008  0.000000007  0.502927971
     0.097999556  0.875000007  0.451952602
     0.902000459  0.875000007  0.451952602
     0.000000117  0.000000038  0.531823738
     0.999999992  0.000000042  0.634081080
     0.850220918  0.875055526  0.582862033
     0.149784608  0.875046525  0.582870806
     0.750004399  0.000000056  0.661770986
     0.750115215  0.000001705  0.764772131
     0.094082737  0.874979135  0.719317396
     0.905934085  0.874972603  0.719324243
     0.750000008  0.250000007  0.140897626
     0.750000008  0.250000007  0.242848363
     0.097999556  0.125000007  0.191872994
     0.902000459  0.125000007  0.191872994
     0.000000008  0.250000007  0.270937430
     0.000000008  0.250000007  0.372888167
     0.847999556  0.125000007  0.321912798
     0.152000459  0.125000007  0.321912798
     0.750000008  0.250000007  0.400977234
     0.750000008  0.250000007  0.502927971
     0.097999556  0.125000007  0.451952602
     0.902000459  0.125000007  0.451952602
     0.000000035  0.249964236  0.531821698
     0.999994858  0.250002533  0.634079070
     0.850215484  0.124953315  0.582870663
     0.149779178  0.124944749  0.582862175
     0.750274618  0.249872205  0.661713207
     0.749848595  0.250155222  0.764692964
     0.094066384  0.125027300  0.719324220
     0.905917719  0.125021095  0.719317510
     0.750000008  0.500000007  0.140897626
     0.750000008  0.500000007  0.242848363
     0.097999556  0.375000007  0.191872994
     0.902000459  0.375000007  0.191872994
     0.000000008  0.500000007  0.270937430
     0.000000008  0.500000007  0.372888167
     0.847999556  0.375000007  0.321912798
     0.152000459  0.375000007  0.321912798
     0.750000008  0.500000007  0.400977234
     0.750000008  0.500000007  0.502927971
     0.097999556  0.375000007  0.451952602
     0.902000459  0.375000007  0.451952602
     0.000000072  0.499999997  0.531817207
     0.000000135  0.500000003  0.634062999
     0.850226624  0.374949139  0.582823977
     0.149771902  0.374955031  0.582823016
     0.750509694  0.499976995  0.661658690
     0.749165422  0.500046853  0.764575842
     0.094062088  0.375037082  0.719353833
     0.905920182  0.375050455  0.719366711
     0.250000008  0.750000007  0.140897626
     0.250000008  0.750000007  0.242848363
     0.597999556  0.625000007  0.191872994
     0.402000459  0.625000007  0.191872994
     0.500000008  0.750000007  0.270937430
     0.500000008  0.750000007  0.372888167
     0.347999556  0.625000007  0.321912798
     0.652000459  0.625000007  0.321912798
     0.250000008  0.750000007  0.400977234
     0.250000008  0.750000007  0.502927971
     0.597999556  0.625000007  0.451952602
     0.402000459  0.625000007  0.451952602
     0.500001672  0.749667286  0.531851419
     0.499969575  0.750378840  0.633950406
     0.350128978  0.624994623  0.583004849
     0.649870242  0.625001848  0.583010946
     0.249726698  0.750127222  0.661713416
     0.250151528  0.749845254  0.764693222
     0.594363037  0.625612846  0.718604686
     0.405713877  0.625567039  0.718732889
     0.250000008  0.000000007  0.140897626
     0.250000008  0.000000007  0.242848363
     0.597999556  0.875000007  0.191872994
     0.402000459  0.875000007  0.191872994
     0.500000008  0.000000007  0.270937430
     0.500000008  0.000000007  0.372888167
     0.347999556  0.875000007  0.321912798
     0.652000459  0.875000007  0.321912798
     0.250000008  0.000000007  0.400977234
     0.250000008  0.000000007  0.502927971
     0.597999556  0.875000007  0.451952602
     0.402000459  0.875000007  0.451952602
     0.499999999  0.000000077  0.531733509
     0.500000032  0.000000097  0.633925526
     0.350120778  0.875009036  0.582829621
     0.649875171  0.875004836  0.582831717
     0.249995645  0.000000053  0.661770939
     0.249885075  0.999998228  0.764772111
     0.594101413  0.875112363  0.719283300
     0.405897640  0.875127567  0.719286048
     0.250000008  0.250000007  0.140897626
     0.250000008  0.250000007  0.242848363
     0.597999556  0.125000007  0.191872994
     0.402000459  0.125000007  0.191872994
     0.500000008  0.250000007  0.270937430
     0.500000008  0.250000007  0.372888167
     0.347999556  0.125000007  0.321912798
     0.652000459  0.125000007  0.321912798
     0.250000008  0.250000007  0.400977234
     0.250000008  0.250000007  0.502927971
     0.597999556  0.125000007  0.451952602
     0.402000459  0.125000007  0.451952602
     0.499998319  0.250332724  0.531851496
     0.500029478  0.249621256  0.633950541
     0.350124784  0.124995189  0.582831701
     0.649879277  0.124991128  0.582829661
     0.249669332  0.249837633  0.661698227
     0.250169233  0.250157531  0.764677227
     0.594102670  0.124872605  0.719286194
     0.405898833  0.124887410  0.719283372
     0.250000008  0.500000007  0.140897626
     0.250000008  0.500000007  0.242848363
     0.597999556  0.375000007  0.191872994
     0.402000459  0.375000007  0.191872994
     0.500000008  0.500000007  0.270937430
     0.500000008  0.500000007  0.372888167
     0.347999556  0.375000007  0.321912798
     0.652000459  0.375000007  0.321912798
     0.250000008  0.500000007  0.400977234
     0.250000008  0.500000007  0.502927971
     0.597999556  0.375000007  0.451952602
     0.402000459  0.375000007  0.451952602
     0.500000027  0.499999986  0.531992589
     0.499999664  0.499999904  0.634551824
     0.350129653  0.374998367  0.583010966
     0.649871023  0.375005165  0.583004884
     0.249491381  0.500022894  0.661659386
     0.250837252  0.499953280  0.764576970
     0.594288600  0.374432078  0.718730996
     0.405639342  0.374387984  0.718606848

  ion indices of the primitive-cell ions
   primitive index   ion index
                 1           1
                 2           2
                 3           3
                 4           4
                 5           5
                 6           6
                 7           7
                 8           8
                 9           9
                10          10
                11          11
                12          12
                13          13
                14          14
                15          15
                16          16
                17          17
                18          18
                19          19
                20          20
                21          21
                22          22
                23          23
                24          24
                25          25
                26          26
                27          27
                28          28
                29          29
                30          30
                31          31
                32          32
                33          33
                34          34
                35          35
                36          36
                37          37
                38          38
                39          39
                40          40
                41          41
                42          42
                43          43
                44          44
                45          45
                46          46
                47          47
                48          48
                49          49
                50          50
                51          51
                52          52
                53          53
                54          54
                55          55
                56          56
                57          57
                58          58
                59          59
                60          60
                61          61
                62          62
                63          63
                64          64
                65          65
                66          66
                67          67
                68          68
                69          69
                70          70
                71          71
                72          72
                73          73
                74          74
                75          75
                76          76
                77          77
                78          78
                79          79
                80          80
                81          81
                82          82
                83          83
                84          84
                85          85
                86          86
                87          87
                88          88
                89          89
                90          90
                91          91
                92          92
                93          93
                94          94
                95          95
                96          96
                97          97
                98          98
                99          99
               100         100
               101         101
               102         102
               103         103
               104         104
               105         105
               106         106
               107         107
               108         108
               109         109
               110         110
               111         111
               112         112
               113         113
               114         114
               115         115
               116         116
               117         117
               118         118
               119         119
               120         120
               121         121
               122         122
               123         123
               124         124
               125         125
               126         126
               127         127
               128         128
               129         129
               130         130
               131         131
               132         132
               133         133
               134         134
               135         135
               136         136
               137         137
               138         138
               139         139
               140         140
               141         141
               142         142
               143         143
               144         144
               145         145
               146         146
               147         147
               148         148
               149         149
               150         150
               151         151
               152         152
               153         153
               154         154
               155         155
               156         156
               157         157
               158         158
               159         159
               160         160
               161         161
               162         162
               163         163
               164         164
               165         165
               166         166
               167         167
               168         168
               169         169
               170         170
               171         171
               172         172
               173         173
               174         174
               175         175
               176         176
               177         177
               178         178
               179         179
               180         180
               181         181
               182         182
               183         183
               184         184
               185         185
               186         186
               187         187
               188         188
               189         189
               190         190
               191         191
               192         192
               193         193
               194         194
               195         195
               196         196
               197         197
               198         198
               199         199
               200         200
               201         201
               202         202
               203         203
               204         204
               205         205
               206         206
               207         207
               208         208
               209         209
               210         210
               211         211
               212         212
               213         213
               214         214
               215         215
               216         216
               217         217
               218         218
               219         219
               220         220
               221         221
               222         222
               223         223
               224         224
               225         225
               226         226
               227         227
               228         228
               229         229
               230         230
               231         231
               232         232
               233         233
               234         234
               235         235
               236         236
               237         237
               238         238
               239         239
               240         240

----------------------------------------------------------------------------------------

 
 
 KPOINTS: pymatgen v2020.8.13 with grid density = 

Automatic generation of k-mesh.
 Grid dimensions read from file:
 generate k-points for:    2    2    1

 Generating k-lattice:

  Cartesian coordinates                     Fractional coordinates (reciprocal lattice)
     0.038449766  0.000000000  0.000000000     0.500000000  0.000000000  0.000000000
     0.000000000  0.042264076  0.000000000     0.000000000  0.500000000  0.000000000
     0.000000000  0.000000000  0.040000000     0.000000000  0.000000000  1.000000000

  Length of vectors
     0.038449766  0.042264076  0.040000000

  Shift w.r.t. Gamma in fractional coordinates (k-lattice)
     0.000000000  0.000000000  0.000000000

 
 Subroutine IBZKPT returns following result:
 ===========================================
 
 Found      4 irreducible k-points:
 
 Following reciprocal coordinates:
            Coordinates               Weight
  0.000000  0.000000  0.000000      1.000000
  0.500000  0.000000  0.000000      1.000000
  0.000000  0.500000  0.000000      1.000000
  0.500000  0.500000  0.000000      1.000000
 
 Following cartesian coordinates:
            Coordinates               Weight
  0.000000  0.000000  0.000000      1.000000
  0.038450  0.000000  0.000000      1.000000
  0.000000  0.042264  0.000000      1.000000
  0.038450  0.042264  0.000000      1.000000
 


--------------------------------------------------------------------------------------------------------




 Dimension of arrays:
   k-points           NKPTS =      4   k-points in BZ     NKDIM =      4   number of bands    NBANDS=   1056
   number of dos      NEDOS =    301   number of ions     NIONS =    240
   non local maximal  LDIM  =      6   non local SUM 2l+1 LMDIM =     18
   total plane-waves  NPLWV = 784000
   max r-space proj   IRMAX =   2630   max aug-charges    IRDMAX=   8113
   dimension x,y,z NGX =    80 NGY =   70 NGZ =  140
   dimension x,y,z NGXF=   160 NGYF=  140 NGZF=  280
   support grid    NGXF=   160 NGYF=  140 NGZF=  280
   ions per type =              80 160
   NGX,Y,Z   is equivalent  to a cutoff of  10.23,  9.84,  9.31 a.u.
   NGXF,Y,Z  is equivalent  to a cutoff of  20.45, 19.67, 18.62 a.u.

 SYSTEM =  Oxide-Surface                           
 POSCAR =  Ti  O                                   

--------------------------------------------------------------------------------------------------------


  energy-cutoff  :      520.00
  volume of cell :     3846.05
      direct lattice vectors                 reciprocal lattice vectors
    13.003980404  0.000000000  0.000000000     0.076899531  0.000000000  0.000000000
     0.000000000 11.830378115  0.000000000     0.000000000  0.084528152  0.000000000
     0.000000000  0.000000000 25.000000000     0.000000000  0.000000000  0.040000000

  length of vectors
    13.003980404 11.830378115 25.000000000     0.076899531  0.084528152  0.040000000


 
 k-points in units of 2pi/SCALE and weight: pymatgen v2020.8.13 with grid density = 
   0.00000000  0.00000000  0.00000000       0.250
   0.03844977  0.00000000  0.00000000       0.250
   0.00000000  0.04226408  0.00000000       0.250
   0.03844977  0.04226408  0.00000000       0.250
 
 k-points in reciprocal lattice and weights: pymatgen v2020.8.13 with grid density = 
   0.00000000  0.00000000  0.00000000       0.250
   0.50000000  0.00000000  0.00000000       0.250
   0.00000000  0.50000000  0.00000000       0.250
   0.50000000  0.50000000  0.00000000       0.250
 
 position of ions in fractional coordinates (direct lattice) 
   0.75000001  0.62500001  0.19187299
   0.00000001  0.75000001  0.19187299
   0.00000001  0.62500001  0.32191280
   0.75000001  0.75000001  0.32191280
   0.75000001  0.62500001  0.45195260
   0.00000001  0.75000001  0.45195260
   0.99999873  0.62501659  0.57921466
   0.75002138  0.75003830  0.58726741
   0.75011721  0.62513325  0.72116807
   0.00002510  0.75008233  0.70635068
   0.75000001  0.87500001  0.19187299
   0.00000001  0.00000001  0.19187299
   0.00000001  0.87500001  0.32191280
   0.75000001  0.00000001  0.32191280
   0.75000001  0.87500001  0.45195260
   0.00000001  0.00000001  0.45195260
   0.99999590  0.87501983  0.57923471
   0.74996016  0.00000364  0.58733926
   0.74986869  0.87503282  0.72141641
   0.99999985  0.99999999  0.70636079
   0.75000001  0.12500001  0.19187299
   0.00000001  0.25000001  0.19187299
   0.00000001  0.12500001  0.32191280
   0.75000001  0.25000001  0.32191280
   0.75000001  0.12500001  0.45195260
   0.00000001  0.25000001  0.45195260
   0.00000430  0.12498017  0.57923471
   0.75002092  0.24996434  0.58728156
   0.74984971  0.12498490  0.72142186
   0.99997596  0.24991771  0.70635069
   0.75000001  0.37500001  0.19187299
   0.00000001  0.50000001  0.19187299
   0.00000001  0.37500001  0.32191280
   0.75000001  0.50000001  0.32191280
   0.75000001  0.37500001  0.45195260
   0.00000001  0.50000001  0.45195260
   0.00000120  0.37498347  0.57921467
   0.75004597  0.49999688  0.58727053
   0.75006155  0.37490975  0.72121201
   0.00000070  0.50000001  0.70632916
   0.25000001  0.62500001  0.19187299
   0.50000001  0.75000001  0.19187299
   0.50000001  0.62500001  0.32191280
   0.25000001  0.75000001  0.32191280
   0.25000001  0.62500001  0.45195260
   0.50000001  0.75000001  0.45195260
   0.49999903  0.62468836  0.57958588
   0.24997919  0.75003553  0.58728186
   0.24994009  0.62508973  0.72121300
   0.50000683  0.74997462  0.70619242
   0.25000001  0.87500001  0.19187299
   0.50000001  0.00000001  0.19187299
   0.50000001  0.87500001  0.32191280
   0.25000001  0.00000001  0.32191280
   0.25000001  0.87500001  0.45195260
   0.50000001  0.00000001  0.45195260
   0.49999807  0.87484590  0.57905021
   0.25003984  0.99999650  0.58733929
   0.25015032  0.87501508  0.72142186
   0.50000003  0.99999994  0.70617344
   0.25000001  0.12500001  0.19187299
   0.50000001  0.25000001  0.19187299
   0.50000001  0.12500001  0.32191280
   0.25000001  0.25000001  0.32191280
   0.25000001  0.12500001  0.45195260
   0.50000001  0.25000001  0.45195260
   0.50000174  0.12515423  0.57905026
   0.24997878  0.24996198  0.58726773
   0.25013139  0.12496722  0.72141647
   0.49999320  0.25002541  0.70619256
   0.25000001  0.37500001  0.19187299
   0.50000001  0.50000001  0.19187299
   0.50000001  0.37500001  0.32191280
   0.25000001  0.50000001  0.32191280
   0.25000001  0.37500001  0.45195260
   0.50000001  0.50000001  0.45195260
   0.50000092  0.37531160  0.57958597
   0.24995408  0.50000320  0.58727102
   0.24988457  0.37486736  0.72116916
   0.50000192  0.50000001  0.70729450
   0.75000001  0.75000001  0.14089763
   0.75000001  0.75000001  0.24284836
   0.09799956  0.62500001  0.19187299
   0.90200046  0.62500001  0.19187299
   0.00000001  0.75000001  0.27093743
   0.00000001  0.75000001  0.37288817
   0.84799956  0.62500001  0.32191280
   0.15200046  0.62500001  0.32191280
   0.75000001  0.75000001  0.40097723
   0.75000001  0.75000001  0.50292797
   0.09799956  0.62500001  0.45195260
   0.90200046  0.62500001  0.45195260
   0.00000008  0.75003579  0.53182170
   0.00000544  0.74999749  0.63407905
   0.85022827  0.62504510  0.58282277
   0.14977359  0.62505079  0.58282422
   0.75033208  0.75016302  0.66169789
   0.74983099  0.74984202  0.76467684
   0.09408091  0.62494935  0.71936699
   0.90593904  0.62496309  0.71935347
   0.75000001  0.00000001  0.14089763
   0.75000001  0.00000001  0.24284836
   0.09799956  0.87500001  0.19187299
   0.90200046  0.87500001  0.19187299
   0.00000001  0.00000001  0.27093743
   0.00000001  0.00000001  0.37288817
   0.84799956  0.87500001  0.32191280
   0.15200046  0.87500001  0.32191280
   0.75000001  0.00000001  0.40097723
   0.75000001  0.00000001  0.50292797
   0.09799956  0.87500001  0.45195260
   0.90200046  0.87500001  0.45195260
   0.00000012  0.00000004  0.53182374
   0.99999999  0.00000004  0.63408108
   0.85022092  0.87505553  0.58286203
   0.14978461  0.87504653  0.58287081
   0.75000440  0.00000006  0.66177099
   0.75011522  0.00000170  0.76477213
   0.09408274  0.87497914  0.71931740
   0.90593409  0.87497260  0.71932424
   0.75000001  0.25000001  0.14089763
   0.75000001  0.25000001  0.24284836
   0.09799956  0.12500001  0.19187299
   0.90200046  0.12500001  0.19187299
   0.00000001  0.25000001  0.27093743
   0.00000001  0.25000001  0.37288817
   0.84799956  0.12500001  0.32191280
   0.15200046  0.12500001  0.32191280
   0.75000001  0.25000001  0.40097723
   0.75000001  0.25000001  0.50292797
   0.09799956  0.12500001  0.45195260
   0.90200046  0.12500001  0.45195260
   0.00000004  0.24996424  0.53182170
   0.99999486  0.25000253  0.63407907
   0.85021548  0.12495331  0.58287066
   0.14977918  0.12494475  0.58286218
   0.75027462  0.24987220  0.66171321
   0.74984860  0.25015522  0.76469296
   0.09406638  0.12502730  0.71932422
   0.90591772  0.12502109  0.71931751
   0.75000001  0.50000001  0.14089763
   0.75000001  0.50000001  0.24284836
   0.09799956  0.37500001  0.19187299
   0.90200046  0.37500001  0.19187299
   0.00000001  0.50000001  0.27093743
   0.00000001  0.50000001  0.37288817
   0.84799956  0.37500001  0.32191280
   0.15200046  0.37500001  0.32191280
   0.75000001  0.50000001  0.40097723
   0.75000001  0.50000001  0.50292797
   0.09799956  0.37500001  0.45195260
   0.90200046  0.37500001  0.45195260
   0.00000007  0.50000000  0.53181721
   0.00000014  0.50000000  0.63406300
   0.85022662  0.37494914  0.58282398
   0.14977190  0.37495503  0.58282302
   0.75050969  0.49997699  0.66165869
   0.74916542  0.50004685  0.76457584
   0.09406209  0.37503708  0.71935383
   0.90592018  0.37505045  0.71936671
   0.25000001  0.75000001  0.14089763
   0.25000001  0.75000001  0.24284836
   0.59799956  0.62500001  0.19187299
   0.40200046  0.62500001  0.19187299
   0.50000001  0.75000001  0.27093743
   0.50000001  0.75000001  0.37288817
   0.34799956  0.62500001  0.32191280
   0.65200046  0.62500001  0.32191280
   0.25000001  0.75000001  0.40097723
   0.25000001  0.75000001  0.50292797
   0.59799956  0.62500001  0.45195260
   0.40200046  0.62500001  0.45195260
   0.50000167  0.74966729  0.53185142
   0.49996957  0.75037884  0.63395041
   0.35012898  0.62499462  0.58300485
   0.64987024  0.62500185  0.58301095
   0.24972670  0.75012722  0.66171342
   0.25015153  0.74984525  0.76469322
   0.59436304  0.62561285  0.71860469
   0.40571388  0.62556704  0.71873289
   0.25000001  0.00000001  0.14089763
   0.25000001  0.00000001  0.24284836
   0.59799956  0.87500001  0.19187299
   0.40200046  0.87500001  0.19187299
   0.50000001  0.00000001  0.27093743
   0.50000001  0.00000001  0.37288817
   0.34799956  0.87500001  0.32191280
   0.65200046  0.87500001  0.32191280
   0.25000001  0.00000001  0.40097723
   0.25000001  0.00000001  0.50292797
   0.59799956  0.87500001  0.45195260
   0.40200046  0.87500001  0.45195260
   0.50000000  0.00000008  0.53173351
   0.50000003  0.00000010  0.63392553
   0.35012078  0.87500904  0.58282962
   0.64987517  0.87500484  0.58283172
   0.24999565  0.00000005  0.66177094
   0.24988508  0.99999823  0.76477211
   0.59410141  0.87511236  0.71928330
   0.40589764  0.87512757  0.71928605
   0.25000001  0.25000001  0.14089763
   0.25000001  0.25000001  0.24284836
   0.59799956  0.12500001  0.19187299
   0.40200046  0.12500001  0.19187299
   0.50000001  0.25000001  0.27093743
   0.50000001  0.25000001  0.37288817
   0.34799956  0.12500001  0.32191280
   0.65200046  0.12500001  0.32191280
   0.25000001  0.25000001  0.40097723
   0.25000001  0.25000001  0.50292797
   0.59799956  0.12500001  0.45195260
   0.40200046  0.12500001  0.45195260
   0.49999832  0.25033272  0.53185150
   0.50002948  0.24962126  0.63395054
   0.35012478  0.12499519  0.58283170
   0.64987928  0.12499113  0.58282966
   0.24966933  0.24983763  0.66169823
   0.25016923  0.25015753  0.76467723
   0.59410267  0.12487260  0.71928619
   0.40589883  0.12488741  0.71928337
   0.25000001  0.50000001  0.14089763
   0.25000001  0.50000001  0.24284836
   0.59799956  0.37500001  0.19187299
   0.40200046  0.37500001  0.19187299
   0.50000001  0.50000001  0.27093743
   0.50000001  0.50000001  0.37288817
   0.34799956  0.37500001  0.32191280
   0.65200046  0.37500001  0.32191280
   0.25000001  0.50000001  0.40097723
   0.25000001  0.50000001  0.50292797
   0.59799956  0.37500001  0.45195260
   0.40200046  0.37500001  0.45195260
   0.50000003  0.49999999  0.53199259
   0.49999966  0.49999990  0.63455182
   0.35012965  0.37499837  0.58301097
   0.64987102  0.37500517  0.58300488
   0.24949138  0.50002289  0.66165939
   0.25083725  0.49995328  0.76457697
   0.59428860  0.37443208  0.71873100
   0.40563934  0.37438798  0.71860685
 
 position of ions in cartesian coordinates  (Angst):
   9.75298540  7.39398640  4.79682486
   0.00000010  8.87278367  4.79682486
   0.00000010  7.39398640  8.04781996
   9.75298540  8.87278367  8.04781996
   9.75298540  7.39398640 11.29881506
   0.00000010  8.87278367 11.29881506
  13.00396388  7.39418254 14.48036659
   9.75326331  8.87323668 14.68168530
   9.75450951  7.39556276 18.02920182
   0.00032634  8.87375762 17.65876697
   9.75298540 10.35158093  4.79682486
   0.00000010  0.00000008  4.79682486
   0.00000010 10.35158093  8.04781996
   9.75298540  0.00000008  8.04781996
   9.75298540 10.35158093 11.29881506
   0.00000010  0.00000008 11.29881506
  13.00392702 10.35181549 14.48086770
   9.75246725  0.00004308 14.68348157
   9.75127773 10.35196909 18.03541024
  13.00397841 11.83037803 17.65901981
   9.75298540  1.47879735  4.79682486
   0.00000010  2.95759461  4.79682486
   0.00000010  1.47879735  8.04781996
   9.75298540  2.95759461  8.04781996
   9.75298540  1.47879735 11.29881506
   0.00000010  2.95759461 11.29881506
   0.00005590  1.47856270 14.48086775
   9.75325730  2.95717265 14.68203911
   9.75103097  1.47861864 18.03554639
  13.00366785  2.95662102 17.65876723
   9.75298540  4.43639188  4.79682486
   0.00000010  5.91518914  4.79682486
   0.00000010  4.43639188  8.04781996
   9.75298540  5.91518914  8.04781996
   9.75298540  4.43639188 11.29881506
   0.00000010  5.91518914 11.29881506
   0.00001554  4.43619623 14.48036673
   9.75358305  5.91515209 14.68176333
   9.75378574  4.43532411 18.03030018
   0.00000905  5.91518921 17.65822905
   3.25099520  7.39398640  4.79682486
   6.50199030  8.87278367  4.79682486
   6.50199030  7.39398640  8.04781996
   3.25099520  8.87278367  8.04781996
   3.25099520  7.39398640 11.29881506
   6.50199030  8.87278367 11.29881506
   6.50197753  7.39029954 14.48964708
   3.25072454  8.87320387 14.68204659
   3.25021601  7.39504785 18.03032510
   6.50207902  8.87248333 17.65481044
   3.25099520 10.35158093  4.79682486
   6.50199030  0.00000008  4.79682486
   6.50199030 10.35158093  8.04781996
   3.25099520  0.00000008  8.04781996
   3.25099520 10.35158093 11.29881506
   6.50199030  0.00000008 11.29881506
   6.50196506 10.34975780 14.47625525
   3.25151317 11.83033670 14.68348217
   3.25294992 10.35175925 18.03554656
   6.50199057 11.83037746 17.65433610
   3.25099520  1.47879735  4.79682486
   6.50199030  2.95759461  4.79682486
   6.50199030  1.47879735  8.04781996
   3.25099520  2.95759461  8.04781996
   3.25099520  1.47879735 11.29881506
   6.50199030  2.95759461 11.29881506
   6.50201279  1.48062191 14.47625642
   3.25071919  2.95714478 14.68169315
   3.25270367  1.47840943 18.03541172
   6.50190179  2.95789512 17.65481408
   3.25099520  4.43639188  4.79682486
   6.50199030  5.91518914  4.79682486
   6.50199030  4.43639188  8.04781996
   3.25099520  5.91518914  8.04781996
   3.25099520  4.43639188 11.29881506
   6.50199030  5.91518914 11.29881506
   6.50200214  4.44007809 14.48964930
   3.25039795  5.91522686 14.68177561
   3.24949409  4.43482262 18.02922911
   6.50201520  5.91518917 17.68236247
   9.75298540  8.87278367  3.52244065
   9.75298540  8.87278367  6.07120906
   1.27438430  7.39398640  4.79682486
  11.72959630  7.39398640  4.79682486
   0.00000010  8.87278367  6.77343576
   0.00000010  8.87278367  9.32220417
  11.02736961  7.39398640  8.04781996
   1.97661100  7.39398640  8.04781996
   9.75298540  8.87278367 10.02443086
   9.75298540  8.87278367 12.57319927
   1.27438430  7.39398640 11.29881506
  11.72959630  7.39398640 11.29881506
   0.00000105  8.87320694 13.29554252
   0.00007076  8.87275393 15.85197621
  11.05635170  7.39451984 14.57056915
   1.94765289  7.39458714 14.57060541
   9.75730366  8.87471214 16.54244732
   9.75078744  8.87091464 19.11692088
   1.22342630  7.39338706 17.98417481
  11.78081352  7.39354971 17.98383667
   9.75298540  0.00000008  3.52244065
   9.75298540  0.00000008  6.07120906
   1.27438430 10.35158093  4.79682486
  11.72959630 10.35158093  4.79682486
   0.00000010  0.00000008  6.77343576
   0.00000010  0.00000008  9.32220417
  11.02736961 10.35158093  8.04781996
   1.97661100 10.35158093  8.04781996
   9.75298540  0.00000008 10.02443086
   9.75298540  0.00000008 12.57319927
   1.27438430 10.35158093 11.29881506
  11.72959630 10.35158093 11.29881506
   0.00000152  0.00000044 13.29559344
  13.00398030  0.00000050 15.85202699
  11.05625615 10.35223774 14.57155082
   1.94779611 10.35213126 14.57177014
   9.75304251  0.00000067 16.54427464
   9.75448356  0.00002017 19.11930328
   1.22345006 10.35133401 17.98293491
  11.78074909 10.35125673 17.98310607
   9.75298540  2.95759461  3.52244065
   9.75298540  2.95759461  6.07120906
   1.27438430  1.47879735  4.79682486
  11.72959630  1.47879735  4.79682486
   0.00000010  2.95759461  6.77343576
   0.00000010  2.95759461  9.32220417
  11.02736961  1.47879735  8.04781996
   1.97661100  1.47879735  8.04781996
   9.75298540  2.95759461 10.02443086
   9.75298540  2.95759461 12.57319927
   1.27438430  1.47879735 11.29881506
  11.72959630  1.47879735 11.29881506
   0.00000046  2.95717142 13.29554244
  13.00391353  2.95762449 15.85197676
  11.05618549  1.47824496 14.57176658
   1.94772550  1.47814362 14.57155439
   9.75655643  2.95608266 16.54283017
   9.75101644  2.95943087 19.11732411
   1.22323741  1.47912023 17.98310549
  11.78053626  1.47904682 17.98293776
   9.75298540  5.91518914  3.52244065
   9.75298540  5.91518914  6.07120906
   1.27438430  4.43639188  4.79682486
  11.72959630  4.43639188  4.79682486
   0.00000010  5.91518914  6.77343576
   0.00000010  5.91518914  9.32220417
  11.02736961  4.43639188  8.04781996
   1.97661100  4.43639188  8.04781996
   9.75298540  5.91518914 10.02443086
   9.75298540  5.91518914 12.57319927
   1.27438430  4.43639188 11.29881506
  11.72959630  4.43639188 11.29881506
   0.00000094  5.91518902 13.29543016
   0.00000176  5.91518909 15.85157497
  11.05633035  4.43579009 14.57059942
   1.94763087  4.43585979 14.57057540
   9.75961335  5.91491690 16.54146725
   9.74213247  5.91574335 19.11439606
   1.22318155  4.43683049 17.98384584
  11.78056829  4.43698869 17.98416777
   3.25099520  8.87278367  3.52244065
   3.25099520  8.87278367  6.07120906
   7.77637451  7.39398640  4.79682486
   5.22760610  7.39398640  4.79682486
   6.50199030  8.87278367  6.77343576
   6.50199030  8.87278367  9.32220417
   4.52537940  7.39398640  8.04781996
   8.47860120  7.39398640  8.04781996
   3.25099520  8.87278367 10.02443086
   3.25099520  8.87278367 12.57319927
   7.77637451  7.39398640 11.29881506
   5.22760610  7.39398640 11.29881506
   6.50201194  8.86884745 13.29628549
   6.50159455  8.87726541 15.84876016
   4.55307037  7.39392271 14.57512122
   8.45089989  7.39400818 14.57527365
   3.24744108  8.87428867 16.54283541
   3.25296557  8.87095288 19.11733055
   7.72908529  7.40123652 17.96511715
   5.27589530  7.40069461 17.96832223
   3.25099520  0.00000008  3.52244065
   3.25099520  0.00000008  6.07120906
   7.77637451 10.35158093  4.79682486
   5.22760610 10.35158093  4.79682486
   6.50199030  0.00000008  6.77343576
   6.50199030  0.00000008  9.32220417
   4.52537940 10.35158093  8.04781996
   8.47860120 10.35158093  8.04781996
   3.25099520  0.00000008 10.02443086
   3.25099520  0.00000008 12.57319927
   7.77637451 10.35158093 11.29881506
   5.22760610 10.35158093 11.29881506
   6.50199019  0.00000091 13.29333774
   6.50199062  0.00000114 15.84813815
   4.55296374 10.35168775 14.57074053
   8.45096398 10.35163807 14.57079292
   3.25093847  0.00000063 16.54427348
   3.24950062 11.83035715 19.11930278
   7.72568313 10.35291014 17.98208250
   5.27828496 10.35309002 17.98215120
   3.25099520  2.95759461  3.52244065
   3.25099520  2.95759461  6.07120906
   7.77637451  1.47879735  4.79682486
   5.22760610  1.47879735  4.79682486
   6.50199030  2.95759461  6.77343576
   6.50199030  2.95759461  9.32220417
   4.52537940  1.47879735  8.04781996
   8.47860120  1.47879735  8.04781996
   3.25099520  2.95759461 10.02443086
   3.25099520  2.95759461 12.57319927
   7.77637451  1.47879735 11.29881506
   5.22760610  1.47879735 11.29881506
   6.50196835  2.96153078 13.29628739
   6.50237353  2.95311384 15.84876352
   4.55301583  1.47874035 14.57079252
   8.45101738  1.47869231 14.57074152
   3.24669510  2.95567366 16.54245566
   3.25319581  2.95945818 19.11693066
   7.72569948  1.47729013 17.98215484
   5.27830046  1.47746528 17.98208430
   3.25099520  5.91518914  3.52244065
   3.25099520  5.91518914  6.07120906
   7.77637451  4.43639188  4.79682486
   5.22760610  4.43639188  4.79682486
   6.50199030  5.91518914  6.77343576
   6.50199030  5.91518914  9.32220417
   4.52537940  4.43639188  8.04781996
   8.47860120  4.43639188  8.04781996
   3.25099520  5.91518914 10.02443086
   3.25099520  5.91518914 12.57319927
   7.77637451  4.43639188 11.29881506
   5.22760610  4.43639188 11.29881506
   6.50199056  5.91518889 13.29981473
   6.50198583  5.91518792 15.86379560
   4.55307914  4.43637248 14.57527414
   8.45091005  4.43645290 14.57512211
   3.24438103  5.91545990 16.54148464
   3.26188271  5.91463635 19.11442426
   7.72811731  4.42967306 17.96827489
   5.27492605  4.42915141 17.96517120
 


--------------------------------------------------------------------------------------------------------

--------------------------------------- Iteration      FINAL  ---------------------------------------


--------------------OUTCAR has been truncated-------------------------


--------------------OUTCAR has been truncated-------------------------


--------------------OUTCAR has been truncated-------------------------


--------------------OUTCAR has been truncated-------------------------


--------------------OUTCAR has been truncated-------------------------


--------------------OUTCAR has been truncated-------------------------


--------------------OUTCAR has been truncated-------------------------


--------------------OUTCAR has been truncated-------------------------


--------------------OUTCAR has been truncated-------------------------


--------------------OUTCAR has been truncated-------------------------


    MIXING:  cpu time      0.0660: real time      0.0665
    OFIELD:  cpu time      0.0001: real time      0.0000

  FORCE on cell =-STRESS in cart. coord.  units (eV):
  Direction    XX          YY          ZZ          XY          YZ          ZX
  --------------------------------------------------------------------------------------
  Alpha Z  5687.94793  5687.94793  5687.94793
  Ewald  427394.97056445156.00814************    -0.19504    -0.00049     0.00743
  Hartree471202.06533480957.35389************    -0.07857    -0.00020     0.00277
  E(xc)   -8594.43421 -8576.31926 -8604.00118    -0.00032    -0.00000     0.00001
  Local  ************************945491.91057     0.27188     0.00069    -0.00989
  n-local -5401.49949 -5326.87316 -5448.29549    -0.00363    -0.00017     0.00008
  augment  5221.25348  5203.06062  5224.66712    -0.00116    -0.00000    -0.00002
  Kinetic 28611.91972 28140.79775 28662.23510     0.00288     0.00001    -0.00064
  Fock        0.00000     0.00000     0.00000     0.00000     0.00000     0.00000
  -------------------------------------------------------------------------------------
  Total      92.65295    41.43575    39.97647    -0.00396    -0.00017    -0.00026
  in kB      38.59712    17.26120    16.65329    -0.00165    -0.00007    -0.00011
  external pressure =       24.17 kB  Pullay stress =        0.00 kB


 VOLUME and BASIS-vectors are now :
 -----------------------------------------------------------------------------
  energy-cutoff  :      520.00
  volume of cell :     3846.05
      direct lattice vectors                 reciprocal lattice vectors
    13.003980404  0.000000000  0.000000000     0.076899531  0.000000000  0.000000000
     0.000000000 11.830378115  0.000000000     0.000000000  0.084528152  0.000000000
     0.000000000  0.000000000 25.000000000     0.000000000  0.000000000  0.040000000

  length of vectors
    13.003980404 11.830378115 25.000000000     0.076899531  0.084528152  0.040000000


 FORCES acting on ions
    electron-ion (+dipol)            ewald-force                    non-local-force                 convergence-correction
 -----------------------------------------------------------------------------------------------
   0.170E-01 0.958E-02 0.282E+04   -.166E-01 -.930E-02 -.282E+04   -.889E-04 -.104E-02 0.437E+00   0.387E-05 -.965E-05 0.181E-03
   -.292E-04 0.103E-01 0.300E+04   0.113E-04 -.102E-01 -.299E+04   -.234E-05 -.928E-05 -.390E+01   0.241E-04 -.887E-05 -.185E-03
   -.759E-03 0.139E-01 0.144E+04   0.774E-03 -.136E-01 -.143E+04   -.686E-05 0.115E-04 -.436E-01   0.121E-04 -.227E-05 0.336E-03
   0.650E-01 0.484E-01 0.143E+04   -.647E-01 -.478E-01 -.143E+04   -.728E-04 -.108E-04 0.204E+00   0.280E-05 0.684E-05 0.219E-03
   0.491E+00 0.156E+00 -.247E+02   -.491E+00 -.154E+00 0.255E+02   -.236E-03 -.635E-04 -.138E+00   0.175E-05 0.849E-05 0.185E-03
   -.112E-01 0.274E-01 -.123E+02   0.114E-01 -.245E-01 0.113E+02   -.704E-04 -.889E-03 0.346E+00   0.229E-05 0.138E-05 0.262E-03
   -.285E-01 0.274E-01 -.142E+04   0.286E-01 -.266E-01 0.142E+04   0.259E-03 -.851E-03 0.448E-02   -.433E-05 -.341E-05 0.461E-03
   0.337E+00 0.104E+00 -.146E+04   -.322E+00 -.991E-01 0.146E+04   -.491E-02 -.383E-02 -.495E-01   0.135E-04 0.106E-04 0.536E-03
   -.125E+01 0.133E+01 -.278E+04   0.132E+01 -.136E+01 0.278E+04   -.743E-02 0.466E-02 -.187E+00   0.300E-04 0.732E-04 0.176E-02
   -.404E-01 0.785E+00 -.285E+04   0.398E-01 -.788E+00 0.285E+04   0.790E-03 -.493E-03 0.950E+00   -.556E-04 0.832E-05 0.907E-03
   0.129E-01 0.938E-02 0.282E+04   -.127E-01 -.926E-02 -.282E+04   -.501E-04 0.103E-02 0.437E+00   0.153E-06 -.248E-04 0.190E-03
   0.156E-04 0.131E-04 0.300E+04   -.220E-05 -.828E-06 -.299E+04   -.445E-06 0.162E-06 -.389E+01   -.124E-04 -.134E-04 -.181E-03
   -.773E-03 0.130E-01 0.144E+04   0.791E-03 -.131E-01 -.143E+04   -.457E-05 0.110E-04 -.437E-01   0.910E-05 -.485E-05 0.347E-03
   0.341E-01 -.101E-02 0.143E+04   -.341E-01 0.101E-02 -.143E+04   0.967E-05 0.638E-05 0.202E+00   0.275E-05 0.219E-04 0.223E-03
   0.100E+00 0.111E+00 -.245E+02   -.986E-01 -.102E+00 0.254E+02   -.189E-03 -.525E-03 -.139E+00   0.699E-05 0.882E-05 0.181E-03
   -.290E-03 0.255E-04 -.124E+02   0.298E-03 -.180E-04 0.113E+02   -.270E-05 -.122E-05 0.345E+00   0.734E-06 -.560E-05 0.247E-03
   -.480E-01 0.483E-01 -.142E+04   0.480E-01 -.479E-01 0.142E+04   -.147E-03 -.213E-02 0.288E-02   -.160E-04 -.158E-04 0.459E-03
   0.792E-02 0.165E-02 -.146E+04   0.224E-02 -.152E-02 0.146E+04   -.108E-02 -.910E-04 -.436E-01   0.955E-06 -.240E-05 0.554E-03
   -.302E+00 -.875E-03 -.278E+04   0.311E+00 0.128E-02 0.278E+04   0.579E-02 0.899E-03 -.188E+00   0.249E-04 0.198E-04 0.183E-02
   -.283E-03 -.291E-03 -.285E+04   0.309E-03 0.346E-03 0.285E+04   -.113E-04 -.464E-05 0.959E+00   -.313E-04 -.320E-04 0.902E-03
   0.129E-01 -.937E-02 0.282E+04   -.127E-01 0.928E-02 -.282E+04   -.538E-04 -.103E-02 0.437E+00   -.121E-04 0.239E-04 0.235E-03
   0.347E-04 -.103E-01 0.300E+04   -.166E-04 0.102E-01 -.299E+04   0.187E-05 0.929E-05 -.390E+01   -.223E-04 0.198E-04 -.175E-03
   0.604E-03 -.130E-01 0.144E+04   -.594E-03 0.131E-01 -.143E+04   0.309E-05 -.115E-04 -.437E-01   -.334E-04 0.688E-05 0.345E-03
   0.649E-01 -.483E-01 0.143E+04   -.646E-01 0.477E-01 -.143E+04   -.718E-04 0.122E-04 0.204E+00   0.117E-04 -.122E-04 0.206E-03
   0.948E-01 -.126E+00 -.245E+02   -.935E-01 0.119E+00 0.254E+02   -.139E-03 0.415E-03 -.140E+00   0.496E-05 -.776E-05 0.172E-03
   0.101E-01 -.274E-01 -.123E+02   -.103E-01 0.245E-01 0.113E+02   0.637E-04 0.889E-03 0.346E+00   -.719E-06 -.256E-05 0.242E-03
   0.467E-01 -.487E-01 -.142E+04   -.467E-01 0.483E-01 0.142E+04   0.146E-03 0.213E-02 0.288E-02   0.521E-06 -.336E-05 0.476E-03
   0.301E+00 -.981E-01 -.146E+04   -.286E+00 0.942E-01 0.146E+04   -.481E-02 0.297E-02 -.495E-01   0.117E-05 -.576E-05 0.563E-03
   -.313E+00 -.347E-01 -.278E+04   0.321E+00 0.332E-01 0.278E+04   0.632E-02 -.582E-03 -.188E+00   -.194E-04 0.400E-04 0.187E-02
   0.377E-01 -.785E+00 -.285E+04   -.371E-01 0.788E+00 0.285E+04   -.753E-03 0.497E-03 0.950E+00   0.129E-04 0.537E-04 0.901E-03
   0.170E-01 -.960E-02 0.282E+04   -.166E-01 0.928E-02 -.282E+04   -.928E-04 0.104E-02 0.437E+00   0.372E-05 0.125E-04 0.231E-03
   0.765E-05 -.413E-05 0.300E+04   -.312E-05 0.808E-06 -.299E+04   0.746E-06 -.787E-07 -.389E+01   -.370E-05 0.309E-05 -.187E-03
   0.526E-03 -.139E-01 0.144E+04   -.526E-03 0.136E-01 -.143E+04   0.486E-05 -.110E-04 -.436E-01   -.202E-04 0.107E-05 0.334E-03
   0.959E-01 0.934E-03 0.143E+04   -.952E-01 -.939E-03 -.143E+04   -.198E-03 -.746E-05 0.203E+00   0.115E-04 -.176E-04 0.197E-03
   0.487E+00 -.141E+00 -.247E+02   -.487E+00 0.138E+00 0.256E+02   -.196E-03 0.179E-03 -.138E+00   0.233E-05 -.925E-05 0.178E-03
   -.709E-03 -.229E-05 -.123E+02   0.724E-03 -.562E-05 0.112E+02   -.486E-05 0.102E-05 0.345E+00   0.149E-05 0.623E-05 0.254E-03
   0.244E-01 -.270E-01 -.142E+04   -.245E-01 0.262E-01 0.142E+04   -.267E-03 0.855E-03 0.448E-02   0.496E-05 0.225E-04 0.483E-03
   0.657E+00 -.266E-02 -.146E+04   -.638E+00 0.199E-02 0.146E+04   -.705E-02 0.732E-03 -.494E-01   0.999E-05 -.209E-05 0.558E-03
   -.114E+01 -.120E+01 -.278E+04   0.121E+01 0.123E+01 0.278E+04   -.107E-01 -.356E-02 -.187E+00   -.737E-05 -.136E-03 0.179E-02
   -.124E-02 0.245E-03 -.285E+04   0.120E-02 -.236E-03 0.285E+04   0.286E-06 0.816E-06 0.943E+00   0.325E-04 -.298E-04 0.897E-03
   -.170E-01 0.955E-02 0.282E+04   0.166E-01 -.928E-02 -.282E+04   0.886E-04 -.104E-02 0.437E+00   0.627E-05 0.414E-04 0.296E-03
   0.349E-04 0.166E-01 0.300E+04   -.492E-05 -.163E-01 -.299E+04   0.368E-05 -.390E-04 -.390E+01   -.376E-04 -.187E-04 -.190E-03
   0.670E-03 0.665E-01 0.143E+04   -.674E-03 -.624E-01 -.143E+04   0.698E-05 -.780E-03 -.435E-01   -.237E-04 0.514E-05 0.332E-03
   -.649E-01 0.483E-01 0.143E+04   0.645E-01 -.478E-01 -.143E+04   0.734E-04 -.128E-04 0.204E+00   0.111E-06 -.243E-04 0.177E-03
   -.487E+00 0.141E+00 -.247E+02   0.487E+00 -.138E+00 0.256E+02   0.195E-03 -.179E-03 -.138E+00   -.500E-05 0.378E-05 0.172E-03
   0.750E-02 0.528E+00 -.130E+02   -.773E-02 -.541E+00 0.120E+02   0.372E-04 0.917E-02 0.342E+00   -.383E-05 -.112E-05 0.255E-03
   0.399E-02 0.490E+00 -.142E+04   -.387E-02 -.433E+00 0.142E+04   -.970E-04 -.307E-01 0.248E-01   0.222E-05 -.621E-05 0.446E-03
   -.300E+00 0.982E-01 -.146E+04   0.285E+00 -.944E-01 0.146E+04   0.480E-02 -.296E-02 -.495E-01   -.170E-05 0.233E-05 0.522E-03
   0.114E+01 0.120E+01 -.278E+04   -.121E+01 -.123E+01 0.278E+04   0.107E-01 0.356E-02 -.187E+00   -.128E-05 -.205E-03 0.185E-02
   0.136E+00 -.207E+01 -.285E+04   -.131E+00 0.221E+01 0.285E+04   -.288E-02 -.305E-01 0.990E+00   -.939E-05 0.496E-04 0.921E-03
   -.129E-01 0.946E-02 0.282E+04   0.127E-01 -.928E-02 -.282E+04   0.496E-04 0.102E-02 0.437E+00   0.151E-04 -.102E-03 0.242E-03
[...]
      0.00001      5.91519     17.65823        -0.000004     -0.000019      0.189132
      3.25100      7.39399      4.79682        -0.000235     -0.000737     -3.579626
      6.50199      8.87278      4.79682        -0.000006      0.000261      2.635370
      6.50199      7.39399      8.04782        -0.000023      0.003379      0.517742
      3.25100      8.87278      8.04782        -0.000265      0.000537     -0.712808
      3.25100      7.39399     11.29882         0.000038      0.002533      0.708981
      6.50199      8.87278     11.29882        -0.000193     -0.004015     -0.726280
      6.50198      7.39030     14.48965         0.000021      0.026518      0.036483
      3.25072      8.87320     14.68205        -0.010475      0.000868     -0.021222
      3.25022      7.39505     18.03033        -0.060349     -0.027554      0.168392
      6.50208      8.87248     17.65481         0.001492      0.103971      0.154019
      3.25100     10.35158      4.79682        -0.000136      0.001092     -3.579578
      6.50199      0.00000      4.79682        -0.000003      0.000003      2.637337
      6.50199     10.35158      8.04782        -0.000020      0.001406      0.520150
      3.25100      0.00000      8.04782        -0.000024     -0.000031     -0.713890
      3.25100     10.35158     11.29882        -0.001211      0.006315      0.714524
      6.50199      0.00000     11.29882        -0.000009     -0.000001     -0.757865
      6.50197     10.34976     14.47626         0.000082      0.011205      0.063118
      3.25151     11.83034     14.68348        -0.009074     -0.000050     -0.015072
      3.25295     10.35176     18.03555        -0.014390      0.002058      0.140940
      6.50199     11.83038     17.65434         0.000015      0.000026      0.188223
      3.25100      1.47880      4.79682        -0.000141     -0.001114     -3.579591
      6.50199      2.95759      4.79682        -0.000000     -0.000260      2.635369
      6.50199      1.47880      8.04782         0.000011     -0.001405      0.520150
      3.25100      2.95759      8.04782        -0.000264     -0.000535     -0.712997
      3.25100      1.47880     11.29882        -0.001208     -0.007790      0.713544
      6.50199      2.95759     11.29882         0.000172      0.004017     -0.726278
      6.50201      1.48062     14.47626        -0.000084     -0.011215      0.063127
      3.25072      2.95714     14.68169        -0.010456     -0.000665     -0.021026
      3.25270      1.47841     18.03541        -0.014760     -0.001319      0.141211
      6.50190      2.95790     17.65481        -0.001518     -0.103986      0.154024
      3.25100      4.43639      4.79682        -0.000232      0.000757     -3.579647
      6.50199      5.91519      4.79682        -0.000003     -0.000001      2.637073
      6.50199      4.43639      8.04782         0.000005     -0.003377      0.517741
      3.25100      5.91519      8.04782        -0.000495      0.000031     -0.714846
      3.25100      4.43639     11.29882         0.000038     -0.001054      0.707951
      6.50199      5.91519     11.29882        -0.000013      0.000002     -0.726643
      6.50200      4.44008     14.48965        -0.000010     -0.026505      0.036482
      3.25040      5.91523     14.68178        -0.011796     -0.000061     -0.019061
      3.24949      4.43482     18.02923        -0.056817      0.026557      0.171499
      6.50202      5.91519     17.68236        -0.000044     -0.000008     -0.231549
      9.75299      8.87278      3.52244        -0.000087     -0.000111      1.765086
      9.75299      8.87278      6.07121        -0.000059     -0.000121      1.701567
      1.27438      7.39399      4.79682        -1.844923     -0.001285     -0.829070
     11.72960      7.39399      4.79682         1.844917     -0.001284     -0.829046
      0.00000      8.87278      6.77344        -0.000003     -0.000067     -1.391547
      0.00000      8.87278      9.32220        -0.000013     -0.000115     -0.100454
     11.02737      7.39399      8.04782         0.441432     -0.000683      0.046171
      1.97661      7.39399      8.04782        -0.441454     -0.000716      0.046183
      9.75299      8.87278     10.02443        -0.000172     -0.001892     -0.122962
      9.75299      8.87278     12.57320        -0.000881     -0.002652      0.061485
      1.27438      7.39399     11.29882        -0.485066     -0.006691      0.094188
     11.72960      7.39399     11.29882         0.484776     -0.006609      0.094270
      0.00000      8.87321     13.29554         0.000047     -0.002293     -0.018643
      0.00007      8.87275     15.85198         0.000110     -0.001017     -0.049168
     11.05635      7.39452     14.57057        -0.011724      0.002927     -0.009846
      1.94765      7.39459     14.57061         0.011815      0.003128     -0.009693
      9.75730      8.87471     16.54245        -0.006333     -0.002515      0.072479
      9.75079      8.87091     19.11692        -0.003551      0.009364      0.065383
      1.22343      7.39339     17.98417        -0.017757      0.007168      0.102281
     11.78081      7.39355     17.98384         0.018406      0.007350      0.101587
      9.75299      0.00000      3.52244        -0.000070     -0.000001      1.764440
      9.75299      0.00000      6.07121        -0.000027     -0.000005      1.701256
      1.27438     10.35158      4.79682        -1.844958      0.001228     -0.829062
     11.72960     10.35158      4.79682         1.844949      0.001228     -0.829038
      0.00000      0.00000      6.77344        -0.000002      0.000002     -1.376993
      0.00000      0.00000      9.32220        -0.000003      0.000002     -0.103971
     11.02737     10.35158      8.04782         0.441492      0.000362      0.046141
      1.97661     10.35158      8.04782        -0.441515      0.000396      0.046153
      9.75299      0.00000     10.02443        -0.000295     -0.000278     -0.128314
      9.75299      0.00000     12.57320         0.000214     -0.000203      0.051608
      1.27438     10.35158     11.29882        -0.486054      0.006013      0.093465
     11.72960     10.35158     11.29882         0.485773      0.005930      0.093523
      0.00000      0.00000     13.29559         0.000006     -0.000004     -0.038222
     13.00398      0.00000     15.85203        -0.000002     -0.000003     -0.045360
     11.05626     10.35224     14.57155        -0.014864     -0.007285     -0.009836
      1.94780     10.35213     14.57177         0.016450     -0.007146     -0.010416
      9.75304      0.00000     16.54427        -0.003247      0.000088      0.067580
      9.75448      0.00002     19.11930        -0.000585      0.000263      0.056535
      1.22345     10.35133     17.98293        -0.015824     -0.001143      0.106034
     11.78075     10.35126     17.98311         0.015613     -0.001616      0.105154
      9.75299      2.95759      3.52244        -0.000087      0.000117      1.765087
      9.75299      2.95759      6.07121        -0.000058      0.000125      1.701512
      1.27438      1.47880      4.79682        -1.844945     -0.001233     -0.829061
     11.72960      1.47880      4.79682         1.844947     -0.001233     -0.829040
      0.00000      2.95759      6.77344        -0.000002      0.000069     -1.391537
      0.00000      2.95759      9.32220         0.000007      0.000116     -0.100458
     11.02737      1.47880      8.04782         0.441511     -0.000393      0.046132
      1.97661      1.47880      8.04782        -0.441500     -0.000362      0.046162
      9.75299      2.95759     10.02443        -0.000169      0.001885     -0.123331
      9.75299      2.95759     12.57320        -0.001023      0.002671      0.061132
      1.27438      1.47880     11.29882        -0.485787     -0.005930      0.093497
     11.72960      1.47880     11.29882         0.486039     -0.006012      0.093489
      0.00000      2.95717     13.29554        -0.000039      0.002295     -0.018641
     13.00391      2.95762     15.85198        -0.000104      0.000859     -0.051127
     11.05619      1.47824     14.57177        -0.016443      0.007143     -0.010424
      1.94773      1.47814     14.57155         0.014873      0.007290     -0.009827
      9.75656      2.95608     16.54283        -0.006565      0.002526      0.074470
      9.75102      2.95943     19.11732        -0.003531     -0.008181      0.066788
      1.22324      1.47912     17.98311        -0.015586      0.001594      0.105150
     11.78054      1.47905     17.98294         0.015858      0.001144      0.106031
      9.75299      5.91519      3.52244        -0.000105     -0.000001      1.764326
      9.75299      5.91519      6.07121        -0.000079      0.000004      1.701583
      1.27438      4.43639      4.79682        -1.844923      0.001292     -0.829069
     11.72960      4.43639      4.79682         1.844911      0.001292     -0.829048
      0.00000      5.91519      6.77344        -0.000002     -0.000000     -1.376967
      0.00000      5.91519      9.32220        -0.000003     -0.000000     -0.103841
     11.02737      4.43639      8.04782         0.441448      0.000717      0.046162
      1.97661      4.43639      8.04782        -0.441441      0.000685      0.046192
      9.75299      5.91519     10.02443         0.000177      0.000294     -0.126701
      9.75299      5.91519     12.57320        -0.002593      0.000259      0.058901
      1.27438      4.43639     11.29882        -0.484798      0.006610      0.094244
     11.72960      4.43639     11.29882         0.485043      0.006695      0.094212
      0.00000      5.91519     13.29543         0.000006      0.000006     -0.037109
      0.00000      5.91519     15.85157         0.000007      0.000004     -0.051958
     11.05633      4.43579     14.57060        -0.011810     -0.003129     -0.009709
      1.94763      4.43586     14.57058         0.011739     -0.002921     -0.009830
      9.75961      5.91492     16.54147        -0.005150      0.000931      0.065797
      9.74213      5.91574     19.11440         0.002141     -0.002476      0.034083
      1.22318      4.43683     17.98385        -0.018337     -0.007335      0.101609
     11.78057      4.43699     17.98417         0.017829     -0.007157      0.102259
      3.25100      8.87278      3.52244         0.000083     -0.000115      1.765085
      3.25100      8.87278      6.07121         0.000055     -0.000127      1.701513
      7.77637      7.39399      4.79682        -1.845079     -0.001384     -0.829100
      5.22761      7.39399      4.79682         1.845081     -0.001384     -0.829081
      6.50199      8.87278      6.77344        -0.000001     -0.000730     -1.391223
      6.50199      8.87278      9.32220         0.000014     -0.001664     -0.100414
      4.52538      7.39399      8.04782         0.442243     -0.000868      0.046252
      8.47860      7.39399      8.04782        -0.442226     -0.000835      0.046285
      3.25100      8.87278     10.02443         0.000166     -0.001874     -0.123346
      3.25100      8.87278     12.57320         0.001022     -0.002666      0.061137
      7.77637      7.39399     11.29882        -0.486578     -0.014166      0.094089
      5.22761      7.39399     11.29882         0.486891     -0.014236      0.094055
      6.50201      8.86885     13.29629         0.000071     -0.010863     -0.011733
      6.50159      8.87727     15.84876        -0.000629     -0.007560     -0.030030
      4.55307      7.39392     14.57512         0.001669      0.002851     -0.007490
      8.45090      7.39401     14.57527        -0.001692      0.002940     -0.007078
      3.24744      8.87429     16.54284         0.006595     -0.002549      0.074532
      3.25297      8.87095     19.11733         0.003551      0.008143      0.066765
      7.72909      7.40124     17.96512        -0.071267     -0.085645      0.193355
      5.27590      7.40069     17.96832         0.070245     -0.084708      0.190763
      3.25100      0.00000      3.52244         0.000068      0.000011      1.764438
      3.25100      0.00000      6.07121         0.000024      0.000012      1.701250
      7.77637     10.35158      4.79682        -1.845067      0.001153     -0.829080
      5.22761     10.35158      4.79682         1.845068      0.001155     -0.829060
      6.50199      0.00000      6.77344        -0.000001      0.000001     -1.377319
      6.50199      0.00000      9.32220        -0.000001      0.000001     -0.108583
      4.52538     10.35158      8.04782         0.441603      0.000329      0.046109
      8.47860     10.35158      8.04782        -0.441586      0.000295      0.046141
      3.25100      0.00000     10.02443         0.000293      0.000279     -0.128325
      3.25100      0.00000     12.57320        -0.000225      0.000205      0.051619
      7.77637     10.35158     11.29882        -0.486016      0.002491      0.095334
      5.22761     10.35158     11.29882         0.486326      0.002563      0.095320
      6.50199      0.00000     13.29334        -0.000002      0.000007     -0.032732
      6.50199      0.00000     15.84814         0.000000     -0.000004     -0.042055
      4.55296     10.35169     14.57074        -0.000709     -0.005431     -0.010259
      8.45096     10.35164     14.57079         0.000555     -0.005485     -0.010070
      3.25094      0.00000     16.54427         0.003252     -0.000090      0.067596
      3.24950     11.83036     19.11930         0.000603     -0.000275      0.056563
      7.72568     10.35291     17.98208        -0.030539     -0.011505      0.098119
      5.27828     10.35309     17.98215         0.030945     -0.012202      0.097128
      3.25100      2.95759      3.52244         0.000084      0.000109      1.765083
      3.25100      2.95759      6.07121         0.000056      0.000120      1.701556
      7.77637      1.47880      4.79682        -1.845069     -0.001151     -0.829082
      5.22761      1.47880      4.79682         1.845067     -0.001151     -0.829058
      6.50199      2.95759      6.77344        -0.000001      0.000731     -1.391226
      6.50199      2.95759      9.32220        -0.000015      0.001665     -0.100407
      4.52538      1.47880      8.04782         0.441587     -0.000295      0.046117
      8.47860      1.47880      8.04782        -0.441602     -0.000327      0.046134
      3.25100      2.95759     10.02443         0.000169      0.001885     -0.122978
      3.25100      2.95759     12.57320         0.000881      0.002652      0.061492
      7.77637      1.47880     11.29882        -0.486318     -0.002555      0.095300
      5.22761      1.47880     11.29882         0.486027     -0.002487      0.095355
      6.50197      2.96153     13.29629        -0.000075      0.010870     -0.011751
      6.50237      2.95311     15.84876         0.000617      0.007556     -0.030048
      4.55302      1.47874     14.57079        -0.000552      0.005483     -0.010069
      8.45102      1.47869     14.57074         0.000694      0.005435     -0.010259
      3.24670      2.95567     16.54246         0.006361      0.002540      0.072509
      3.25320      2.95946     19.11693         0.003565     -0.009321      0.065363
      7.72570      1.47729     17.98215        -0.030965      0.012202      0.097120
      5.27830      1.47747     17.98208         0.030556      0.011497      0.098110
      3.25100      5.91519      3.52244         0.000101     -0.000002      1.764341
      3.25100      5.91519      6.07121         0.000077     -0.000002      1.701589
      7.77637      4.43639      4.79682        -1.845080      0.001384     -0.829103
      5.22761      4.43639      4.79682         1.845081      0.001384     -0.829077
      6.50199      5.91519      6.77344        -0.000002      0.000002     -1.375785
      6.50199      5.91519      9.32220        -0.000000      0.000001     -0.092521
      4.52538      4.43639      8.04782         0.442228      0.000837      0.046261
      8.47860      4.43639      8.04782        -0.442238      0.000870      0.046277
      3.25100      5.91519     10.02443        -0.000179     -0.000292     -0.126724
      3.25100      5.91519     12.57320         0.002587     -0.000258      0.058919
      7.77637      4.43639     11.29882        -0.486876      0.014234      0.094037
      5.22761      4.43639     11.29882         0.486598      0.014163      0.094110
      6.50199      5.91519     13.29981        -0.000001     -0.000008     -0.020745
      6.50199      5.91519     15.86380        -0.000006      0.000007      0.073365
      4.55308      4.43637     14.57527         0.001695     -0.002935     -0.007084
      8.45091      4.43645     14.57512        -0.001687     -0.002851     -0.007491
      3.24438      5.91546     16.54148         0.005185     -0.000926      0.065877
      3.26188      5.91464     19.11442        -0.002195      0.002487      0.034246
      7.72812      4.42967     17.96827        -0.070274      0.084736      0.190760
      5.27493      4.42915     17.96517         0.071264      0.085618      0.193360
 -----------------------------------------------------------------------------------
    total drift:                                0.000416     -0.000140     -0.023766


--------------------------------------------------------------------------------------------------------



  FREE ENERGIE OF THE ION-ELECTRON SYSTEM (eV)
  ---------------------------------------------------
  free  energy   TOTEN  =     -2119.56421925 eV

  energy  without entropy=    -2119.56421925  energy(sigma->0) =    -2119.56421925
 


--------------------------------------------------------------------------------------------------------


    POTLOK:  cpu time      3.4073: real time      3.4212


--------------------------------------------------------------------------------------------------------


 writing wavefunctions
     LOOP+:  cpu time    386.7636: real time    388.2596
    4ORBIT:  cpu time      0.0000: real time      0.0000

 total amount of memory used by VASP MPI-rank0  2059299. kBytes
=======================================================================

   base      :      30000. kBytes
   nonlr-proj:      52937. kBytes
   fftplans  :      56070. kBytes
   grid      :     119705. kBytes
   one-center:       3732. kBytes
   wavefun   :    1796855. kBytes
 
  
  
 General timing and accounting informations for this job:
 ========================================================
  
                  Total CPU time used (sec):      408.343
                            User time (sec):      402.299
                          System time (sec):        6.043
                         Elapsed time (sec):      410.506
  
                   Maximum memory used (kb):     3228704.
                   Average memory used (kb):          N/A
  
                          Minor page faults:       238071
                          Major page faults:            0
                 Voluntary context switches:        16748


                    ____  _____ _____     ____  _  _
      -------------|  _ \|  ___|_   _|---|  _ \| || |------------
     |             | | | | |_    | | ___ | | | | || |_           |
     |             | |_| |  _|   | ||___|| |_| |__   _|          |
     |             |____/|_|     |_|     |____/   |_|            |
     |             ===================================           |
     |            E. Caldeweyher, S. Ehlert & S. Grimme          |
     |          Mulliken Center for Theoretical Chemistry        |
     |                    University of Bonn                     |
      ----------------------------------------------------------- 

Rational (Becke-Johnson) damping: hse06-D4-ATM
---------------------
  s6         1.0000
  s8         1.1953
  s9         1.0000
  a1         0.3866
  a2         5.1913
 alp        16.0000
--------------------

Dispersion energy:      -1.4347483278460E+00 Eh

