 **********************************************************************
                          MRCC program system
 **********************************************************************
 
                              Written by
     Mihaly Kallay, Peter R. Nagy, David Mester, Laszlo Gyevi-Nagy,
        Jozsef Csoka, P. Bernat Szabo, Zoltan Rolik, Gyula Samu,
     Jozsef Csontos, Bence Hegely, Adam Ganyecz, Istvan Ladjanszki,
       Lorant Szegedy, Bence Ladoczki, Klara Petrov, Mate Farkas,
                    Pal D. Mezei, and Reka A. Horvath
 
        Department of Physical Chemistry and Materials Science
            Budapest University of Technology and Economics
                  Budapest P.O.Box 91, H-1521 Hungary
 
                              www.mrcc.hu
 
                      Release date: March 18, 2022

 ************************ 2023-02-04 11:52:50 *************************
 Executing minp...

 Reading input from MINP...
 
 Input file:
 
calc=FNO-CCSD(T)
verbosity=3
mem=220GB
unit=angs
scfiguess=small
scfalg=locfit1
ccmaxit=400
ccsdalg=dfdirect
ccsdthreads=4
ccsdmkl=thr
ptthreads=4
lnoepsv=1e-5
naf_cor=1e-2
basis=aug-cc-pVQZ
basis_sm=def2-SVP
dfbasis_scf=def2-QZVPP-RI-JK
dfbasis_cor=aug-cc-pVQZ-RI
unit=angs
geom=xyz
10

C    29.54344629    29.54344629    16.97505516
H    29.54344670    30.44187631    17.60392580
H    29.54344662    28.64496649    17.60393442
H    30.44658454    29.54342777    16.34911135
H    28.64030918    29.54342779    16.34911130
C    21.10246164    29.54344629    16.97505516
H    21.10246204    30.44187631    17.60392580
H    21.10246196    28.64496649    17.60393442
H    22.00559989    29.54342777    16.34911135
H    20.19932453    29.54342779    16.34911130

--------------------Output has been truncated-------------------------


--------------------Output has been truncated-------------------------


--------------------Output has been truncated-------------------------


--------------------Output has been truncated-------------------------


--------------------Output has been truncated-------------------------


--------------------Output has been truncated-------------------------


--------------------Output has been truncated-------------------------


--------------------Output has been truncated-------------------------


--------------------Output has been truncated-------------------------


--------------------Output has been truncated-------------------------


 
 Reference energy [au]:                       -40.215614303539
 DF-MP2 singlet pair energy [au]:              -0.173753308246
 DF-MP2 triplet pair energy [au]:              -0.037498401629
 DF-SCS-MP2 correlation energy [au]:           -0.221003437104
 DF-SCS-MP2 energy [au]:                      -40.436617740643
 DF-SOS-MP2 correlation energy [au]:           -0.225879300719
 DF-SOS-MP2 energy [au]:                      -40.441493604258
 DF-MP2 correlation energy [au]:               -0.211251709874
 DF-MP2 energy [au]:                          -40.426866013413

 Results in FNO basis:
 
 
 Reference energy [au]:                       -40.215614303539
 DF-MP2 singlet pair energy [au]:              -0.170618401330
 DF-MP2 triplet pair energy [au]:              -0.037357082426
 DF-SCS-MP2 correlation energy [au]:           -0.217194442404
 DF-SCS-MP2 energy [au]:                      -40.432808745943
 DF-SOS-MP2 correlation energy [au]:           -0.221803921729
 DF-SOS-MP2 energy [au]:                      -40.437418225268
 DF-MP2 correlation energy [au]:               -0.207975483756
 DF-MP2 energy [au]:                          -40.423589787295

 Results in NAF basis:
 
 
 Reference energy [au]:                       -40.215614303539
 DF-MP2 singlet pair energy [au]:              -0.170600828091
 DF-MP2 triplet pair energy [au]:              -0.037363768795
 DF-SCS-MP2 correlation energy [au]:           -0.217175583307
 DF-SCS-MP2 energy [au]:                      -40.432789886846
 DF-SOS-MP2 correlation energy [au]:           -0.221781076518
 DF-SOS-MP2 energy [au]:                      -40.437395380057
 DF-MP2 correlation energy [au]:               -0.207964596886
 DF-MP2 energy [au]:                          -40.423578900425

 ************************ 2023-02-04 11:53:28 *************************
 Executing ccsd...

 Allocation of 220.0 Gbytes of memory...

 Direct DF-CCSD(T) calculation
 
 Convergence criterion:  1.0E-06
 
 Number of occupied/virtual/auxiliary orbitals:     4   101   320
    163.36 MB is the minimal memory requirement for (T)
     39.40 MB is the minimal memory requirement for CCSD
 
 Reference energy [au]:             -40.215614303539
 T1 contribution [au]:                0.000000000000
 Same spin MP2 energy [au]:          -0.037360421173
 Opposite spin MP2 energy [au]:      -0.170609604909
 MP2 correlation energy [au]:        -0.207970026081
 Total MP2 energy [au]:             -40.423584329620
 MP2 correction [au]:                -0.003281683793
 
 
 CPU time [min]:     0.176                   Wall time [min]:     0.008
 
 Starting CCSD iterations...
 
                     Residual norm          Energy
 Iteration  1        0.138680830626      -40.436529268423
 Iteration  2        0.035376099257      -40.442052814519
 Iteration  3        0.009771769449      -40.442635538223
 Iteration  4        0.002020927920      -40.442640037655
 Iteration  5        0.000374898492      -40.442646548541
 Iteration  6        0.000084798061      -40.442646425307
 Iteration  7        0.000020223549      -40.442647115341
 Iteration  8        0.000003738685      -40.442647172289
 
 CCSD iteration has converged in  8 steps.
      444.29 MB memory was utilized by CCSD
 
 T1 diagnostic:      7.996E-03            D1 diagnostic:      1.292E-02
 
 T1 contribution [au]:                                  0.000000000000
 PPL energy contribution [au]:                          0.060602310377
 Scaled PPL energy contribution [au]:                   0.061559178101

 OS-PPL energy contribution [au]:                       0.053773807715
 Scaled OS-PPL energy contribution [au]:                0.054766937460
 SS-PPL energy contribution [au]:                       0.006828502661
 Scaled SS-PPL energy contribution [au]:                0.006852805334

 Opposite spin CCSD energy [au]:                       -0.191003577550
 Same spin CCSD energy [au]:                           -0.036036052630
 CCSD correlation energy [au]:                         -0.227039630179
 CCSD correlation energy + MP2 correction [au]:        -0.230321313972
 CCSD correlation energy + MP2 + PPL corr. [au]:       -0.229364446248
 Total CCSD energy [au]:                              -40.442653933718
 Total CCSD energy + MP2 correction [au]:             -40.445935617511
 Total CCSD energy + MP2 + PPL corr. [au]:            -40.444978749787
 
 CPU time [min]:     0.860                   Wall time [min]:     0.027
 
 Calculation of (T) correction...
 
 
      124.68 MB memory is utilized for (T)

 0%       25%       50%       75%       100%
 |---------|---------|---------|---------| 
 
 (T) correction [au]:                                    -0.006941749609
 (T*) correction [au]:                                   -0.007051287640
 (T+) correction [au]:                                   -0.007050880632
 CCSD(T) correlation energy [au]:                        -0.233981379788
 CCSD(T) correlation energy + MP2 correction [au]:       -0.237263063581
 CCSD(T+) correlation en. + MP2 + PPL corr. [au]:        -0.236415326880
 Total CCSD(T) energy [au]:                             -40.449595683327
 Total CCSD(T) energy + MP2 correction [au]:            -40.452877367120
 Total CCSD(T+) energy + MP2 + PPL corr. [au]:          -40.452029630419
 
 CPU time [min]:     0.942                   Wall time [min]:     0.030
 
 ************************ 2023-02-04 11:53:29 *************************
                      Normal termination of mrcc.
 **********************************************************************
