 vasp.6.3.0 20Jan22 (build Aug 21 2024 11:13:42) complex                         
 executed on        HPECrayEX_GCC date 2024.08.22  13:22:26
 running  384 mpi-ranks, with    1 threads/rank
 distrk:  each k-point on  384 cores,    1 groups
 distr:  one band on NCORE=   8 cores,   48 groups


--------------------------------------------------------------------------------------------------------


 INCAR:
   SYSTEM = MgO-rocksalt
   ISMEAR = 0
   SIGMA = 0.05
   EDIFF = 1E-6
   ALGO = ALL
   ISTART = 0
   IBRION = -1
   NSW = 0
   ISYM = 0
   DIPOL = 0.5 0.5 0.5
   IDIPOL = 4
   LDIPOL = .TRUE.
   GGA = MK
   LUSE_VDW = .TRUE.
   PARAM1 = 0.1234
   PARAM2 = 0.711357
   ZAB_VDW = -1.8867
   AGGAC = 0.0
   ENCUT = 600
   PREC = Accurate
   LASPH = .TRUE.
   LREAL = .FALSE.
   ISPIN = 1
   NELM = 200
   NELMIN = 8
   NCORE = 8
   KPAR = 1
   LWAVE = .FALSE.
   LCHARG = .FALSE.

 POTCAR:    PAW_PBE C 08Apr2002                   
 POTCAR:    PAW_PBE H 15Jun2001                   
 -----------------------------------------------------------------------------
|                                                                             |
|               ----> ADVICE to this user running VASP <----                  |
|                                                                             |
|     You have switched on vdW-DFT.                                           |
|     This routine was written and supplied by Jiri Klimes. We recommend      |
|     that you carefully read and cite the following publications:            |
|       J. Klimes, D.R. Bowler, A. Michelides                                 |
|          J. Phys.: Cond Matt. 22 022201 (2010)                              |
|       J. Klimes, D.R. Bowler, A. Michelides                                 |
|          Phys. Rev. B. 83, 195131 (2011)                                    |
|     and references therein.                                                 |
|                                                                             |
 -----------------------------------------------------------------------------

 POTCAR:    PAW_PBE C 08Apr2002                   
   SHA256 =  253f7b50bb8d59471dbedb8285d89021f4a42ed1a2c5d38a03a736e69125dd95 C/POTCAR              
   COPYR  = (c) Copyright 08Apr2002 Georg Kresse                                                    
   COPYR  = This file is part of the software VASP. Any use, copying, and all other rights are regul
   COPYR  = If you do not have a valid VASP license, you may not use, copy or distribute this file. 
   VRHFIN =C: s2p2                                                                                  
   LEXCH  = PE                                                                                      
   EATOM  =   147.1560 eV,   10.8157 Ry                                                             
                                                                                                    
   TITEL  = PAW_PBE C 08Apr2002                                                                     
   LULTRA =        F    use ultrasoft PP ?                                                          
   IUNSCR =        1    unscreen: 0-lin 1-nonlin 2-no                                               
   RPACOR =    1.200    partial core radius                                                         
   POMASS =   12.011; ZVAL   =    4.000    mass and valenz                                          
   RCORE  =    1.500    outmost cutoff radius                                                       
   RWIGS  =    1.630; RWIGS  =    0.863    wigner-seitz radius (au A)                               
   ENMAX  =  400.000; ENMIN  =  300.000 eV                                                          
   ICORE  =        2    local potential                                                             
   LCOR   =        T    correct aug charges                                                         
   LPAW   =        T    paw PP                                                                      
   EAUG   =  644.873                                                                                
   DEXC   =    0.000                                                                                
   RMAX   =    1.529    core radius for proj-oper                                                   
   RAUG   =    1.300    factor for augmentation sphere                                              
   RDEP   =    1.501    radius for radial grids                                                     
   RDEPT  =    1.300    core radius for aug-charge                                                  
                                                                                                    
   Atomic configuration                                                                             
    4 entries                                                                                       
     n  l   j            E        occ.                                                              
     1  0  0.50      -273.3789   2.0000                                                             
     2  0  0.50       -13.7508   2.0000                                                             
     2  1  0.50        -5.2854   2.0000                                                             
     3  2  1.50        -5.4423   0.0000                                                             
   Description                                                                                      
     l       E           TYP  RCUT    TYP  RCUT                                                     
     0    -13.7508458     23  1.200                                                                 
     0     -8.2022199     23  1.200                                                                 
     1     -5.2854383     23  1.500                                                                 
     1     34.0145650     23  1.500                                                                 
     2     -5.4423304      7  1.500                                                                 
  local pseudopotential read in
  partial core-charges read in
  partial kinetic energy density read in
  atomic valenz-charges read in
  non local Contribution for L=           0  read in
    real space projection operators read in
  non local Contribution for L=           0  read in
    real space projection operators read in
  non local Contribution for L=           1  read in
    real space projection operators read in
  non local Contribution for L=           1  read in
    real space projection operators read in
    PAW grid and wavefunctions read in

   number of l-projection  operators is LMAX  =           4
   number of lm-projection operators is LMMAX =           8

 POTCAR:    PAW_PBE H 15Jun2001                   
   SHA256 =  030f79b5d3ab3cf0e668861823c8fb652ff669f3e15e46930bd03bfd63a607b6 H/POTCAR              
   COPYR  = (c) Copyright 15Jun2001 Georg Kresse                                                    
   COPYR  = This file is part of the software VASP. Any use, copying, and all other rights are regul
   COPYR  = If you do not have a valid VASP license, you may not use, copy or distribute this file. 
   VRHFIN =H: ultrasoft test                                                                        
   LEXCH  = PE                                                                                      
   EATOM  =    12.4884 eV,    0.9179 Ry                                                             
                                                                                                    
   TITEL  = PAW_PBE H 15Jun2001                                                                     
   LULTRA =        F    use ultrasoft PP ?                                                          
   IUNSCR =        0    unscreen: 0-lin 1-nonlin 2-no                                               
   RPACOR =    0.000    partial core radius                                                         
   POMASS =    1.000; ZVAL   =    1.000    mass and valenz                                          
   RCORE  =    1.100    outmost cutoff radius                                                       
   RWIGS  =    0.700; RWIGS  =    0.370    wigner-seitz radius (au A)                               
   ENMAX  =  250.000; ENMIN  =  200.000 eV                                                          
   RCLOC  =    0.701    cutoff for local pot                                                        
   LCOR   =        T    correct aug charges                                                         
   LPAW   =        T    paw PP                                                                      
   EAUG   =  400.000                                                                                
   RMAX   =    1.123    core radius for proj-oper                                                   
   RAUG   =    1.200    factor for augmentation sphere                                              
   RDEP   =    1.112    radius for radial grids                                                     
   RDEPT  =    0.926    core radius for aug-charge                                                  
                                                                                                    
   Atomic configuration                                                                             
    2 entries                                                                                       
     n  l   j            E        occ.                                                              
     1  0  0.50        -6.4927   1.0000                                                             
     2  1  0.50        -3.4015   0.0000                                                             
   Description                                                                                      
     l       E           TYP  RCUT    TYP  RCUT                                                     
     0     -6.4927494     23  1.100                                                                 
     0      6.8029130     23  1.100                                                                 
     1     -4.0817478     23  1.100                                                                 
  local pseudopotential read in
  atomic valenz-charges read in
  non local Contribution for L=           0  read in
    real space projection operators read in
  non local Contribution for L=           0  read in
    real space projection operators read in
  non local Contribution for L=           1  read in
    real space projection operators read in
    PAW grid and wavefunctions read in

   number of l-projection  operators is LMAX  =           3
   number of lm-projection operators is LMMAX =           5

 -----------------------------------------------------------------------------
|                                                                             |
|               ----> ADVICE to this user running VASP <----                  |
|                                                                             |
|     You enforced a specific xc type in the INCAR file but a different       |
|     type was found in the POTCAR file.                                      |
|     I HOPE YOU KNOW WHAT YOU ARE DOING!                                     |
|                                                                             |
 -----------------------------------------------------------------------------

  PAW_PBE C 08Apr2002                   :
 energy of atom  1       EATOM= -147.1560
 kinetic energy error for atom=    0.0057 (will be added to EATOM!!)
  PAW_PBE H 15Jun2001                   :
 energy of atom  2       EATOM=  -12.4884
 kinetic energy error for atom=    0.0004 (will be added to EATOM!!)


 POSCAR:  C  H
  positions in direct lattice
  No initial velocities read in
 exchange correlation table for  LEXCH =       43
   RHO(1)=    0.500       N(1)  =     2000
   RHO(2)=  100.500       N(2)  =     4000



--------------------------------------------------------------------------------------------------------


 ion  position               nearest neighbor table
   1  0.500  0.500  0.500-   3 1.10   2 1.10   4 1.10   5 1.10
   2  0.500  0.554  0.539-   1 1.10
   3  0.500  0.446  0.539-   1 1.10
   4  0.554  0.500  0.461-   1 1.10
   5  0.446  0.500  0.461-   1 1.10


IMPORTANT INFORMATION: All symmetrisations will be switched off!
NOSYMM: (Re-)initialisation of all symmetry stuff for point group C_1.


----------------------------------------------------------------------------------------

                                     Primitive cell                                     

  volume of cell :    4591.2047

  direct lattice vectors                    reciprocal lattice vectors
    16.813651958  0.000000000  0.000000000     0.059475479  0.000000000  0.000000000
     0.000000000 16.801046915  0.000000000     0.000000000  0.059520100  0.000000000
     0.000000000  0.000000000 16.252802685     0.000000000  0.000000000  0.061527850

  length of vectors
    16.813651958 16.801046915 16.252802685     0.059475479  0.059520100  0.061527850

  position of ions in fractional coordinates (direct lattice)
     0.500000000  0.499999991  0.499911486
     0.500000000  0.553599247  0.538541128
     0.500000002  0.446400753  0.538541124
     0.553933909  0.499999998  0.461458873
     0.446066091  0.499999997  0.461458872

  ion indices of the primitive-cell ions
   primitive index   ion index
                 1           1
                 2           2
                 3           3
                 4           4
                 5           5

----------------------------------------------------------------------------------------



 KPOINTS: pymatgen v2020.8.13 with grid density = 

Automatic generation of k-mesh.
 Grid dimensions read from file:
 generate k-points for:    1    1    1

 Generating k-lattice:

  Cartesian coordinates                     Fractional coordinates (reciprocal lattice)
     0.059475479  0.000000000  0.000000000     1.000000000  0.000000000  0.000000000
     0.000000000  0.059520100  0.000000000     0.000000000  1.000000000  0.000000000
     0.000000000  0.000000000  0.061527850     0.000000000  0.000000000  1.000000000

  Length of vectors
     0.059475479  0.059520100  0.061527850

  Shift w.r.t. Gamma in fractional coordinates (k-lattice)
     0.000000000  0.000000000  0.000000000

 
 Subroutine IBZKPT returns following result:
 ===========================================
 
 Found      1 irreducible k-points:
 
 Following reciprocal coordinates:
            Coordinates               Weight
  0.000000  0.000000  0.000000      1.000000
 
 Following cartesian coordinates:
            Coordinates               Weight
  0.000000  0.000000  0.000000      1.000000
 


--------------------------------------------------------------------------------------------------------




 Dimension of arrays:
   k-points           NKPTS =      1   k-points in BZ     NKDIM =      1   number of bands    NBANDS=     48
   number of dos      NEDOS =    301   number of ions     NIONS =      5
   non local maximal  LDIM  =      4   non local SUM 2l+1 LMDIM =      8
   total plane-waves  NPLWV = ******
   max r-space proj   IRMAX =      1   max aug-charges    IRDMAX=   7252
   dimension x,y,z NGX =   140 NGY =  140 NGZ =  140
   dimension x,y,z NGXF=   280 NGYF=  280 NGZF=  280
   support grid    NGXF=   280 NGYF=  280 NGZF=  280
   ions per type =               1   4
   NGX,Y,Z   is equivalent  to a cutoff of  13.84, 13.85, 14.32 a.u.
   NGXF,Y,Z  is equivalent  to a cutoff of  27.69, 27.71, 28.64 a.u.

 SYSTEM =  MgO-rocksalt                            
 POSCAR =   C  H                                   

--------------------------------------------------------------------------------------------------------


  energy-cutoff  :      600.00
  volume of cell :     4591.20
      direct lattice vectors                 reciprocal lattice vectors
    16.813651958  0.000000000  0.000000000     0.059475479  0.000000000  0.000000000
     0.000000000 16.801046915  0.000000000     0.000000000  0.059520100  0.000000000
     0.000000000  0.000000000 16.252802685     0.000000000  0.000000000  0.061527850

  length of vectors
    16.813651958 16.801046915 16.252802685     0.059475479  0.059520100  0.061527850



 k-points in units of 2pi/SCALE and weight: pymatgen v2020.8.13 with grid density = 
   0.00000000  0.00000000  0.00000000       1.000

 k-points in reciprocal lattice and weights: pymatgen v2020.8.13 with grid density = 
   0.00000000  0.00000000  0.00000000       1.000

 position of ions in fractional coordinates (direct lattice) 
   0.50000000  0.49999999  0.49991149
   0.50000000  0.55359925  0.53854113
   0.50000000  0.44640075  0.53854112
   0.55393391  0.50000000  0.46145887
   0.44606609  0.50000000  0.46145887

 position of ions in cartesian coordinates  (Angst):
   8.40682599  8.40052331  8.12496274
   8.40682598  9.30104691  8.75280268
   8.40682600  7.50000000  8.75280263
   9.31365196  8.40052342  7.50000000
   7.50000000  8.40052341  7.50000000



--------------------------------------------------------------------------------------------------------

--------------------------------------- Iteration      FINAL  ---------------------------------------


--------------------OUTCAR has been truncated-------------------------


--------------------OUTCAR has been truncated-------------------------


--------------------OUTCAR has been truncated-------------------------


--------------------OUTCAR has been truncated-------------------------


--------------------OUTCAR has been truncated-------------------------


--------------------OUTCAR has been truncated-------------------------


--------------------OUTCAR has been truncated-------------------------


--------------------OUTCAR has been truncated-------------------------


--------------------OUTCAR has been truncated-------------------------


--------------------OUTCAR has been truncated-------------------------


  FORCE on cell =-STRESS in cart. coord.  units (eV):
  Direction    XX          YY          ZZ          XY          YZ          ZX
  --------------------------------------------------------------------------------------
  Alpha Z     0.05276     0.05276     0.05276
  Ewald      60.08624    59.78064    59.41098    -0.00000    -0.00001     0.00000
  Hartree   110.79265   110.63413   112.41724     0.00000    -0.00000    -0.00000
  E(xc)     -27.24455   -27.24928   -27.27182    -0.00000    -0.00000    -0.00000
  Local    -229.01252  -228.52572  -230.48328    -0.00000     0.00001    -0.00000
  n-local   -16.00111   -16.02665   -16.01804    -0.00000     0.00000    -0.00000
  augment     0.13812     0.13730     0.14151     0.00000     0.00000     0.00000
  Kinetic   100.80368   101.02634   101.74493     0.00000     0.00000     0.00000
  Fock        0.00000     0.00000     0.00000     0.00000     0.00000     0.00000
  -------------------------------------------------------------------------------------
  Total      -0.38473    -0.17047    -0.00572    -0.00000    -0.00000    -0.00000
  in kB      -0.13426    -0.05949    -0.00200    -0.00000    -0.00000    -0.00000
  external pressure =       -0.07 kB  Pullay stress =        0.00 kB


 VOLUME and BASIS-vectors are now :
 -----------------------------------------------------------------------------
  energy-cutoff  :      600.00
  volume of cell :     4591.20
      direct lattice vectors                 reciprocal lattice vectors
    16.813651958  0.000000000  0.000000000     0.059475479  0.000000000  0.000000000
     0.000000000 16.801046915  0.000000000     0.000000000  0.059520100  0.000000000
     0.000000000  0.000000000 16.252802685     0.000000000  0.000000000  0.061527850

  length of vectors
    16.813651958 16.801046915 16.252802685     0.059475479  0.059520100  0.061527850


 FORCES acting on ions:
    Electron-Ion                     Ewald-Force                    Non-Local-Force
 -----------------------------------------------------------------------------------------------
   -.925E-06 -.380E-05 0.686E+00   -.139E-05 0.748E-05 -.773E+00   0.231E-05 0.403E-05 0.105E-01
   0.449E-06 -.436E+02 -.304E+02   -.307E-06 0.481E+02 0.336E+02   -.819E-07 -.457E+01 -.316E+01
   -.751E-06 0.436E+02 -.304E+02   0.913E-06 -.481E+02 0.336E+02   -.183E-06 0.457E+01 -.316E+01
   -.436E+02 -.487E-05 0.301E+02   0.479E+02 0.512E-05 -.332E+02   -.454E+01 -.736E-06 0.310E+01
   0.436E+02 -.410E-05 0.301E+02   -.479E+02 0.433E-05 -.332E+02   0.454E+01 -.569E-06 0.310E+01
 -----------------------------------------------------------------------------------------------
   0.348E-06 -.619E-05 0.109E+00   0.711E-14 -.253E-14 0.000E+00   0.234E-05 0.577E-05 -.109E+00


 POSITION                                       TOTAL-FORCE (eV/Angst)
 -----------------------------------------------------------------------------------
      8.40683      8.40052      8.12496        -0.000001      0.000008     -0.075342
      8.40683      9.30105      8.75280        -0.000000     -0.067235      0.036118
      8.40683      7.50000      8.75280        -0.000001      0.067228      0.036123
      9.31365      8.40052      7.50000        -0.184967     -0.000000      0.001550
      7.50000      8.40052      7.50000         0.184969     -0.000000      0.001552
 -----------------------------------------------------------------------------------
    total drift:                                0.000003     -0.000000     -0.000005


--------------------------------------------------------------------------------------------------------



  FREE ENERGIE OF THE ION-ELECTRON SYSTEM (eV)
  ---------------------------------------------------
  free  energy   TOTEN  =       -22.61809582 eV

  energy  without entropy=      -22.61809582  energy(sigma->0) =      -22.61809582



--------------------------------------------------------------------------------------------------------


    POTLOK:  cpu time      1.0754: real time      1.0759


--------------------------------------------------------------------------------------------------------


     LOOP+:  cpu time     46.7063: real time     46.7670
    4ORBIT:  cpu time      0.0000: real time      0.0000

 total amount of memory used by VASP MPI-rank0    66498. kBytes
=======================================================================

   base      :      30000. kBytes
   nonl-proj :       3983. kBytes
   fftplans  :      13026. kBytes
   grid      :      18565. kBytes
   one-center:          3. kBytes
   wavefun   :        921. kBytes

  
  
 General timing and accounting informations for this job:
 ========================================================
  
                  Total CPU time used (sec):       63.910
                            User time (sec):       61.880
                          System time (sec):        2.030
                         Elapsed time (sec):       67.813
  
                   Maximum memory used (kb):      341640.
                   Average memory used (kb):          N/A
  
                          Minor page faults:        77067
                          Major page faults:         1115
                 Voluntary context switches:         8645
