 **********************************************************************
                          MRCC program system
 **********************************************************************
 
                              Written by
     Mihaly Kallay, Peter R. Nagy, David Mester, Laszlo Gyevi-Nagy,
        Jozsef Csoka, P. Bernat Szabo, Zoltan Rolik, Gyula Samu,
     Jozsef Csontos, Bence Hegely, Adam Ganyecz, Istvan Ladjanszki,
       Lorant Szegedy, Bence Ladoczki, Klara Petrov, Mate Farkas,
                    Pal D. Mezei, and Reka A. Horvath
 
        Department of Physical Chemistry and Materials Science
            Budapest University of Technology and Economics
                  Budapest P.O.Box 91, H-1521 Hungary
 
                              www.mrcc.hu
 
                      Release date: March 18, 2022

 ************************ 2023-02-05 13:28:03 *************************
 Executing minp...

 Reading input from MINP...
 
 Input file:
 
calc=FNO-CCSD(T)
verbosity=3
mem=220GB
unit=angs
scfiguess=small
scfalg=locfit1
ccmaxit=400
ccsdalg=dfdirect
ccsdthreads=4
ccsdmkl=thr
ptthreads=4
lnoepsv=1e-5
naf_cor=1e-2
basis=aug-cc-pVQZ
basis_sm=def2-SVP
dfbasis_scf=def2-QZVPP-RI-JK
dfbasis_cor=aug-cc-pVQZ-RI
unit=angs
geom=xyz
16

C    34.41670262    34.07107264    10.41543014
C    33.11117461    33.45680459    10.91530835
H    34.24160149    35.00442132     9.86225048
H    34.94674030    33.36940783     9.75379242
H    35.10002891    34.30603621    11.24227357
H    32.42643037    33.26105434    10.07939442
H    32.59136835    34.12756100    11.61262818
H    33.28915165    32.50678735    11.43686767
C    20.41949695    27.74053668    10.40840413
C    21.71921254    27.12669671    10.92356358
H    19.89421274    27.03634178     9.74574003
H    20.60154528    28.67149383     9.85293887
H    19.72845280    27.98114066    11.22701403
H    22.41312130    26.93003715    10.09557036
H    21.53496881    26.17717467    11.44395536
H    22.23131028    27.79828785    11.62583355

--------------------Output has been truncated-------------------------


--------------------Output has been truncated-------------------------


--------------------Output has been truncated-------------------------


--------------------Output has been truncated-------------------------


--------------------Output has been truncated-------------------------


--------------------Output has been truncated-------------------------


--------------------Output has been truncated-------------------------


--------------------Output has been truncated-------------------------


--------------------Output has been truncated-------------------------


--------------------Output has been truncated-------------------------


 
 Reference energy [au]:                      -158.528862259223
 DF-MP2 singlet pair energy [au]:              -0.635446235207
 DF-MP2 triplet pair energy [au]:              -0.153813726261
 DF-SCS-MP2 correlation energy [au]:           -0.813806724335
 DF-SCS-MP2 energy [au]:                     -159.342668983559
 DF-SOS-MP2 correlation energy [au]:           -0.826080105769
 DF-SOS-MP2 energy [au]:                     -159.354942364992
 DF-MP2 correlation energy [au]:               -0.789259961468
 DF-MP2 energy [au]:                         -159.318122220691

 Results in FNO basis:
 
 
 Reference energy [au]:                      -158.528862259223
 DF-MP2 singlet pair energy [au]:              -0.625098933356
 DF-MP2 triplet pair energy [au]:              -0.153241921177
 DF-SCS-MP2 correlation energy [au]:           -0.801199360419
 DF-SCS-MP2 energy [au]:                     -159.330061619642
 DF-SOS-MP2 correlation energy [au]:           -0.812628613362
 DF-SOS-MP2 energy [au]:                     -159.341490872586
 DF-MP2 correlation energy [au]:               -0.778340854532
 DF-MP2 energy [au]:                         -159.307203113756

 Results in NAF basis:
 
 
 Reference energy [au]:                      -158.528862259223
 DF-MP2 singlet pair energy [au]:              -0.625056530003
 DF-MP2 triplet pair energy [au]:              -0.153258097437
 DF-SCS-MP2 correlation energy [au]:           -0.801153868482
 DF-SCS-MP2 energy [au]:                     -159.330016127706
 DF-SOS-MP2 correlation energy [au]:           -0.812573489004
 DF-SOS-MP2 energy [au]:                     -159.341435748227
 DF-MP2 correlation energy [au]:               -0.778314627439
 DF-MP2 energy [au]:                         -159.307176886663

 ************************ 2023-02-05 13:30:24 *************************
 Executing ccsd...

 Allocation of 220.0 Gbytes of memory...

 Direct DF-CCSD(T) calculation
 
 Convergence criterion:  1.0E-06
 
 Number of occupied/virtual/auxiliary orbitals:    14   350  1101
   6894.54 MB is the minimal memory requirement for (T)
   1573.93 MB is the minimal memory requirement for CCSD
 
 Reference energy [au]:            -158.528862259223
 T1 contribution [au]:                0.000000000000
 Same spin MP2 energy [au]:          -0.153250003953
 Opposite spin MP2 energy [au]:      -0.625077721846
 MP2 correlation energy [au]:        -0.778327725799
 Total MP2 energy [au]:            -159.307189985022
 MP2 correction [au]:                -0.010932235669
 
 
 CPU time [min]:     1.642                   Wall time [min]:     0.565
 
 Starting CCSD iterations...
 
                     Residual norm          Energy
 Iteration  1        0.253997447866     -159.343015637904
 Iteration  2        0.062948649888     -159.362180090830
 Iteration  3        0.018511890407     -159.364451587410
 Iteration  4        0.003748100944     -159.364466029695
 Iteration  5        0.000793333361     -159.364477760621
 Iteration  6        0.000221934567     -159.364481861710
 Iteration  7        0.000052461839     -159.364481411584
 Iteration  8        0.000014140756     -159.364482139333
 Iteration  9        0.000002817658     -159.364482096511
 
 CCSD iteration has converged in  9 steps.
    59038.48 MB memory was utilized by CCSD
 
 T1 diagnostic:      8.231E-03            D1 diagnostic:      1.428E-02
 
 T1 contribution [au]:                                  0.000000000000
 PPL energy contribution [au]:                          0.217871153309
 Scaled PPL energy contribution [au]:                   0.220950742647

 OS-PPL energy contribution [au]:                       0.191084623616
 Scaled OS-PPL energy contribution [au]:                0.194274628359
 SS-PPL energy contribution [au]:                       0.026786529692
 Scaled SS-PPL energy contribution [au]:                0.026882663112

 Opposite spin CCSD energy [au]:                       -0.690281652214
 Same spin CCSD energy [au]:                           -0.145353840736
 CCSD correlation energy [au]:                         -0.835635492950
 CCSD correlation energy + MP2 correction [au]:        -0.846567728619
 CCSD correlation energy + MP2 + PPL corr. [au]:       -0.843488139281
 Total CCSD energy [au]:                             -159.364497752173
 Total CCSD energy + MP2 correction [au]:            -159.375429987842
 Total CCSD energy + MP2 + PPL corr. [au]:           -159.372350398504
 
 CPU time [min]:   154.950                   Wall time [min]:     5.462
 
 Calculation of (T) correction...
 
 
     8827.33 MB memory is utilized for (T)

 0%       25%       50%       75%       100%
 |---------|---------|---------|---------| 
 
 (T) correction [au]:                                    -0.029525585883
 (T*) correction [au]:                                   -0.029940296361
 (T+) correction [au]:                                   -0.029933240585
 CCSD(T) correlation energy [au]:                        -0.865161078833
 CCSD(T) correlation energy + MP2 correction [au]:       -0.876093314502
 CCSD(T+) correlation en. + MP2 + PPL corr. [au]:        -0.873421379865
 Total CCSD(T) energy [au]:                            -159.394023338056
 Total CCSD(T) energy + MP2 correction [au]:           -159.404955573725
 Total CCSD(T+) energy + MP2 + PPL corr. [au]:         -159.402283639089
 
 CPU time [min]:   275.830                   Wall time [min]:     9.079
 
 ************************ 2023-02-05 13:39:29 *************************
                      Normal termination of mrcc.
 **********************************************************************
