 **********************************************************************
                          MRCC program system
 **********************************************************************
 
                              Written by
     Mihaly Kallay, Peter R. Nagy, David Mester, Laszlo Gyevi-Nagy,
        Jozsef Csoka, P. Bernat Szabo, Zoltan Rolik, Gyula Samu,
     Jozsef Csontos, Bence Hegely, Adam Ganyecz, Istvan Ladjanszki,
       Lorant Szegedy, Bence Ladoczki, Klara Petrov, Mate Farkas,
                    Pal D. Mezei, and Reka A. Horvath
 
        Department of Physical Chemistry and Materials Science
            Budapest University of Technology and Economics
                  Budapest P.O.Box 91, H-1521 Hungary
 
                              www.mrcc.hu
 
                      Release date: March 18, 2022

 ************************ 2023-02-05 13:28:54 *************************
 Executing minp...

 Reading input from MINP...
 
 Input file:
 
calc=FNO-CCSD(T)
verbosity=3
mem=220GB
unit=angs
scfiguess=small
scfalg=locfit1
ccmaxit=400
ccsdalg=dfdirect
ccsdthreads=4
ccsdmkl=thr
ptthreads=4
lnoepsv=1e-5
naf_cor=1e-2
basis=aug-cc-pVQZ
basis_sm=def2-SVP
dfbasis_scf=def2-QZVPP-RI-JK
dfbasis_cor=aug-cc-pVQZ-RI
unit=angs
geom=xyz
16

C    34.41670262    34.07107264    10.41543014
C    33.11117461    33.45680459    10.91530835
H    34.24160149    35.00442132     9.86225048
H    34.94674030    33.36940783     9.75379242
H    35.10002891    34.30603621    11.24227357
H    32.42643037    33.26105434    10.07939442
H    32.59136835    34.12756100    11.61262818
H    33.28915165    32.50678735    11.43686767
C    25.97573568    29.85060628    10.41548088
C    24.67017836    29.23631074    10.91529140
H    25.80053312    30.78404540     9.86250154
H    26.50570813    29.14873389     9.75399090
H    26.65931845    30.08569049    11.24209422
H    23.98530395    29.04041272    10.07951373
H    24.15034095    29.90724332    11.61243196
H    24.84823997    28.28620799    11.43663402

--------------------Output has been truncated-------------------------


--------------------Output has been truncated-------------------------


--------------------Output has been truncated-------------------------


--------------------Output has been truncated-------------------------


--------------------Output has been truncated-------------------------


--------------------Output has been truncated-------------------------


--------------------Output has been truncated-------------------------


--------------------Output has been truncated-------------------------


--------------------Output has been truncated-------------------------


--------------------Output has been truncated-------------------------


 
 Reference energy [au]:                      -158.528872927312
 DF-MP2 singlet pair energy [au]:              -0.635456469920
 DF-MP2 triplet pair energy [au]:              -0.153821585103
 DF-SCS-MP2 correlation energy [au]:           -0.813821625604
 DF-SCS-MP2 energy [au]:                     -159.342694552917
 DF-SOS-MP2 correlation energy [au]:           -0.826093410895
 DF-SOS-MP2 energy [au]:                     -159.354966338208
 DF-MP2 correlation energy [au]:               -0.789278055022
 DF-MP2 energy [au]:                         -159.318150982335

 Results in FNO basis:
 
 
 Reference energy [au]:                      -158.528872927312
 DF-MP2 singlet pair energy [au]:              -0.625106089031
 DF-MP2 triplet pair energy [au]:              -0.153249047547
 DF-SCS-MP2 correlation energy [au]:           -0.801210322686
 DF-SCS-MP2 energy [au]:                     -159.330083249999
 DF-SOS-MP2 correlation energy [au]:           -0.812637915741
 DF-SOS-MP2 energy [au]:                     -159.341510843053
 DF-MP2 correlation energy [au]:               -0.778355136578
 DF-MP2 energy [au]:                         -159.307228063891

 Results in NAF basis:
 
 
 Reference energy [au]:                      -158.528872927312
 DF-MP2 singlet pair energy [au]:              -0.625063388809
 DF-MP2 triplet pair energy [au]:              -0.153264872187
 DF-SCS-MP2 correlation energy [au]:           -0.801164357300
 DF-SCS-MP2 energy [au]:                     -159.330037284612
 DF-SOS-MP2 correlation energy [au]:           -0.812582405452
 DF-SOS-MP2 energy [au]:                     -159.341455332764
 DF-MP2 correlation energy [au]:               -0.778328260996
 DF-MP2 energy [au]:                         -159.307201188309

 ************************ 2023-02-05 13:31:26 *************************
 Executing ccsd...

 Allocation of 220.0 Gbytes of memory...

 Direct DF-CCSD(T) calculation
 
 Convergence criterion:  1.0E-06
 
 Number of occupied/virtual/auxiliary orbitals:    14   350  1101
   6894.54 MB is the minimal memory requirement for (T)
   1573.93 MB is the minimal memory requirement for CCSD
 
 Reference energy [au]:            -158.528872927312
 T1 contribution [au]:                0.000000000000
 Same spin MP2 energy [au]:          -0.153256954392
 Opposite spin MP2 energy [au]:      -0.625084728930
 MP2 correlation energy [au]:        -0.778341683322
 Total MP2 energy [au]:            -159.307214610635
 MP2 correction [au]:                -0.010936371700
 
 
 CPU time [min]:     1.654                   Wall time [min]:     0.568
 
 Starting CCSD iterations...
 
                     Residual norm          Energy
 Iteration  1        0.252126836244     -159.343038841510
 Iteration  2        0.062509269684     -159.362219667883
 Iteration  3        0.018349911874     -159.364476499018
 Iteration  4        0.003724791200     -159.364488822295
 Iteration  5        0.000788055785     -159.364500533312
 Iteration  6        0.000220730419     -159.364504521064
 Iteration  7        0.000052244071     -159.364504051951
 Iteration  8        0.000014069587     -159.364504775737
 Iteration  9        0.000002787778     -159.364504730710
 
 CCSD iteration has converged in  9 steps.
    59038.48 MB memory was utilized by CCSD
 
 T1 diagnostic:      8.231E-03            D1 diagnostic:      1.428E-02
 
 T1 contribution [au]:                                  0.000000000000
 PPL energy contribution [au]:                          0.217870817683
 Scaled PPL energy contribution [au]:                   0.220951609480

 OS-PPL energy contribution [au]:                       0.191084109496
 Scaled OS-PPL energy contribution [au]:                0.194275111444
 SS-PPL energy contribution [au]:                       0.026786708187
 Scaled SS-PPL energy contribution [au]:                0.026883031683

 Opposite spin CCSD energy [au]:                       -0.690286798912
 Same spin CCSD energy [au]:                           -0.145360976720
 CCSD correlation energy [au]:                         -0.835647775632
 CCSD correlation energy + MP2 correction [au]:        -0.846584147332
 CCSD correlation energy + MP2 + PPL corr. [au]:       -0.843503355535
 Total CCSD energy [au]:                             -159.364520702944
 Total CCSD energy + MP2 correction [au]:            -159.375457074645
 Total CCSD energy + MP2 + PPL corr. [au]:           -159.372376282847
 
 CPU time [min]:   154.654                   Wall time [min]:     5.466
 
 Calculation of (T) correction...
 
 
     8827.33 MB memory is utilized for (T)

 0%       25%       50%       75%       100%
 |---------|---------|---------|---------| 
 
 (T) correction [au]:                                    -0.029527998250
 (T*) correction [au]:                                   -0.029942892083
 (T+) correction [au]:                                   -0.029935848566
 CCSD(T) correlation energy [au]:                        -0.865175773882
 CCSD(T) correlation energy + MP2 correction [au]:       -0.876112145582
 CCSD(T+) correlation en. + MP2 + PPL corr. [au]:        -0.873439204101
 Total CCSD(T) energy [au]:                            -159.394048701194
 Total CCSD(T) energy + MP2 correction [au]:           -159.404985072895
 Total CCSD(T+) energy + MP2 + PPL corr. [au]:         -159.402312131413
 
 CPU time [min]:   276.632                   Wall time [min]:     9.097
 
 ************************ 2023-02-05 13:40:32 *************************
                      Normal termination of mrcc.
 **********************************************************************
