 vasp.6.3.0 20Jan22 (build Dec 25 2023 18:06:01) complex                         
 executed on        HPECrayEX_GCC date 2024.01.24  06:34:25
 running  768 mpi-ranks, with    1 threads/rank
 distrk:  each k-point on  768 cores,    1 groups
 distr:  one band on NCORE=   8 cores,   96 groups


--------------------------------------------------------------------------------------------------------


 INCAR:
   SYSTEM = MgO-rocksalt
   ISMEAR = 0
   SIGMA = 0.05
   EDIFF = 1E-8
   ALGO = ALL
   ISTART = 0
   IBRION = 5
   POTIM = 0.01
   NFREE = 2
   ISYM = 0
   DIPOL = 0.5 0.5 0.5
   IDIPOL = 3
   LDIPOL = .TRUE.
   GGA = RE
   IVDW = 13
   VDW_S8 = 1.7468
   VDW_A1 = 0.5363
   VDW_A2 = 3.0726
   ENCUT = 600
   PREC = Accurate
   LASPH = .TRUE.
   LREAL = .FALSE.
   ISPIN = 1
   NELM = 200
   NELMIN = 8
   NCORE = 8
   KPAR = 1
   LWAVE = .FALSE.
   LCHARG = .FALSE.

 POTCAR:    PAW_PBE N 08Apr2002                   
 POTCAR:    PAW_PBE H 15Jun2001                   
 POTCAR:    PAW_PBE Ti_pv 07Sep2000               
 POTCAR:    PAW_PBE O 08Apr2002                   
 POTCAR:    PAW_PBE N 08Apr2002                   
   SHA256 =  e053789ff3a61a86a1b75d8a110fcc91f86041011e7b0817c7c99e4e8a6349d7 N/POTCAR              
   COPYR  = (c) Copyright 08Apr2002 Georg Kresse                                                    
   COPYR  = This file is part of the software VASP. Any use, copying, and all other rights are regul
   COPYR  = If you do not have a valid VASP license, you may not use, copy or distribute this file. 
   VRHFIN =N: s2p3                                                                                  
   LEXCH  = PE                                                                                      
   EATOM  =   264.5486 eV,   19.4438 Ry                                                             
                                                                                                    
   TITEL  = PAW_PBE N 08Apr2002                                                                     
   LULTRA =        F    use ultrasoft PP ?                                                          
   IUNSCR =        1    unscreen: 0-lin 1-nonlin 2-no                                               
   RPACOR =    1.200    partial core radius                                                         
   POMASS =   14.001; ZVAL   =    5.000    mass and valenz                                          
   RCORE  =    1.500    outmost cutoff radius                                                       
   RWIGS  =    1.400; RWIGS  =    0.741    wigner-seitz radius (au A)                               
   ENMAX  =  400.000; ENMIN  =  300.000 eV                                                          
   ICORE  =        2    local potential                                                             
   LCOR   =        T    correct aug charges                                                         
   LPAW   =        T    paw PP                                                                      
   EAUG   =  627.112                                                                                
   DEXC   =    0.000                                                                                
   RMAX   =    1.529    core radius for proj-oper                                                   
   RAUG   =    1.300    factor for augmentation sphere                                              
   RDEP   =    1.514    radius for radial grids                                                     
   RDEPT  =    1.338    core radius for aug-charge                                                  
                                                                                                    
   Atomic configuration                                                                             
    4 entries                                                                                       
     n  l   j            E        occ.                                                              
     1  0  0.50      -384.7179   2.0000                                                             
     2  0  0.50       -18.5828   2.0000                                                             
     2  1  0.50        -7.0898   3.0000                                                             
     3  2  1.50        -6.8029   0.0000                                                             
   Description                                                                                      
     l       E           TYP  RCUT    TYP  RCUT                                                     
     0    -18.5828119     23  1.200                                                                 
     0    -13.5018863     23  1.200                                                                 
     1     -7.0897853     23  1.500                                                                 
     1      9.5240782     23  1.500                                                                 
     2     -6.8029130      7  1.500                                                                 
  local pseudopotential read in
  partial core-charges read in
  partial kinetic energy density read in
  atomic valenz-charges read in
  non local Contribution for L=           0  read in
    real space projection operators read in
  non local Contribution for L=           0  read in
    real space projection operators read in
  non local Contribution for L=           1  read in
    real space projection operators read in
  non local Contribution for L=           1  read in
    real space projection operators read in
    PAW grid and wavefunctions read in

   number of l-projection  operators is LMAX  =           4
   number of lm-projection operators is LMMAX =           8

 POTCAR:    PAW_PBE H 15Jun2001                   
   SHA256 =  030f79b5d3ab3cf0e668861823c8fb652ff669f3e15e46930bd03bfd63a607b6 H/POTCAR              
   COPYR  = (c) Copyright 15Jun2001 Georg Kresse                                                    
   COPYR  = This file is part of the software VASP. Any use, copying, and all other rights are regul
   COPYR  = If you do not have a valid VASP license, you may not use, copy or distribute this file. 
   VRHFIN =H: ultrasoft test                                                                        
   LEXCH  = PE                                                                                      
   EATOM  =    12.4884 eV,    0.9179 Ry                                                             
                                                                                                    
   TITEL  = PAW_PBE H 15Jun2001                                                                     
   LULTRA =        F    use ultrasoft PP ?                                                          
   IUNSCR =        0    unscreen: 0-lin 1-nonlin 2-no                                               
   RPACOR =    0.000    partial core radius                                                         
   POMASS =    1.000; ZVAL   =    1.000    mass and valenz                                          
   RCORE  =    1.100    outmost cutoff radius                                                       
   RWIGS  =    0.700; RWIGS  =    0.370    wigner-seitz radius (au A)                               
   ENMAX  =  250.000; ENMIN  =  200.000 eV                                                          
   RCLOC  =    0.701    cutoff for local pot                                                        
   LCOR   =        T    correct aug charges                                                         
   LPAW   =        T    paw PP                                                                      
   EAUG   =  400.000                                                                                
   RMAX   =    1.123    core radius for proj-oper                                                   
   RAUG   =    1.200    factor for augmentation sphere                                              
   RDEP   =    1.112    radius for radial grids                                                     
   RDEPT  =    0.926    core radius for aug-charge                                                  
                                                                                                    
   Atomic configuration                                                                             
    2 entries                                                                                       
     n  l   j            E        occ.                                                              
     1  0  0.50        -6.4927   1.0000                                                             
     2  1  0.50        -3.4015   0.0000                                                             
   Description                                                                                      
     l       E           TYP  RCUT    TYP  RCUT                                                     
     0     -6.4927494     23  1.100                                                                 
     0      6.8029130     23  1.100                                                                 
     1     -4.0817478     23  1.100                                                                 
  local pseudopotential read in
  atomic valenz-charges read in
  non local Contribution for L=           0  read in
    real space projection operators read in
  non local Contribution for L=           0  read in
    real space projection operators read in
  non local Contribution for L=           1  read in
    real space projection operators read in
    PAW grid and wavefunctions read in

   number of l-projection  operators is LMAX  =           3
   number of lm-projection operators is LMMAX =           5

 POTCAR:    PAW_PBE Ti_pv 07Sep2000               
   SHA256 =  f757a1b2c6d082f4c628fa3d987464a8763bf92e53844ac0500b0e2ddc9ce5c0 Ti_pv/POTCAR          
   COPYR  = (c) Copyright 07Sep2000 Georg Kresse                                                    
   COPYR  = This file is part of the software VASP. Any use, copying, and all other rights are regul
   COPYR  = If you do not have a valid VASP license, you may not use, copy or distribute this file. 
   VRHFIN =Ti: d3 s1                                                                                
   LEXCH  = PE                                                                                      
   EATOM  =  1042.5995 eV,   76.6289 Ry                                                             
                                                                                                    
   TITEL  = PAW_PBE Ti_pv 07Sep2000                                                                 
   LULTRA =        F    use ultrasoft PP ?                                                          
   IUNSCR =        1    unscreen: 0-lin 1-nonlin 2-no                                               
   RPACOR =    2.200    partial core radius                                                         
   POMASS =   47.880; ZVAL   =   10.000    mass and valenz                                          
   RCORE  =    2.500    outmost cutoff radius                                                       
   RWIGS  =    2.500; RWIGS  =    1.323    wigner-seitz radius (au A)                               
   ENMAX  =  222.335; ENMIN  =  166.751 eV                                                          
   RCLOC  =    1.701    cutoff for local pot                                                        
   LCOR   =        T    correct aug charges                                                         
   LPAW   =        T    paw PP                                                                      
   EAUG   =  482.848                                                                                
   DEXC   =    0.000                                                                                
   RMAX   =    2.564    core radius for proj-oper                                                   
   RAUG   =    1.300    factor for augmentation sphere                                              
   RDEP   =    2.538    radius for radial grids                                                     
   RDEPT  =    1.952    core radius for aug-charge                                                  
                                                                                                    
   Atomic configuration                                                                             
    8 entries                                                                                       
     n  l   j            E        occ.                                                              
     1  0  0.50     -4865.3608   2.0000                                                             
     2  0  0.50      -533.1368   2.0000                                                             
     2  1  1.50      -440.5031   6.0000                                                             
     3  0  0.50       -59.3186   2.0000                                                             
     3  1  1.50       -35.7012   6.0000                                                             
     3  2  2.50        -1.9157   3.0000                                                             
     4  0  0.50        -3.7291   1.0000                                                             
     4  3  2.50        -1.3606   0.0000                                                             
   Description                                                                                      
     l       E           TYP  RCUT    TYP  RCUT                                                     
     1    -35.7012140     23  2.300                                                                 
     1     -1.3605826     23  2.300                                                                 
     2     -1.9156996     23  2.500                                                                 
     2     -0.4063033     23  2.500                                                                 
     0     -3.7290856     23  2.500                                                                 
     0     20.4087390     23  2.500                                                                 
  local pseudopotential read in
  partial core-charges read in
  partial kinetic energy density read in
  atomic valenz-charges read in
  non local Contribution for L=           1  read in
    real space projection operators read in
  non local Contribution for L=           1  read in
    real space projection operators read in
  non local Contribution for L=           2  read in
    real space projection operators read in
  non local Contribution for L=           2  read in
    real space projection operators read in
  non local Contribution for L=           0  read in
    real space projection operators read in
  non local Contribution for L=           0  read in
    real space projection operators read in
    PAW grid and wavefunctions read in

   number of l-projection  operators is LMAX  =           6
   number of lm-projection operators is LMMAX =          18

 POTCAR:    PAW_PBE O 08Apr2002                   
   SHA256 =  818f92134a0a090dccd8ba1447fa70422a3b330e708bb4f08108d8ae51209ddf O/POTCAR              
   COPYR  = (c) Copyright 08Apr2002 Georg Kresse                                                    
   COPYR  = This file is part of the software VASP. Any use, copying, and all other rights are regul
   COPYR  = If you do not have a valid VASP license, you may not use, copy or distribute this file. 
   VRHFIN =O: s2p4                                                                                  
   LEXCH  = PE                                                                                      
   EATOM  =   432.3788 eV,   31.7789 Ry                                                             
                                                                                                    
   TITEL  = PAW_PBE O 08Apr2002                                                                     
   LULTRA =        F    use ultrasoft PP ?                                                          
   IUNSCR =        1    unscreen: 0-lin 1-nonlin 2-no                                               
   RPACOR =    1.200    partial core radius                                                         
   POMASS =   16.000; ZVAL   =    6.000    mass and valenz                                          
   RCORE  =    1.520    outmost cutoff radius                                                       
   RWIGS  =    1.550; RWIGS  =    0.820    wigner-seitz radius (au A)                               
   ENMAX  =  400.000; ENMIN  =  300.000 eV                                                          
   ICORE  =        2    local potential                                                             
   LCOR   =        T    correct aug charges                                                         
   LPAW   =        T    paw PP                                                                      
   EAUG   =  605.392                                                                                
   DEXC   =    0.000                                                                                
   RMAX   =    1.553    core radius for proj-oper                                                   
   RAUG   =    1.300    factor for augmentation sphere                                              
   RDEP   =    1.550    radius for radial grids                                                     
   RDEPT  =    1.329    core radius for aug-charge                                                  
                                                                                                    
   Atomic configuration                                                                             
    4 entries                                                                                       
     n  l   j            E        occ.                                                              
     1  0  0.50      -514.6923   2.0000                                                             
     2  0  0.50       -23.9615   2.0000                                                             
     2  1  0.50        -9.0305   4.0000                                                             
     3  2  1.50        -9.5241   0.0000                                                             
   Description                                                                                      
     l       E           TYP  RCUT    TYP  RCUT                                                     
     0    -23.9615318     23  1.200                                                                 
     0     -9.5240782     23  1.200                                                                 
     1     -9.0304911     23  1.520                                                                 
     1      8.1634956     23  1.520                                                                 
     2     -9.5240782      7  1.500                                                                 
  local pseudopotential read in
  partial core-charges read in
  partial kinetic energy density read in
  kinetic energy density of atom read in
  atomic valenz-charges read in
  non local Contribution for L=           0  read in
    real space projection operators read in
  non local Contribution for L=           0  read in
    real space projection operators read in
  non local Contribution for L=           1  read in
    real space projection operators read in
  non local Contribution for L=           1  read in
    real space projection operators read in
    PAW grid and wavefunctions read in

   number of l-projection  operators is LMAX  =           4
   number of lm-projection operators is LMMAX =           8

 -----------------------------------------------------------------------------
|                                                                             |
|               ----> ADVICE to this user running VASP <----                  |
|                                                                             |
|     You have a (more or less) 'large supercell' and for larger cells it     |
|     might be more efficient to use real-space projection operators.         |
|     Therefore, try LREAL= Auto in the INCAR file.                           |
|     Mind: For very accurate calculation, you might also keep the            |
|     reciprocal projection scheme (i.e. LREAL=.FALSE.).                      |
|                                                                             |
 -----------------------------------------------------------------------------

 -----------------------------------------------------------------------------
|                                                                             |
|               ----> ADVICE to this user running VASP <----                  |
|                                                                             |
|     You enforced a specific xc type in the INCAR file but a different       |
|     type was found in the POTCAR file.                                      |
|     I HOPE YOU KNOW WHAT YOU ARE DOING!                                     |
|                                                                             |
 -----------------------------------------------------------------------------

  PAW_PBE N 08Apr2002                   :
 energy of atom  1       EATOM= -264.5486
 kinetic energy error for atom=    0.0103 (will be added to EATOM!!)
  PAW_PBE H 15Jun2001                   :
 energy of atom  2       EATOM=  -12.4884
 kinetic energy error for atom=    0.0004 (will be added to EATOM!!)
  PAW_PBE Ti_pv 07Sep2000               :
 energy of atom  3       EATOM=-1042.5995
 kinetic energy error for atom=    0.0007 (will be added to EATOM!!)
  PAW_PBE O 08Apr2002                   :
 energy of atom  4       EATOM= -432.3788
 kinetic energy error for atom=    0.0168 (will be added to EATOM!!)


 POSCAR:  N  H Ti  O
  positions in direct lattice
  No initial velocities read in
 -----------------------------------------------------------------------------
|                                                                             |
|           W    W    AA    RRRRR   N    N  II  N    N   GGGG   !!!           |
|           W    W   A  A   R    R  NN   N  II  NN   N  G    G  !!!           |
|           W    W  A    A  R    R  N N  N  II  N N  N  G       !!!           |
|           W WW W  AAAAAA  RRRRR   N  N N  II  N  N N  G  GGG   !            |
|           WW  WW  A    A  R   R   N   NN  II  N   NN  G    G                |
|           W    W  A    A  R    R  N    N  II  N    N   GGGG   !!!           |
|                                                                             |
|     Specifying the vdW parameters                                           |
|     VDW_S8 = 1.747                                                          |
|     VDW_A1 = 0.536                                                          |
|     VDW_A2 = 3.073                                                          |
|     in the INCAR file will overwrite the defaults for revpbe. Please        |
|     make sure that is what you intended.                                    |
|                                                                             |
 -----------------------------------------------------------------------------

 exchange correlation table for  LEXCH =       40
   RHO(1)=    0.500       N(1)  =     2000
   RHO(2)=  100.500       N(2)  =     4000



--------------------------------------------------------------------------------------------------------


 ion  position               nearest neighbor table
   1  0.612  0.500  0.778-   2 1.02   4 1.02   3 1.02  52 2.30
   2  0.549  0.500  0.807-   1 1.02
   3  0.671  0.428  0.781-   1 1.02
   4  0.671  0.572  0.781-   1 1.02
   5  0.808  0.833  0.295-  89 1.94  55 1.94  57 1.94  54 1.99  56 1.99  22 3.05   8 3.05   6 3.05

   6  0.592  0.667  0.327-  53 1.94 120 1.94  56 1.94  58 1.94  57 1.99  59 1.99  37 3.05   7 3.05
                             5 3.05  11 3.08
   7  0.308  0.667  0.295- 125 1.94  59 1.94  61 1.94  53 1.99  60 1.99  40 3.05   6 3.05   8 3.05

   8  0.092  0.833  0.327-  54 1.94  92 1.94  60 1.94  62 1.94  61 1.99  55 1.99  23 3.05   5 3.05
                             7 3.05   9 3.08
   9  0.944  0.833  0.423-  63 1.92  97 1.93  65 1.93  55 1.98  64 1.98  62 2.00  12 3.00  10 3.05
                            26 3.05   8 3.08
  10  0.726  0.666  0.451-  58 1.89 128 1.93  64 1.94  66 1.96  67 1.99  65 2.00  11 3.01   9 3.05
                            41 3.05  15 3.11
  11  0.444  0.666  0.423-  67 1.93 133 1.93  69 1.94  59 1.97  68 1.98  58 2.01  10 3.01  12 3.05
                            44 3.05   6 3.08
  12  0.225  0.833  0.452-  62 1.89 100 1.94  68 1.94  70 1.97  63 1.98  69 2.01   9 3.00  27 3.05
                            11 3.05  13 3.11
  13  0.085  0.833  0.550-  71 1.92 105 1.93  73 1.93  72 1.97  63 2.00  70 2.01  16 2.95  14 3.04
                            30 3.05  12 3.11
  14  0.865  0.666  0.576-  66 1.86 136 1.93  72 1.95  75 1.95  73 2.01  74 2.01  15 2.97  13 3.04
                            45 3.06  19 3.17
  15  0.584  0.666  0.550- 141 1.93  77 1.93  75 1.93  76 1.98  67 1.98  66 2.01  14 2.97  16 3.05
                            48 3.06  10 3.11
  16  0.363  0.833  0.576-  70 1.86 108 1.94  76 1.94  71 1.95  78 2.00  77 2.02  13 2.95  15 3.05
                            31 3.05
  17  0.231  0.833  0.680-  79 1.86  81 1.93 113 1.94  80 2.00  71 2.09  78 2.10  20 2.85  34 3.07
                            18 3.08
  18  0.001  0.666  0.700-  74 1.78  82 1.84 144 1.97  80 1.99  81 2.07  19 2.86  17 3.08  49 3.10

  19  0.729  0.667  0.678-  82 1.89 148 1.93  84 1.94  83 1.99  75 2.04  74 2.10  18 2.86  20 3.08
                            52 3.08  14 3.17
  20  0.503  0.835  0.700-  78 1.78  79 1.84  83 1.96 115 1.97  84 2.06  17 2.85  35 3.07  19 3.08

  21  0.808  0.167  0.295-  89 1.94  87 1.94 121 1.94  86 1.99  88 1.99  22 3.05  24 3.05  38 3.05

  22  0.592  0.000  0.327-  85 1.94  56 1.94  88 1.94  90 1.94  89 1.99  91 1.99   5 3.05  21 3.05
                            23 3.05  27 3.08
  23  0.308  0.000  0.295-  61 1.94  93 1.94  91 1.94  92 1.99  85 1.99  24 3.05   8 3.05  22 3.05

  24  0.092  0.167  0.327-  86 1.94  92 1.94 124 1.94  94 1.94  93 1.99  87 1.99  23 3.05  21 3.05
                            39 3.05  25 3.08
  25  0.944  0.167  0.423-  95 1.92  97 1.93 129 1.93  87 1.98  96 1.98  94 2.00  28 3.00  42 3.05
                            26 3.05  24 3.08
  26  0.726  1.000  0.451-  90 1.89  64 1.94  96 1.94  98 1.97  99 1.98  97 2.00  27 3.00   9 3.05
                            25 3.05  31 3.11
  27  0.444  0.000  0.423-  99 1.92 101 1.93  69 1.93  91 1.98 100 1.99  90 2.01  26 3.00  28 3.05
                            12 3.05  22 3.08
  28  0.225  0.167  0.452-  94 1.89 100 1.94 132 1.94 102 1.97  95 1.98 101 2.01  25 3.00  27 3.05
                            43 3.05  29 3.11
  29  0.085  0.167  0.550- 103 1.92 105 1.93 137 1.93 104 1.97  95 2.00 102 2.01  32 2.95  46 3.04
                            30 3.05  28 3.11
  30  0.863  0.000  0.576-  98 1.86 104 1.94  72 1.94 107 1.94 106 2.01 105 2.03  31 2.95  13 3.05
                            29 3.05
  31  0.585  1.000  0.550- 107 1.92  77 1.93 109 1.93 108 1.98  99 2.00  98 2.01  30 2.95  16 3.05
                            32 3.05  26 3.11
  32  0.363  0.167  0.576- 102 1.86 108 1.94 140 1.94 103 1.95 110 2.00 109 2.02  29 2.95  47 3.05
                            31 3.05
  33  0.231  0.167  0.680- 111 1.86 145 1.93 113 1.94 112 2.00 103 2.09 110 2.10  36 2.85  34 3.07
                            50 3.08
  34  0.003  1.000  0.700- 106 1.78 114 1.84  80 1.98 112 1.98 113 2.04  35 2.84  33 3.07  17 3.07

  35  0.733  1.000  0.680- 114 1.86  84 1.93 116 1.93 115 2.01 106 2.08 107 2.10  34 2.84  20 3.07
                            36 3.07
  36  0.503  0.165  0.700- 110 1.78 111 1.84 147 1.96 115 1.97 116 2.06  33 2.85  35 3.07  51 3.08

  37  0.808  0.500  0.295-  57 1.94 121 1.94 119 1.94 120 1.99 118 1.99   6 3.05  38 3.05  40 3.05

  38  0.592  0.333  0.327- 117 1.94 120 1.94  88 1.94 122 1.94 121 1.99 123 1.99  37 3.05  39 3.05
                            21 3.05  43 3.08
  39  0.308  0.333  0.295- 125 1.94 123 1.94  93 1.94 124 1.99 117 1.99  40 3.05  38 3.05  24 3.05

  40  0.092  0.500  0.327- 118 1.94  60 1.94 124 1.94 126 1.94 125 1.99 119 1.99  39 3.05   7 3.05
                            37 3.05  41 3.07
  41  0.946  0.500  0.422- 127 1.92  65 1.94 129 1.94 119 1.97 126 1.99 128 2.00  44 2.99  10 3.05
                            42 3.05  40 3.07
  42  0.726  0.334  0.451- 122 1.89 128 1.93  96 1.94 130 1.96 131 1.99 129 2.00  43 3.01  25 3.05
                            41 3.05  47 3.11
  43  0.444  0.334  0.423- 131 1.93 133 1.93 101 1.94 123 1.97 132 1.98 122 2.01  42 3.01  28 3.05
                            44 3.05  38 3.08
  44  0.226  0.500  0.453- 126 1.92  68 1.94 132 1.94 127 1.96 134 1.97 133 2.01  41 2.99  11 3.05
                            43 3.05  45 3.08
  45  0.088  0.500  0.550- 135 1.91 137 1.93  73 1.93 134 1.98 136 2.00 127 2.01  48 2.96  14 3.06
                            46 3.06  44 3.08
  46  0.865  0.334  0.576- 130 1.86 136 1.93 104 1.95 139 1.95 137 2.01 138 2.01  47 2.97  29 3.04
                            45 3.06  51 3.17
  47  0.584  0.334  0.550- 141 1.93 109 1.93 139 1.93 140 1.98 131 1.98 130 2.01  46 2.97  32 3.05
                            48 3.06  42 3.11
  48  0.365  0.500  0.580- 134 1.92  76 1.94 140 1.94 135 1.94 142 1.98 141 2.03  45 2.96  15 3.06
                            47 3.06  49 3.13
  49  0.235  0.500  0.681- 143 1.86 145 1.93  81 1.93 142 2.03 144 2.03 135 2.10  52 2.87  18 3.10
                            50 3.10  48 3.13
  50  0.001  0.334  0.700- 138 1.78 146 1.84 144 1.97 112 1.99 145 2.07  51 2.86  33 3.08  49 3.10

  51  0.729  0.333  0.678- 146 1.89 148 1.93 116 1.94 147 1.99 139 2.04 138 2.10  50 2.86  36 3.08
                            52 3.08  46 3.17
  52  0.506  0.500  0.706- 143 1.84 142 1.88  83 1.98 147 1.98 148 2.07   1 2.30  49 2.87  19 3.08
                            51 3.08
  53  0.488  0.667  0.269-   6 1.94   7 1.99
  54  0.988  0.833  0.269-   8 1.94   5 1.99
  55  0.911  0.833  0.353-   5 1.94   9 1.98   8 1.99
  56  0.627  0.833  0.321-  22 1.94   6 1.94   5 1.99
  57  0.772  0.667  0.300-  37 1.94   5 1.94   6 1.99
  58  0.624  0.667  0.395-  10 1.89   6 1.94  11 2.01
  59  0.411  0.667  0.353-   7 1.94  11 1.97   6 1.99
  60  0.127  0.667  0.321-  40 1.94   8 1.94   7 1.99
  61  0.272  0.833  0.300-  23 1.94   7 1.94   8 1.99
  62  0.124  0.833  0.395-  12 1.89   8 1.94   9 2.00
  63  0.049  0.833  0.480-   9 1.92  12 1.98  13 2.00
  64  0.764  0.833  0.448-  26 1.94  10 1.94   9 1.98
  65  0.909  0.667  0.427-   9 1.93  41 1.94  10 2.00
  66  0.763  0.666  0.520-  14 1.86  10 1.96  15 2.01
  67  0.549  0.666  0.480-  11 1.93  15 1.98  10 1.99
  68  0.264  0.667  0.448-  44 1.94  12 1.94  11 1.98
  69  0.408  0.833  0.427-  27 1.93  11 1.94  12 2.01
  70  0.263  0.833  0.521-  16 1.86  12 1.97  13 2.01
  71  0.192  0.833  0.607-  13 1.92  16 1.95  17 2.09
  72  0.903  0.833  0.573-  30 1.94  14 1.95  13 1.97
  73  0.050  0.667  0.553-  13 1.93  45 1.93  14 2.01
  74  0.913  0.667  0.645-  18 1.78  14 2.01  19 2.10
  75  0.693  0.668  0.606-  15 1.93  14 1.95  19 2.04
  76  0.404  0.667  0.575-  48 1.94  16 1.94  15 1.98
  77  0.549  0.833  0.553-  15 1.93  31 1.93  16 2.02
  78  0.412  0.836  0.646-  20 1.78  16 2.00  17 2.10
  79  0.347  0.833  0.732-  20 1.84  17 1.86
  80  0.052  0.833  0.709-  34 1.98  18 1.99  17 2.00
  81  0.195  0.666  0.681-  17 1.93  49 1.93  18 2.07
  82  0.843  0.664  0.731-  18 1.84  19 1.89
  83  0.553  0.669  0.707-  20 1.96  52 1.98  19 1.99
  84  0.696  0.834  0.679-  35 1.93  19 1.94  20 2.06
  85  0.488  0.000  0.269-  22 1.94  23 1.99
  86  0.988  0.167  0.269-  24 1.94  21 1.99
  87  0.911  0.167  0.353-  21 1.94  25 1.98  24 1.99
  88  0.627  0.167  0.321-  22 1.94  38 1.94  21 1.99
  89  0.772  0.000  0.300-   5 1.94  21 1.94  22 1.99
  90  0.624  0.000  0.395-  26 1.89  22 1.94  27 2.01
  91  0.411  0.000  0.353-  23 1.94  27 1.98  22 1.99
  92  0.127  0.000  0.321-   8 1.94  24 1.94  23 1.99
  93  0.272  0.167  0.300-  23 1.94  39 1.94  24 1.99
  94  0.124  0.167  0.395-  28 1.89  24 1.94  25 2.00
  95  0.049  0.167  0.480-  25 1.92  28 1.98  29 2.00
  96  0.764  0.167  0.448-  26 1.94  42 1.94  25 1.98
  97  0.909  0.000  0.427-  25 1.93   9 1.93  26 2.00
  98  0.763  0.000  0.520-  30 1.86  26 1.97  31 2.01
  99  0.549  1.000  0.480-  27 1.92  26 1.98  31 2.00
 100  0.264  0.000  0.448-  12 1.94  28 1.94  27 1.99
 101  0.408  0.167  0.427-  27 1.93  43 1.94  28 2.01
 102  0.263  0.167  0.521-  32 1.86  28 1.97  29 2.01
 103  0.192  0.167  0.607-  29 1.92  32 1.95  33 2.09
 104  0.903  0.167  0.573-  30 1.94  46 1.95  29 1.97
 105  0.051  0.000  0.553-  13 1.93  29 1.93  30 2.03
 106  0.913  0.000  0.646-  34 1.78  30 2.01  35 2.08
 107  0.693  1.000  0.606-  31 1.92  30 1.94  35 2.10
 108  0.403  0.000  0.573-  32 1.94  16 1.94  31 1.98
 109  0.549  0.167  0.553-  47 1.93  31 1.93  32 2.02
 110  0.412  0.164  0.646-  36 1.78  32 2.00  33 2.10
 111  0.347  0.167  0.732-  36 1.84  33 1.86
 112  0.052  0.167  0.709-  34 1.98  50 1.99  33 2.00
 113  0.195  0.000  0.681-  33 1.94  17 1.94  34 2.04
 114  0.846  0.000  0.732-  34 1.84  35 1.86
 115  0.555  0.000  0.709-  36 1.97  20 1.97  35 2.01
 116  0.696  0.166  0.679-  35 1.93  51 1.94  36 2.06
 117  0.488  0.333  0.269-  38 1.94  39 1.99
 118  0.988  0.500  0.269-  40 1.94  37 1.99
 119  0.911  0.500  0.353-  37 1.94  41 1.97  40 1.99
 120  0.627  0.500  0.321-   6 1.94  38 1.94  37 1.99
 121  0.772  0.333  0.300-  37 1.94  21 1.94  38 1.99
 122  0.624  0.333  0.395-  42 1.89  38 1.94  43 2.01
 123  0.411  0.333  0.353-  39 1.94  43 1.97  38 1.99
 124  0.127  0.333  0.321-  40 1.94  24 1.94  39 1.99
 125  0.272  0.500  0.300-   7 1.94  39 1.94  40 1.99
 126  0.124  0.500  0.395-  44 1.92  40 1.94  41 1.99
 127  0.050  0.500  0.480-  41 1.92  44 1.96  45 2.01
 128  0.764  0.500  0.447-  42 1.93  10 1.93  41 2.00
 129  0.909  0.333  0.427-  25 1.93  41 1.94  42 2.00
 130  0.763  0.334  0.520-  46 1.86  42 1.96  47 2.01
 131  0.549  0.334  0.480-  43 1.93  47 1.98  42 1.99
 132  0.264  0.333  0.448-  44 1.94  28 1.94  43 1.98
 133  0.409  0.500  0.427-  11 1.93  43 1.93  44 2.01
 134  0.265  0.500  0.522-  48 1.92  44 1.97  45 1.98
 135  0.192  0.500  0.607-  45 1.91  48 1.94  49 2.10
 136  0.903  0.500  0.573-  46 1.93  14 1.93  45 2.00
 137  0.050  0.333  0.553-  29 1.93  45 1.93  46 2.01
 138  0.913  0.333  0.645-  50 1.78  46 2.01  51 2.10
 139  0.693  0.332  0.606-  47 1.93  46 1.95  51 2.04
 140  0.404  0.333  0.575-  48 1.94  32 1.94  47 1.98
 141  0.550  0.500  0.554-  47 1.93  15 1.93  48 2.03
 142  0.412  0.500  0.648-  52 1.88  48 1.98  49 2.03
 143  0.345  0.500  0.734-  52 1.84  49 1.86
 144  0.052  0.500  0.709-  18 1.97  50 1.97  49 2.03
 145  0.195  0.334  0.681-  33 1.93  49 1.93  50 2.07
 146  0.843  0.336  0.731-  50 1.84  51 1.89
 147  0.553  0.331  0.707-  36 1.96  52 1.98  51 1.99
 148  0.693  0.500  0.678-  19 1.93  51 1.93  52 2.07


IMPORTANT INFORMATION: All symmetrisations will be switched off!
NOSYMM: (Re-)initialisation of all symmetry stuff for point group C_1.


----------------------------------------------------------------------------------------

                                     Primitive cell                                     

  volume of cell :    3260.9117

  direct lattice vectors                    reciprocal lattice vectors
    10.273755933  0.000000000  0.000000000     0.097335386 -0.000000000  0.000000000
     0.000000000 11.368810418  0.000000000     0.000000000  0.087959950  0.000000000
     0.000000000  0.000000000 27.918672987     0.000000000  0.000000000  0.035818321

  length of vectors
    10.273755933 11.368810418 27.918672987     0.097335386  0.087959950  0.035818321

  position of ions in fractional coordinates (direct lattice)
     0.611832841  0.499999990  0.778332537
     0.548980662  0.499999990  0.806628086
     0.670929980  0.427964669  0.781076949
     0.670929976  0.572035311  0.781076948
     0.807806441  0.833333333  0.294980927
     0.591821331  0.666666667  0.326522323
     0.307806441  0.666666667  0.294980927
     0.091821331  0.833333333  0.326522323
     0.944470222  0.833365553  0.422621320
     0.726188711  0.666242110  0.451236925
     0.444020646  0.666435021  0.422505552
     0.225345679  0.833291647  0.451558282
     0.085207893  0.833458157  0.550245170
     0.864537392  0.666049808  0.575513820
     0.584131337  0.666489594  0.549510775
     0.363379700  0.833396839  0.576398729
     0.231027096  0.832650555  0.680365362
     0.000839242  0.665563877  0.700225126
     0.729499001  0.666506279  0.677803001
     0.502980314  0.834688342  0.700005936
     0.807806441  0.166666667  0.294980927
     0.591821331  0.000000000  0.326522323
     0.307806441  0.000000000  0.294980927
     0.091821331  0.166666667  0.326522323
     0.944470214  0.166634460  0.422621320
     0.725765220  0.999999998  0.451324700
     0.444200454  0.000000003  0.422603091
     0.225345679  0.166708357  0.451558284
     0.085207910  0.166541854  0.550245171
     0.863361311  0.000000013  0.576011458
     0.584764469  0.999999999  0.549872906
     0.363379695  0.166603175  0.576398732
     0.231027090  0.167349432  0.680365370
     0.003204531  0.999999989  0.700272405
     0.732698794  0.999999993  0.679817630
     0.502980307  0.165311650  0.700005930
     0.807806441  0.500000000  0.294980927
     0.591821331  0.333333333  0.326522323
     0.307806441  0.333333333  0.294980927
     0.091821331  0.500000000  0.326522323
     0.946061473  0.500000011  0.422435826
     0.726188720  0.333757895  0.451236931
     0.444020648  0.333564977  0.422505550
     0.225688098  0.500000003  0.452624286
     0.088300356  0.500000005  0.550485906
     0.864537389  0.333950205  0.575513838
     0.584131350  0.333510412  0.549510776
     0.365245925  0.500000014  0.579501030
     0.234903540  0.499999997  0.681017675
     0.000839235  0.334436118  0.700225150
     0.729499011  0.333493711  0.677803012
     0.506032664  0.499999998  0.705914811
     0.488198186  0.666666667  0.268637410
     0.988198186  0.833333333  0.268637410
     0.911429586  0.833333333  0.352865840
     0.627414697  0.833333333  0.321324444
     0.772213075  0.666666667  0.300178806
     0.624257743  0.666666667  0.394802993
     0.411429586  0.666666667  0.352865840
     0.127414697  0.666666667  0.321324444
     0.272213075  0.833333333  0.300178806
     0.124257743  0.833333333  0.394802993
     0.048943245  0.833486707  0.479701504
     0.763709270  0.833281136  0.447512240
     0.908971202  0.666573466  0.426606120
     0.763420296  0.666481033  0.520252939
     0.548693618  0.666210883  0.479712708
     0.263549726  0.666531439  0.447860866
     0.408386985  0.833274471  0.426605663
     0.263498930  0.832723666  0.520775702
     0.192216632  0.832858348  0.606743754
     0.903494855  0.833415141  0.573264369
     0.050438250  0.666507020  0.552989879
     0.913322216  0.666960855  0.645307593
     0.693348477  0.667619498  0.605876024
     0.403944552  0.666615393  0.574634344
     0.549207655  0.833259085  0.552898572
     0.412077923  0.836055055  0.645851460
     0.346635225  0.832737011  0.731804063
     0.052259776  0.832774722  0.708635130
     0.194884727  0.666303191  0.680750258
     0.842599929  0.663879311  0.730970310
     0.552939956  0.669165761  0.707182647
     0.695564685  0.833967301  0.679091467
     0.488198186  0.000000000  0.268637410
     0.988198186  0.166666667  0.268637410
     0.911429586  0.166666667  0.352865840
     0.627414697  0.166666667  0.321324444
     0.772213075  0.000000000  0.300178806
     0.624257743  0.000000000  0.394802993
     0.411429586  0.000000000  0.352865840
     0.127414697  0.000000000  0.321324444
     0.272213075  0.166666667  0.300178806
     0.124257743  0.166666667  0.394802993
     0.048943242  0.166513296  0.479701500
     0.763709268  0.166718873  0.447512243
     0.908766757  0.000000006  0.426567629
     0.763489762  0.000000007  0.520436593
     0.548935040  0.999999994  0.479607780
     0.263583310  0.000000002  0.447891802
     0.408386986  0.166725533  0.426605663
     0.263498927  0.167276330  0.520775704
     0.192216618  0.167141652  0.606743755
     0.903494854  0.166584876  0.573264377
     0.050540554  0.000000005  0.553174302
     0.913278661  0.000000000  0.645769879
     0.692765520  0.999999996  0.606152761
     0.402950068  0.000000009  0.573287899
     0.549207659  0.166740931  0.552898575
     0.412077898  0.163944936  0.645851466
     0.346635239  0.167262997  0.731804067
     0.052259787  0.167225278  0.708635144
     0.194751830  0.000000010  0.680510523
     0.846305325  0.000000003  0.731720936
     0.554624450  0.000000004  0.709225479
     0.695564695  0.166032706  0.679091465
     0.488198186  0.333333333  0.268637410
     0.988198186  0.500000000  0.268637410
     0.911429586  0.500000000  0.352865840
     0.627414697  0.500000000  0.321324444
     0.772213075  0.333333333  0.300178806
     0.624257743  0.333333333  0.394802993
     0.411429586  0.333333333  0.352865840
     0.127414697  0.333333333  0.321324444
     0.272213075  0.500000000  0.300178806
     0.124257743  0.500000000  0.394802993
     0.049569932  0.500000011  0.479834121
     0.763791013  0.499999999  0.447426927
     0.908971205  0.333426540  0.426606128
     0.763420304  0.333518978  0.520252946
     0.548693629  0.333789120  0.479712712
     0.263549728  0.333468562  0.447860867
     0.408560157  0.500000000  0.426638421
     0.264550055  0.499999996  0.521739060
     0.191808478  0.500000005  0.607398369
     0.903443910  0.500000001  0.573344993
     0.050438251  0.333492993  0.552989881
     0.913322239  0.333039154  0.645307610
     0.693348490  0.332380508  0.605876029
     0.403944554  0.333384615  0.574634346
     0.549836823  0.499999996  0.553761932
     0.411821010  0.500000010  0.648377090
     0.344522939  0.499999997  0.734021498
     0.051762297  0.500000004  0.708779742
     0.194884737  0.333696819  0.680750257
     0.842599924  0.336120665  0.730970326
     0.552939949  0.330834225  0.707182639
     0.692936234  0.499999995  0.677988340

  ion indices of the primitive-cell ions
   primitive index   ion index
                 1           1
                 2           2
                 3           3
                 4           4
                 5           5
                 6           6
                 7           7
                 8           8
                 9           9
                10          10
                11          11
                12          12
                13          13
                14          14
                15          15
                16          16
                17          17
                18          18
                19          19
                20          20
                21          21
                22          22
                23          23
                24          24
                25          25
                26          26
                27          27
                28          28
                29          29
                30          30
                31          31
                32          32
                33          33
                34          34
                35          35
                36          36
                37          37
                38          38
                39          39
                40          40
                41          41
                42          42
                43          43
                44          44
                45          45
                46          46
                47          47
                48          48
                49          49
                50          50
                51          51
                52          52
                53          53
                54          54
                55          55
                56          56
                57          57
                58          58
                59          59
                60          60
                61          61
                62          62
                63          63
                64          64
                65          65
                66          66
                67          67
                68          68
                69          69
                70          70
                71          71
                72          72
                73          73
                74          74
                75          75
                76          76
                77          77
                78          78
                79          79
                80          80
                81          81
                82          82
                83          83
                84          84
                85          85
                86          86
                87          87
                88          88
                89          89
                90          90
                91          91
                92          92
                93          93
                94          94
                95          95
                96          96
                97          97
                98          98
                99          99
               100         100
               101         101
               102         102
               103         103
               104         104
               105         105
               106         106
               107         107
               108         108
               109         109
               110         110
               111         111
               112         112
               113         113
               114         114
               115         115
               116         116
               117         117
               118         118
               119         119
               120         120
               121         121
               122         122
               123         123
               124         124
               125         125
               126         126
               127         127
               128         128
               129         129
               130         130
               131         131
               132         132
               133         133
               134         134
               135         135
               136         136
               137         137
               138         138
               139         139
               140         140
               141         141
               142         142
               143         143
               144         144
               145         145
               146         146
               147         147
               148         148

----------------------------------------------------------------------------------------



 KPOINTS: pymatgen v2020.8.13 with grid density = 

Automatic generation of k-mesh.
 Grid dimensions read from file:
 generate k-points for:    3    3    1

 Generating k-lattice:

  Cartesian coordinates                     Fractional coordinates (reciprocal lattice)
     0.032445129 -0.000000000  0.000000000     0.333333333 -0.000000000  0.000000000
     0.000000000  0.029319983  0.000000000     0.000000000  0.333333333  0.000000000
     0.000000000  0.000000000  0.035818321     0.000000000  0.000000000  1.000000000

  Length of vectors
     0.032445129  0.029319983  0.035818321

  Shift w.r.t. Gamma in fractional coordinates (k-lattice)
     0.000000000  0.000000000  0.000000000

 
 Subroutine IBZKPT returns following result:
 ===========================================
 
 Found      5 irreducible k-points:
 
 Following reciprocal coordinates:
            Coordinates               Weight
  0.000000  0.000000  0.000000      1.000000
  0.333333  0.000000  0.000000      2.000000
  0.000000  0.333333  0.000000      2.000000
  0.333333  0.333333  0.000000      2.000000
  0.333333 -0.333333  0.000000      2.000000
 
 Following cartesian coordinates:
            Coordinates               Weight
  0.000000  0.000000  0.000000      1.000000
  0.032445  0.000000  0.000000      2.000000
  0.000000  0.029320  0.000000      2.000000
  0.032445  0.029320  0.000000      2.000000
  0.032445 -0.029320  0.000000      2.000000
 
 
 Subroutine IBZKPT_HF returns following result:
 ==============================================
 
 Found      9 k-points in 1st BZ
 the following      9 k-points will be used (e.g. in the exchange kernel)
 Following reciprocal coordinates:   # in IRBZ
  0.000000  0.000000  0.000000    0.11111111   1 t-inv F
  0.333333  0.000000  0.000000    0.11111111   2 t-inv F
  0.000000  0.333333  0.000000    0.11111111   3 t-inv F
  0.333333  0.333333  0.000000    0.11111111   4 t-inv F
  0.333333 -0.333333  0.000000    0.11111111   5 t-inv F
 -0.333333 -0.000000 -0.000000    0.11111111   2 t-inv T
 -0.000000 -0.333333 -0.000000    0.11111111   3 t-inv T
 -0.333333 -0.333333 -0.000000    0.11111111   4 t-inv T
 -0.333333  0.333333 -0.000000    0.11111111   5 t-inv T


--------------------------------------------------------------------------------------------------------




 Dimension of arrays:
   k-points           NKPTS =      5   k-points in BZ     NKDIM =      5   number of bands    NBANDS=    672
   number of dos      NEDOS =    301   number of ions     NIONS =    148
   non local maximal  LDIM  =      6   non local SUM 2l+1 LMDIM =     18
   total plane-waves  NPLWV = ******
   max r-space proj   IRMAX =      1   max aug-charges    IRDMAX=  21703
   dimension x,y,z NGX =    84 NGY =   96 NGZ =  224
   dimension x,y,z NGXF=   168 NGYF=  192 NGZF=  448
   support grid    NGXF=   168 NGYF=  192 NGZF=  448
   ions per type =               1   3  48  96
   NGX,Y,Z   is equivalent  to a cutoff of  13.59, 14.04, 13.34 a.u.
   NGXF,Y,Z  is equivalent  to a cutoff of  27.19, 28.08, 26.68 a.u.

 SYSTEM =  MgO-rocksalt                            
 POSCAR =   N  H Ti  O                             

--------------------------------------------------------------------------------------------------------


  energy-cutoff  :      600.00
  volume of cell :     3260.91
      direct lattice vectors                 reciprocal lattice vectors
    10.273755933  0.000000000  0.000000000     0.097335386 -0.000000000  0.000000000
     0.000000000 11.368810418  0.000000000     0.000000000  0.087959950  0.000000000
     0.000000000  0.000000000 27.918672987     0.000000000  0.000000000  0.035818321

  length of vectors
    10.273755933 11.368810418 27.918672987     0.097335386  0.087959950  0.035818321



 k-points in units of 2pi/SCALE and weight: pymatgen v2020.8.13 with grid density = 
   0.00000000  0.00000000  0.00000000       0.111
   0.03244513  0.00000000  0.00000000       0.222
   0.00000000  0.02931998  0.00000000       0.222
   0.03244513  0.02931998  0.00000000       0.222
   0.03244513 -0.02931998  0.00000000       0.222

 k-points in reciprocal lattice and weights: pymatgen v2020.8.13 with grid density = 
   0.00000000  0.00000000  0.00000000       0.111
   0.33333333  0.00000000  0.00000000       0.222
   0.00000000  0.33333333  0.00000000       0.222
   0.33333333  0.33333333  0.00000000       0.222
   0.33333333 -0.33333333  0.00000000       0.222

 position of ions in fractional coordinates (direct lattice) 
   0.61183284  0.49999999  0.77833254
   0.54898066  0.49999999  0.80662809
   0.67092998  0.42796467  0.78107695
   0.67092998  0.57203531  0.78107695
   0.80780644  0.83333333  0.29498093
   0.59182133  0.66666667  0.32652232
   0.30780644  0.66666667  0.29498093
   0.09182133  0.83333333  0.32652232
   0.94447022  0.83336555  0.42262132
   0.72618871  0.66624211  0.45123692
   0.44402065  0.66643502  0.42250555
   0.22534568  0.83329165  0.45155828
   0.08520789  0.83345816  0.55024517
   0.86453739  0.66604981  0.57551382
   0.58413134  0.66648959  0.54951078
   0.36337970  0.83339684  0.57639873
   0.23102710  0.83265055  0.68036536
   0.00083924  0.66556388  0.70022513
   0.72949900  0.66650628  0.67780300
   0.50298031  0.83468834  0.70000594
   0.80780644  0.16666667  0.29498093
   0.59182133  0.00000000  0.32652232
   0.30780644  0.00000000  0.29498093
   0.09182133  0.16666667  0.32652232
   0.94447021  0.16663446  0.42262132
   0.72576522  1.00000000  0.45132470
   0.44420045  0.00000000  0.42260309
   0.22534568  0.16670836  0.45155828
   0.08520791  0.16654185  0.55024517
   0.86336131  0.00000001  0.57601146
   0.58476447  1.00000000  0.54987291
   0.36337970  0.16660318  0.57639873
   0.23102709  0.16734943  0.68036537
   0.00320453  0.99999999  0.70027241
   0.73269879  0.99999999  0.67981763
   0.50298031  0.16531165  0.70000593
   0.80780644  0.50000000  0.29498093
   0.59182133  0.33333333  0.32652232
   0.30780644  0.33333333  0.29498093
   0.09182133  0.50000000  0.32652232
   0.94606147  0.50000001  0.42243583
   0.72618872  0.33375789  0.45123693
   0.44402065  0.33356498  0.42250555
   0.22568810  0.50000000  0.45262429
   0.08830036  0.50000001  0.55048591
   0.86453739  0.33395020  0.57551384
   0.58413135  0.33351041  0.54951078
   0.36524593  0.50000001  0.57950103
   0.23490354  0.50000000  0.68101767
   0.00083924  0.33443612  0.70022515
   0.72949901  0.33349371  0.67780301
   0.50603266  0.50000000  0.70591481
   0.48819819  0.66666667  0.26863741
   0.98819819  0.83333333  0.26863741
   0.91142959  0.83333333  0.35286584
   0.62741470  0.83333333  0.32132444
   0.77221308  0.66666667  0.30017881
   0.62425774  0.66666667  0.39480299
   0.41142959  0.66666667  0.35286584
   0.12741470  0.66666667  0.32132444
   0.27221308  0.83333333  0.30017881
   0.12425774  0.83333333  0.39480299
   0.04894324  0.83348671  0.47970150
   0.76370927  0.83328114  0.44751224
   0.90897120  0.66657347  0.42660612
   0.76342030  0.66648103  0.52025294
   0.54869362  0.66621088  0.47971271
   0.26354973  0.66653144  0.44786087
   0.40838698  0.83327447  0.42660566
   0.26349893  0.83272367  0.52077570
   0.19221663  0.83285835  0.60674375
   0.90349485  0.83341514  0.57326437
   0.05043825  0.66650702  0.55298988
   0.91332222  0.66696086  0.64530759
   0.69334848  0.66761950  0.60587602
   0.40394455  0.66661539  0.57463434
   0.54920765  0.83325908  0.55289857
   0.41207792  0.83605505  0.64585146
   0.34663522  0.83273701  0.73180406
   0.05225978  0.83277472  0.70863513
   0.19488473  0.66630319  0.68075026
   0.84259993  0.66387931  0.73097031
   0.55293996  0.66916576  0.70718265
   0.69556469  0.83396730  0.67909147
   0.48819819  0.00000000  0.26863741
   0.98819819  0.16666667  0.26863741
   0.91142959  0.16666667  0.35286584
   0.62741470  0.16666667  0.32132444
   0.77221308  0.00000000  0.30017881
   0.62425774  0.00000000  0.39480299
   0.41142959  0.00000000  0.35286584
   0.12741470  0.00000000  0.32132444
   0.27221308  0.16666667  0.30017881
   0.12425774  0.16666667  0.39480299
   0.04894324  0.16651330  0.47970150
   0.76370927  0.16671887  0.44751224
   0.90876676  0.00000001  0.42656763
   0.76348976  0.00000001  0.52043659
   0.54893504  0.99999999  0.47960778
   0.26358331  0.00000000  0.44789180
   0.40838699  0.16672553  0.42660566
   0.26349893  0.16727633  0.52077570
   0.19221662  0.16714165  0.60674376
   0.90349485  0.16658488  0.57326438
   0.05054055  0.00000001  0.55317430
   0.91327866  0.00000000  0.64576988
   0.69276552  1.00000000  0.60615276
   0.40295007  0.00000001  0.57328790
   0.54920766  0.16674093  0.55289858
   0.41207790  0.16394494  0.64585147
   0.34663524  0.16726300  0.73180407
   0.05225979  0.16722528  0.70863514
   0.19475183  0.00000001  0.68051052
   0.84630533  0.00000000  0.73172094
   0.55462445  0.00000000  0.70922548
   0.69556470  0.16603271  0.67909146
   0.48819819  0.33333333  0.26863741
   0.98819819  0.50000000  0.26863741
   0.91142959  0.50000000  0.35286584
   0.62741470  0.50000000  0.32132444
   0.77221308  0.33333333  0.30017881
   0.62425774  0.33333333  0.39480299
   0.41142959  0.33333333  0.35286584
   0.12741470  0.33333333  0.32132444
   0.27221308  0.50000000  0.30017881
   0.12425774  0.50000000  0.39480299
   0.04956993  0.50000001  0.47983412
   0.76379101  0.50000000  0.44742693
   0.90897120  0.33342654  0.42660613
   0.76342030  0.33351898  0.52025295
   0.54869363  0.33378912  0.47971271
   0.26354973  0.33346856  0.44786087
   0.40856016  0.50000000  0.42663842
   0.26455005  0.50000000  0.52173906
   0.19180848  0.50000001  0.60739837
   0.90344391  0.50000000  0.57334499
   0.05043825  0.33349299  0.55298988
   0.91332224  0.33303915  0.64530761
   0.69334849  0.33238051  0.60587603
   0.40394455  0.33338461  0.57463435
   0.54983682  0.50000000  0.55376193
   0.41182101  0.50000001  0.64837709
   0.34452294  0.50000000  0.73402150
   0.05176230  0.50000000  0.70877974
   0.19488474  0.33369682  0.68075026
   0.84259992  0.33612067  0.73097033
   0.55293995  0.33083422  0.70718264
   0.69293623  0.50000000  0.67798834

 position of ions in cartesian coordinates  (Angst):
   6.28582128  5.68440510 21.73001158
   5.64009333  5.68440509 22.51998576
   6.89297087  4.86544919 21.80663192
   6.89297082  6.50336100 21.80663189
   8.29920622  9.47400868  8.23547604
   6.08022791  7.57920695  9.11606995
   3.16232825  7.57920695  8.23547604
   0.94334994  9.47400868  9.11606995
   9.70325654  9.47437499 11.79902643
   7.46068558  7.57438024 12.59793614
   4.56175974  7.57657341 11.79579433
   2.31514650  9.47353476 12.60690802
   0.87540510  9.47542778 15.36211497
   8.88204616  7.57219400 16.06758213
   6.00122279  7.57719384 15.34161164
   3.73327435  9.47473066 16.09228763
   2.37351600  9.46624630 18.99489805
   0.00862217  7.56666954 19.54935631
   7.49469469  7.57738353 18.92336033
   5.16749698  9.48941352 19.54323681
   8.29920622  1.89480174  8.23547604
   6.08022791  0.00000000  9.11606995
   3.16232825  0.00000000  8.23547604
   0.94334994  1.89480174  9.11606995
   9.70325646  1.89443559 11.79902643
   7.45633473 11.36881040 12.60038671
   4.56360705  0.00000003 11.79851750
   2.31514651  1.89527571 12.60690806
   0.87540527  1.89338277 15.36211498
   8.86996339  0.00000015 16.08147554
   6.00772744 11.36881041 15.35172186
   3.73327430  1.89407992 16.09228770
   2.37351594  1.90256397 18.99489827
   0.03292257 11.36881029 19.55067628
   7.52756858 11.36881033 18.97960611
   5.16749692  1.87939681 19.54323664
   8.29920622  5.68440521  8.23547604
   6.08022791  3.78960347  9.11606995
   3.16232825  3.78960347  8.23547604
   0.94334994  5.68440521  9.11606995
   9.71960467  5.68440534 11.79384768
   7.46068567  3.79443023 12.59793633
   4.56175977  3.79223698 11.79579429
   2.31866444  5.68440524 12.63666943
   0.90717630  5.68440527 15.36883600
   8.88204613  3.79661656 16.06758265
   6.00122292  3.79161664 15.34161166
   3.75244749  5.68440536 16.17889976
   2.41334164  5.68440518 19.01310976
   0.00862210  3.80214082 19.54935699
   7.49469479  3.79142678 18.92336063
   5.19885609  5.68440519 19.70820475
   5.01562901  7.57920695  7.50000000
  10.15250698  9.47400868  7.50000000
   9.36380511  9.47400868  9.85154599
   6.44590546  9.47400868  8.97095207
   7.93352867  7.57920695  8.38059392
   6.41347169  7.57920695 11.02237567
   4.22692715  7.57920695  9.85154599
   1.30902750  7.57920695  8.97095207
   2.79665070  9.47400868  8.38059392
   1.27659372  9.47400868 11.02237567
   0.50283095  9.47575236 13.39262942
   7.84616264  9.47341526 12.49394790
   9.33854828  7.57814736 11.91027676
   7.84319380  7.57709651 14.52477168
   5.63714431  7.57402523 13.39294224
   2.70764556  7.57766956 12.50368107
   4.19566821  9.47333948 11.91026400
   2.70712369  9.46707749 14.53936651
   1.97478676  9.46860866 16.93948044
   9.28228562  9.47493874 16.00478044
   0.51819027  7.57739195 15.43874360
   9.38324953  7.58255152 18.01613166
   7.12329302  7.59003951 16.91525458
   4.15002774  7.57862402 16.04302835
   5.64242540  9.47316456 15.43619443
   4.23358801  9.50495141 18.03131571
   3.56124569  9.46722920 20.43099833
   0.53690418  9.46765793 19.78415245
   2.00219812  7.57507466 19.00564382
   8.65666602  7.54751803 20.40772105
   5.68077015  7.60761868 19.74360108
   7.14606181  9.48121614 18.95933261
   5.01562901  0.00000000  7.50000000
  10.15250698  1.89480174  7.50000000
   9.36380511  1.89480174  9.85154599
   6.44590546  1.89480174  8.97095207
   7.93352867  0.00000000  8.38059392
   6.41347169  0.00000000 11.02237567
   4.22692715  0.00000000  9.85154599
   1.30902750  0.00000000  8.97095207
   2.79665070  1.89480174  8.38059392
   1.27659372  1.89480174 11.02237567
   0.50283092  1.89305809 13.39262932
   7.84616262  1.89539526 12.49394797
   9.33644786  0.00000007 11.90920214
   7.84390748  0.00000008 14.52989904
   5.63962463 11.36881035 13.39001276
   2.70799059  0.00000002 12.50454475
   4.19566822  1.89547098 11.91026401
   2.70712367  1.90173289 14.53936657
   1.97478661  1.90020176 16.93948049
   9.28228562  1.89387187 16.00478068
   0.51924132  0.00000006 15.44389244
   9.38280206  0.00000000 18.02903807
   7.11730387 11.36881038 16.92298072
   4.13981065  0.00000010 16.00543738
   5.64242544  1.89564604 15.43619452
   4.23358775  1.86385889 18.03131587
   3.56124584  1.90158130 20.43099843
   0.53690429  1.90115248 19.78415286
   2.00083277  0.00000011 18.99895077
   8.69473435  0.00000004 20.42867753
   5.69807623  0.00000004 19.80063422
   7.14606191  1.88759436 18.95933254
   5.01562901  3.78960347  7.50000000
  10.15250698  5.68440521  7.50000000
   9.36380511  5.68440521  9.85154599
   6.44590546  5.68440521  8.97095207
   7.93352867  3.78960347  8.38059392
   6.41347169  3.78960347 11.02237567
   4.22692715  3.78960347  9.85154599
   1.30902750  3.78960347  8.97095207
   2.79665070  5.68440521  8.38059392
   1.27659372  5.68440521 11.02237567
   0.50926938  5.68440533 13.39633191
   7.84700245  5.68440520 12.49156606
   9.33854831  3.79066313 11.91027697
   7.84319388  3.79171404 14.52477187
   5.63714443  3.79478522 13.39294234
   2.70764558  3.79114087 12.50368108
   4.19744734  5.68440521 11.91117856
   2.71792269  5.68440516 14.56626219
   1.97059349  5.68440527 16.95775644
   9.28176223  5.68440522 16.00703138
   0.51819028  3.79141861 15.43874365
   9.38324977  3.78625901 18.01613214
   7.12329316  3.77877098 16.91525472
   4.15002775  3.79018648 16.04302840
   5.64888932  5.68440516 15.46029830
   4.23094854  5.68440532 18.10182796
   3.53954459  5.68440518 20.49290616
   0.53179320  5.68440525 19.78818984
   2.00219822  3.79373587 19.00564382
   8.65666597  3.82129212 20.40772150
   5.68077008  3.76119158 19.74360085
   7.11905774  5.68440515 18.92853474



--------------------------------------------------------------------------------------------------------

--------------------------------------- Iteration      FINAL  ---------------------------------------


--------------------OUTCAR has been truncated-------------------------


--------------------OUTCAR has been truncated-------------------------


--------------------OUTCAR has been truncated-------------------------


--------------------OUTCAR has been truncated-------------------------


--------------------OUTCAR has been truncated-------------------------


--------------------OUTCAR has been truncated-------------------------


--------------------OUTCAR has been truncated-------------------------


--------------------OUTCAR has been truncated-------------------------


--------------------OUTCAR has been truncated-------------------------


--------------------OUTCAR has been truncated-------------------------



  FORCE on cell =-STRESS in cart. coord.  units (eV):
  Direction    XX          YY          ZZ          XY          YZ          ZX
  --------------------------------------------------------------------------------------
  Alpha Z  2442.80598  2442.80598  2442.80598
  Ewald  486182.75211479648.03527************     0.11546    -0.64432 -1841.76023
  Hartree507492.48331503490.03312************     0.03312    -0.16067 -1234.46714
  E(xc)   -5191.80990 -5197.47411 -5207.79742     0.00058    -0.00396    -1.85277
  Local  ************************************    -0.13685     0.66592  3075.69720
  n-local -3243.81367 -3213.21600 -3256.04256    -0.00603    -0.00492     1.32270
  augment  3131.82201  3127.29757  3118.36279    -0.00005     0.00290    -0.60651
  Kinetic 17164.21606 17220.57813 17282.02228    -0.00274     0.17824    -6.70964
  Fock        0.00000     0.00000     0.00000     0.00000     0.00000     0.00000
  vdW       -69.26999   -72.30164   -62.01473     0.00009     0.00028    -0.69373
  -------------------------------------------------------------------------------------
  Total     -40.77196   -13.42593   -13.79999     0.00358     0.03345    -9.07013
  in kB     -20.03241    -6.59654    -6.78032     0.00176     0.01644    -4.45641
  external pressure =      -11.14 kB  Pullay stress =        0.00 kB


 VOLUME and BASIS-vectors are now :
 -----------------------------------------------------------------------------
  energy-cutoff  :      600.00
  volume of cell :     3260.91
      direct lattice vectors                 reciprocal lattice vectors
    10.273755933  0.000000000  0.000000000     0.097335386 -0.000000000  0.000000000
     0.000000000 11.368810418  0.000000000     0.000000000  0.087959950  0.000000000
     0.000000000  0.000000000 27.918672987     0.000000000  0.000000000  0.035818321

  length of vectors
    10.273755933 11.368810418 27.918672987     0.097335386  0.087959950  0.035818321


 FORCES acting on ions:
    Electron-Ion                     Ewald-Force                    Non-Local-Force
 -----------------------------------------------------------------------------------------------
   -.151E+02 0.269E-01 -.176E+04   0.540E+01 -.114E+00 0.174E+04   0.967E+01 0.426E-01 0.181E+02
   0.427E+02 -.488E-03 -.372E+03   -.475E+02 0.201E-01 0.377E+03   0.477E+01 0.608E-02 -.557E+01
   -.419E+02 0.548E+02 -.355E+03   0.463E+02 -.607E+02 0.355E+03   -.438E+01 0.592E+01 -.375E+00
   -.420E+02 -.548E+02 -.355E+03   0.464E+02 0.608E+02 0.355E+03   -.440E+01 -.593E+01 -.298E+00
   0.653E+01 -.414E-01 0.337E+04   -.161E+01 0.412E-01 -.337E+04   -.113E+01 -.341E-05 -.348E+01
   0.481E+01 -.113E+00 0.277E+04   -.640E+01 0.114E+00 -.277E+04   -.686E-01 -.690E-03 -.246E-01
   0.647E+01 0.139E+00 0.337E+04   -.158E+01 -.144E+00 -.337E+04   -.112E+01 0.144E-02 -.347E+01
   0.352E+01 0.522E-01 0.277E+04   -.516E+01 -.599E-01 -.277E+04   -.611E-01 0.148E-02 -.294E-01
   -.715E+00 0.515E-01 0.126E+04   0.537E+00 -.514E-01 -.126E+04   0.182E+00 -.596E-03 0.153E-01
   0.357E+00 -.138E+01 0.800E+03   -.288E+00 0.137E+01 -.800E+03   -.431E-01 0.174E-01 -.146E+00
   0.866E+00 -.349E+00 0.126E+04   -.103E+01 0.344E+00 -.126E+04   0.175E+00 0.883E-02 -.521E-02
   -.523E+01 0.169E+00 0.793E+03   0.530E+01 -.172E+00 -.793E+03   -.223E-01 0.318E-02 -.149E+00
   -.509E+01 -.237E+01 -.779E+03   0.480E+01 0.235E+01 0.779E+03   0.308E+00 0.113E-01 0.123E+00
   -.113E+02 -.495E+01 -.117E+04   0.115E+02 0.496E+01 0.117E+04   -.103E+00 -.917E-03 -.244E+00
   0.117E+01 -.167E+01 -.755E+03   -.142E+01 0.167E+01 0.755E+03   0.272E+00 0.834E-04 0.913E-01
   -.215E+01 -.862E+00 -.119E+04   0.234E+01 0.875E+00 0.119E+04   -.109E+00 -.172E-01 -.290E+00
   0.278E+02 -.109E+02 -.279E+04   -.288E+02 0.109E+02 0.279E+04   0.921E+00 0.249E-02 -.180E+00
   -.870E+02 -.215E+02 -.318E+04   0.872E+02 0.213E+02 0.318E+04   0.380E-01 0.146E+00 0.775E+00
   -.102E+02 -.398E+02 -.270E+04   0.937E+01 0.399E+02 0.270E+04   0.841E+00 -.255E-01 -.502E-01
   -.607E+02 -.339E+02 -.317E+04   0.609E+02 0.339E+02 0.317E+04   0.844E-01 0.435E-01 0.791E+00
   0.653E+01 0.414E-01 0.337E+04   -.161E+01 -.412E-01 -.337E+04   -.113E+01 0.225E-05 -.348E+01
   0.477E+01 -.252E-04 0.277E+04   -.638E+01 0.327E-04 -.277E+04   -.635E-01 -.138E-05 -.296E-01
   0.639E+01 -.468E-05 0.337E+04   -.148E+01 0.101E-04 -.337E+04   -.112E+01 -.112E-05 -.348E+01
   0.352E+01 -.522E-01 0.277E+04   -.516E+01 0.599E-01 -.277E+04   -.611E-01 -.148E-02 -.294E-01
   -.715E+00 -.516E-01 0.126E+04   0.537E+00 0.516E-01 -.126E+04   0.182E+00 0.591E-03 0.153E-01
   -.193E+01 -.263E-03 0.797E+03   0.197E+01 0.298E-03 -.796E+03   -.990E-02 -.616E-05 -.151E+00
   0.945E+00 -.141E-03 0.126E+04   -.111E+01 0.168E-03 -.126E+04   0.173E+00 -.448E-05 -.308E-03
   -.523E+01 -.169E+00 0.793E+03   0.530E+01 0.172E+00 -.793E+03   -.223E-01 -.319E-02 -.149E+00
   -.509E+01 0.237E+01 -.779E+03   0.480E+01 -.235E+01 0.779E+03   0.308E+00 -.114E-01 0.123E+00
   -.110E+02 -.139E-02 -.119E+04   0.112E+02 0.155E-02 0.119E+04   -.798E-01 -.286E-04 -.245E+00
   -.291E+01 -.113E-02 -.771E+03   0.261E+01 0.128E-02 0.771E+03   0.318E+00 -.237E-04 0.163E+00
   -.215E+01 0.861E+00 -.119E+04   0.234E+01 -.873E+00 0.119E+04   -.109E+00 0.172E-01 -.290E+00
   0.278E+02 0.109E+02 -.279E+04   -.288E+02 -.109E+02 0.279E+04   0.921E+00 -.259E-02 -.180E+00
   -.752E+02 -.195E-02 -.319E+04   0.755E+02 0.250E-02 0.319E+04   0.102E-01 -.167E-03 0.790E+00
   0.118E+02 -.502E-02 -.278E+04   -.127E+02 0.600E-02 0.278E+04   0.860E+00 -.171E-03 -.139E+00
   -.607E+02 0.339E+02 -.317E+04   0.609E+02 -.339E+02 0.317E+04   0.845E-01 -.443E-01 0.791E+00
   0.657E+01 0.976E-05 0.337E+04   -.163E+01 -.152E-04 -.337E+04   -.113E+01 0.113E-05 -.347E+01
   0.481E+01 0.113E+00 0.277E+04   -.640E+01 -.114E+00 -.277E+04   -.686E-01 0.691E-03 -.246E-01
   0.647E+01 -.139E+00 0.337E+04   -.158E+01 0.144E+00 -.337E+04   -.112E+01 -.144E-02 -.347E+01
   0.259E+01 0.283E-04 0.277E+04   -.417E+01 -.350E-04 -.277E+04   -.776E-01 0.132E-05 -.269E-01
   0.205E+01 0.158E-03 0.126E+04   -.223E+01 -.189E-03 -.126E+04   0.158E+00 0.488E-05 0.481E-01
   0.357E+00 0.139E+01 0.800E+03   -.289E+00 -.137E+01 -.800E+03   -.431E-01 -.174E-01 -.146E+00
   0.866E+00 0.349E+00 0.126E+04   -.103E+01 -.344E+00 -.126E+04   0.175E+00 -.883E-02 -.522E-02
   -.891E+01 0.203E-03 0.776E+03   0.897E+01 -.236E-03 -.776E+03   -.215E-01 0.606E-05 -.604E-01
   -.594E+00 0.671E-03 -.781E+03   0.344E+00 -.820E-03 0.781E+03   0.226E+00 0.217E-04 0.149E+00
   -.113E+02 0.495E+01 -.117E+04   0.115E+02 -.496E+01 0.117E+04   -.103E+00 0.944E-03 -.244E+00
   0.117E+01 0.167E+01 -.755E+03   -.142E+01 -.167E+01 0.755E+03   0.272E+00 -.588E-04 0.912E-01
   -.247E+01 0.139E-02 -.123E+04   0.262E+01 -.163E-02 0.123E+04   -.925E-01 0.609E-04 -.172E+00
   0.480E+02 0.220E-02 -.278E+04   -.487E+02 -.275E-02 0.278E+04   0.642E+00 0.569E-04 -.426E-01
   -.870E+02 0.215E+02 -.318E+04   0.872E+02 -.213E+02 0.318E+04   0.386E-01 -.146E+00 0.775E+00
   -.102E+02 0.398E+02 -.270E+04   0.935E+01 -.399E+02 0.270E+04   0.842E+00 0.250E-01 -.524E-01
   0.115E+02 0.312E-01 -.312E+04   -.108E+02 -.417E-01 0.312E+04   -.531E+00 0.373E-02 -.331E+00
   -.322E+02 -.205E-01 0.228E+04   0.370E+02 0.204E-01 -.229E+04   -.657E+01 0.326E-03 0.171E+02
   -.324E+02 -.293E-01 0.228E+04   0.373E+02 0.274E-01 -.229E+04   -.656E+01 0.252E-02 0.171E+02
   0.812E+02 0.262E-01 0.138E+04   -.860E+02 -.284E-01 -.138E+04   0.385E+01 0.135E-02 -.445E+01
   0.748E+02 -.814E-02 0.169E+04   -.819E+02 0.905E-02 -.168E+04   0.741E+01 -.179E-02 -.270E+01
   -.861E+02 -.424E-01 0.194E+04   0.934E+02 0.406E-01 -.194E+04   -.698E+01 0.352E-02 -.162E+00
   -.689E+02 -.742E+00 0.106E+04   0.745E+02 0.796E+00 -.106E+04   -.570E+01 -.500E-01 0.434E+01
   0.818E+02 0.897E-01 0.138E+04   -.867E+02 -.720E-01 -.138E+04   0.383E+01 -.190E-01 -.433E+01
   0.739E+02 0.921E-01 0.169E+04   -.810E+02 -.100E+00 -.168E+04   0.743E+01 0.207E-01 -.272E+01
   -.863E+02 0.351E-01 0.194E+04   0.936E+02 -.350E-01 -.194E+04   -.696E+01 -.191E-02 -.164E+00
   -.721E+02 0.109E+00 0.106E+04   0.779E+02 -.108E+00 -.106E+04   -.581E+01 -.376E-02 0.442E+01
   0.779E+02 -.788E+00 0.158E+03   -.844E+02 0.820E+00 -.153E+03   0.643E+01 -.309E-01 -.505E+01
   0.802E+02 0.324E+00 0.483E+03   -.869E+02 -.408E+00 -.480E+03   0.668E+01 0.843E-01 -.308E+01
   -.797E+02 0.199E+00 0.750E+03   0.862E+02 -.199E+00 -.753E+03   -.651E+01 -.222E-02 0.275E+01
   -.642E+02 -.145E+01 -.123E+03   0.690E+02 0.151E+01 0.118E+03   -.480E+01 -.579E-01 0.541E+01
   0.794E+02 0.895E+00 0.164E+03   -.857E+02 -.951E+00 -.160E+03   0.623E+01 0.555E-01 -.430E+01
   0.773E+02 0.765E+00 0.480E+03   -.838E+02 -.734E+00 -.477E+03   0.653E+01 -.299E-01 -.295E+01
   -.787E+02 0.501E+00 0.750E+03   0.852E+02 -.539E+00 -.753E+03   -.646E+01 0.357E-01 0.275E+01
   -.664E+02 0.181E+01 -.128E+03   0.715E+02 -.199E+01 0.122E+03   -.510E+01 0.176E+00 0.573E+01
   0.827E+02 -.147E+01 -.108E+04   -.890E+02 0.139E+01 0.109E+04   0.622E+01 0.838E-01 -.725E+01
   0.775E+02 -.178E+01 -.721E+03   -.842E+02 0.161E+01 0.724E+03   0.677E+01 0.163E+00 -.330E+01
   -.810E+02 -.691E+00 -.457E+03   0.874E+02 0.710E+00 0.454E+03   -.637E+01 -.204E-01 0.283E+01
   -.663E+02 -.983E+01 -.128E+04   0.686E+02 0.101E+02 0.127E+04   -.238E+01 -.316E+00 0.990E+01
   0.807E+02 -.871E+01 -.105E+04   -.871E+02 0.898E+01 0.105E+04   0.640E+01 -.270E+00 -.595E+01
   0.796E+02 -.963E+00 -.730E+03   -.861E+02 0.993E+00 0.734E+03   0.646E+01 -.329E-01 -.332E+01
   -.776E+02 -.137E+01 -.455E+03   0.839E+02 0.137E+01 0.453E+03   -.632E+01 -.933E-04 0.270E+01
   -.463E+02 -.124E+02 -.129E+04   0.481E+02 0.130E+02 0.128E+04   -.179E+01 -.563E+00 0.972E+01
   0.573E+02 -.145E+02 -.229E+04   -.625E+02 0.143E+02 0.231E+04   0.520E+01 0.189E+00 -.209E+02
   0.599E+02 -.526E+01 -.202E+04   -.648E+02 0.509E+01 0.203E+04   0.487E+01 0.166E+00 -.784E+01
   -.492E+02 -.662E+01 -.165E+04   0.541E+02 0.647E+01 0.165E+04   -.494E+01 0.149E+00 0.316E+01
   0.117E+02 -.312E+02 -.226E+04   -.170E+02 0.311E+02 0.228E+04   0.533E+01 0.121E+00 -.196E+02
   0.783E+02 -.459E+02 -.195E+04   -.834E+02 0.455E+02 0.195E+04   0.511E+01 0.421E+00 -.646E+01
   -.648E+02 -.133E+02 -.164E+04   0.702E+02 0.130E+02 0.163E+04   -.541E+01 0.262E+00 0.334E+01
   -.322E+02 0.396E-05 0.228E+04   0.370E+02 -.258E-05 -.229E+04   -.657E+01 -.171E-05 0.171E+02
   -.324E+02 0.293E-01 0.228E+04   0.373E+02 -.274E-01 -.229E+04   -.656E+01 -.252E-02 0.171E+02
   0.812E+02 -.262E-01 0.138E+04   -.860E+02 0.284E-01 -.138E+04   0.385E+01 -.136E-02 -.445E+01
   0.748E+02 0.812E-02 0.169E+04   -.819E+02 -.903E-02 -.168E+04   0.741E+01 0.178E-02 -.270E+01
   -.861E+02 -.684E-05 0.194E+04   0.934E+02 0.953E-05 -.194E+04   -.698E+01 -.712E-05 -.164E+00
   -.693E+02 -.631E-04 0.106E+04   0.749E+02 0.723E-04 -.106E+04   -.572E+01 -.115E-04 0.439E+01
   0.815E+02 -.227E-04 0.138E+04   -.863E+02 0.289E-04 -.138E+04   0.382E+01 -.784E-05 -.441E+01
   0.742E+02 -.123E-04 0.169E+04   -.812E+02 0.164E-04 -.168E+04   0.743E+01 -.931E-05 -.270E+01
   -.863E+02 -.351E-01 0.194E+04   0.936E+02 0.350E-01 -.194E+04   -.696E+01 0.190E-02 -.164E+00
   -.721E+02 -.109E+00 0.106E+04   0.779E+02 0.108E+00 -.106E+04   -.581E+01 0.375E-02 0.442E+01
   0.779E+02 0.788E+00 0.158E+03   -.844E+02 -.819E+00 -.153E+03   0.643E+01 0.309E-01 -.505E+01
   0.802E+02 -.325E+00 0.483E+03   -.869E+02 0.408E+00 -.480E+03   0.668E+01 -.844E-01 -.308E+01
   -.793E+02 -.848E-04 0.751E+03   0.858E+02 0.983E-04 -.753E+03   -.650E+01 -.328E-04 0.278E+01
   -.656E+02 -.437E-03 -.126E+03   0.705E+02 0.483E-03 0.120E+03   -.499E+01 -.601E-04 0.563E+01
   0.782E+02 -.209E-03 0.162E+03   -.845E+02 0.242E-03 -.157E+03   0.630E+01 -.414E-04 -.479E+01
   0.775E+02 -.101E-03 0.478E+03   -.840E+02 0.119E-03 -.475E+03   0.649E+01 -.441E-04 -.317E+01
   -.787E+02 -.501E+00 0.750E+03   0.852E+02 0.539E+00 -.753E+03   -.646E+01 -.357E-01 0.275E+01
   -.664E+02 -.181E+01 -.128E+03   0.715E+02 0.199E+01 0.122E+03   -.510E+01 -.176E+00 0.573E+01
   0.827E+02 0.147E+01 -.108E+04   -.890E+02 -.139E+01 0.109E+04   0.622E+01 -.840E-01 -.725E+01
   0.775E+02 0.178E+01 -.721E+03   -.842E+02 -.161E+01 0.724E+03   0.677E+01 -.163E+00 -.330E+01
   -.790E+02 -.432E-03 -.464E+03   0.852E+02 0.485E-03 0.461E+03   -.623E+01 -.138E-03 0.261E+01
   -.592E+02 -.159E-02 -.129E+04   0.614E+02 0.179E-02 0.128E+04   -.224E+01 -.258E-03 0.100E+02
   0.812E+02 -.150E-02 -.107E+04   -.876E+02 0.172E-02 0.108E+04   0.639E+01 -.282E-03 -.738E+01
   0.800E+02 -.652E-03 -.719E+03   -.866E+02 0.753E-03 0.722E+03   0.656E+01 -.242E-03 -.304E+01
   -.776E+02 0.137E+01 -.455E+03   0.839E+02 -.137E+01 0.453E+03   -.632E+01 -.113E-03 0.270E+01
   -.463E+02 0.124E+02 -.129E+04   0.481E+02 -.130E+02 0.128E+04   -.179E+01 0.563E+00 0.972E+01
   0.573E+02 0.145E+02 -.229E+04   -.625E+02 -.143E+02 0.231E+04   0.520E+01 -.190E+00 -.209E+02
   0.600E+02 0.526E+01 -.202E+04   -.648E+02 -.509E+01 0.203E+04   0.487E+01 -.168E+00 -.784E+01
   -.591E+02 -.714E-03 -.166E+04   0.650E+02 0.891E-03 0.165E+04   -.585E+01 -.521E-03 0.337E+01
   0.405E+02 -.221E-02 -.229E+04   -.458E+02 0.245E-02 0.231E+04   0.527E+01 -.317E-03 -.210E+02
   0.571E+02 -.273E-02 -.203E+04   -.613E+02 0.341E-02 0.204E+04   0.419E+01 -.142E-02 -.844E+01
   -.648E+02 0.133E+02 -.164E+04   0.702E+02 -.130E+02 0.163E+04   -.541E+01 -.264E+00 0.334E+01
   -.322E+02 0.205E-01 0.228E+04   0.370E+02 -.204E-01 -.229E+04   -.657E+01 -.324E-03 0.171E+02
   -.325E+02 -.235E-05 0.228E+04   0.373E+02 0.113E-05 -.229E+04   -.658E+01 0.156E-05 0.171E+02
   0.821E+02 0.415E-04 0.138E+04   -.871E+02 -.496E-04 -.138E+04   0.397E+01 0.101E-04 -.448E+01
   0.748E+02 0.141E-04 0.169E+04   -.819E+02 -.193E-04 -.168E+04   0.740E+01 0.118E-04 -.270E+01
   -.861E+02 0.424E-01 0.194E+04   0.934E+02 -.406E-01 -.194E+04   -.698E+01 -.351E-02 -.162E+00
   -.689E+02 0.743E+00 0.106E+04   0.745E+02 -.796E+00 -.106E+04   -.570E+01 0.500E-01 0.434E+01
   0.818E+02 -.896E-01 0.138E+04   -.867E+02 0.720E-01 -.138E+04   0.383E+01 0.190E-01 -.433E+01
   0.739E+02 -.921E-01 0.169E+04   -.810E+02 0.100E+00 -.168E+04   0.743E+01 -.207E-01 -.272E+01
   -.863E+02 0.515E-05 0.194E+04   0.935E+02 -.812E-05 -.194E+04   -.695E+01 0.804E-05 -.184E+00
   -.798E+02 0.644E-04 0.106E+04   0.865E+02 -.743E-04 -.106E+04   -.666E+01 0.123E-04 0.415E+01
   0.815E+02 0.158E-03 0.157E+03   -.885E+02 -.195E-03 -.151E+03   0.706E+01 0.484E-04 -.533E+01
   0.765E+02 0.124E-03 0.486E+03   -.827E+02 -.148E-03 -.483E+03   0.622E+01 0.600E-04 -.288E+01
   -.797E+02 -.199E+00 0.750E+03   0.862E+02 0.199E+00 -.753E+03   -.651E+01 0.224E-02 0.275E+01
   -.642E+02 0.145E+01 -.123E+03   0.690E+02 -.151E+01 0.118E+03   -.480E+01 0.580E-01 0.541E+01
   0.794E+02 -.895E+00 0.164E+03   -.857E+02 0.951E+00 -.160E+03   0.623E+01 -.555E-01 -.430E+01
   0.773E+02 -.765E+00 0.480E+03   -.838E+02 0.734E+00 -.477E+03   0.653E+01 0.300E-01 -.295E+01
   -.754E+02 0.991E-04 0.749E+03   0.815E+02 -.115E-03 -.752E+03   -.616E+01 0.379E-04 0.277E+01
   -.811E+02 0.329E-03 -.142E+03   0.881E+02 -.373E-03 0.137E+03   -.693E+01 0.574E-04 0.470E+01
   0.870E+02 0.700E-03 -.108E+04   -.939E+02 -.883E-03 0.109E+04   0.689E+01 0.245E-03 -.771E+01
   0.701E+02 0.944E-03 -.715E+03   -.761E+02 -.107E-02 0.718E+03   0.598E+01 0.304E-03 -.305E+01
   -.810E+02 0.692E+00 -.457E+03   0.874E+02 -.711E+00 0.454E+03   -.637E+01 0.205E-01 0.283E+01
[...]
      0.907176  5.684405 15.368836            0           0           0  
      8.882046  3.796617 16.067583            0           0           0  
      6.001223  3.791617 15.341612            0           0           0  
      3.752447  5.684405 16.178900            0           0           0  
      2.413342  5.684405 19.013110            0           0           0  
      0.008622  3.802141 19.549357            0           0           0  
      7.494695  3.791427 18.923361            0           0           0  
      5.198856  5.684405 19.708205            0           0           0  
      5.015629  7.579207  7.500000            0           0           0  
     10.152507  9.474009  7.500000            0           0           0  
      9.363805  9.474009  9.851546            0           0           0  
      6.445905  9.474009  8.970952            0           0           0  
      7.933529  7.579207  8.380594            0           0           0  
      6.413472  7.579207 11.022376            0           0           0  
      4.226927  7.579207  9.851546            0           0           0  
      1.309027  7.579207  8.970952            0           0           0  
      2.796651  9.474009  8.380594            0           0           0  
      1.276594  9.474009 11.022376            0           0           0  
      0.502831  9.475752 13.392629            0           0           0  
      7.846163  9.473415 12.493948            0           0           0  
      9.338548  7.578147 11.910277            0           0           0  
      7.843194  7.577097 14.524772            0           0           0  
      5.637144  7.574025 13.392942            0           0           0  
      2.707646  7.577670 12.503681            0           0           0  
      4.195668  9.473339 11.910264            0           0           0  
      2.707124  9.467077 14.539367            0           0           0  
      1.974787  9.468609 16.939480            0           0           0  
      9.282286  9.474939 16.004780            0           0           0  
      0.518190  7.577392 15.438744            0           0           0  
      9.383250  7.582552 18.016132            0           0           0  
      7.123293  7.590040 16.915255            0           0           0  
      4.150028  7.578624 16.043028            0           0           0  
      5.642425  9.473165 15.436194            0           0           0  
      4.233588  9.504951 18.031316            0           0           0  
      3.561246  9.467229 20.430998            0           0           0  
      0.536904  9.467658 19.784152            0           0           0  
      2.002198  7.575075 19.005644            0           0           0  
      8.656666  7.547518 20.407721            0           0           0  
      5.680770  7.607619 19.743601            0           0           0  
      7.146062  9.481216 18.959333            0           0           0  
      5.015629  0.000000  7.500000            0           0           0  
     10.152507  1.894802  7.500000            0           0           0  
      9.363805  1.894802  9.851546            0           0           0  
      6.445905  1.894802  8.970952            0           0           0  
      7.933529  0.000000  8.380594            0           0           0  
      6.413472  0.000000 11.022376            0           0           0  
      4.226927  0.000000  9.851546            0           0           0  
      1.309027  0.000000  8.970952            0           0           0  
      2.796651  1.894802  8.380594            0           0           0  
      1.276594  1.894802 11.022376            0           0           0  
      0.502831  1.893058 13.392629            0           0           0  
      7.846163  1.895395 12.493948            0           0           0  
      9.336448  0.000000 11.909202            0           0           0  
      7.843907  0.000000 14.529899            0           0           0  
      5.639625 11.368810 13.390013            0           0           0  
      2.707991  0.000000 12.504545            0           0           0  
      4.195668  1.895471 11.910264            0           0           0  
      2.707124  1.901733 14.539367            0           0           0  
      1.974787  1.900202 16.939480            0           0           0  
      9.282286  1.893872 16.004781            0           0           0  
      0.519241  0.000000 15.443892            0           0           0  
      9.382802  0.000000 18.029038            0           0           0  
      7.117304 11.368810 16.922981            0           0           0  
      4.139811  0.000000 16.005437            0           0           0  
      5.642425  1.895646 15.436195            0           0           0  
      4.233588  1.863859 18.031316            0           0           0  
      3.561246  1.901581 20.430998            0           0           0  
      0.536904  1.901152 19.784153            0           0           0  
      2.000833  0.000000 18.998951            0           0           0  
      8.694734  0.000000 20.428678            0           0           0  
      5.698076  0.000000 19.800634            0           0           0  
      7.146062  1.887594 18.959333            0           0           0  
      5.015629  3.789603  7.500000            0           0           0  
     10.152507  5.684405  7.500000            0           0           0  
      9.363805  5.684405  9.851546            0           0           0  
      6.445905  5.684405  8.970952            0           0           0  
      7.933529  3.789603  8.380594            0           0           0  
      6.413472  3.789603 11.022376            0           0           0  
      4.226927  3.789603  9.851546            0           0           0  
      1.309027  3.789603  8.970952            0           0           0  
      2.796651  5.684405  8.380594            0           0           0  
      1.276594  5.684405 11.022376            0           0           0  
      0.509269  5.684405 13.396332            0           0           0  
      7.847002  5.684405 12.491566            0           0           0  
      9.338548  3.790663 11.910277            0           0           0  
      7.843194  3.791714 14.524772            0           0           0  
      5.637144  3.794785 13.392942            0           0           0  
      2.707646  3.791141 12.503681            0           0           0  
      4.197447  5.684405 11.911179            0           0           0  
      2.717923  5.684405 14.566262            0           0           0  
      1.970593  5.684405 16.957756            0           0           0  
      9.281762  5.684405 16.007031            0           0           0  
      0.518190  3.791419 15.438744            0           0           0  
      9.383250  3.786259 18.016132            0           0           0  
      7.123293  3.778771 16.915255            0           0           0  
      4.150028  3.790186 16.043028            0           0           0  
      5.648889  5.684405 15.460298            0           0           0  
      4.230949  5.684405 18.101828            0           0           0  
      3.539545  5.684405 20.492906            0           0           0  
      0.531793  5.684405 19.788190            0           0           0  
      2.002198  3.793736 19.005644            0           0           0  
      8.656666  3.821292 20.407721            0           0           0  
      5.680770  3.761192 19.743601            0           0           0  
      7.119058  5.684405 18.928535            0           0           0  

  12 f/i=    2.087667 THz    13.117201 2PiTHz   69.637088 cm-1     8.633895 meV
             X         Y         Z           dx          dy          dz
      6.285821  5.684405 21.730012    -0.002626    0.198293    0.001467  
      5.640093  5.684405 22.519986    -0.001389    0.627300   -0.000176  
      6.892971  4.865449 21.806632    -0.406531   -0.218329    0.268035  
      6.892971  6.503361 21.806632     0.404779   -0.218102   -0.266405  
      8.299206  9.474009  8.235476            0           0           0  
      6.080228  7.579207  9.116070            0           0           0  
      3.162328  7.579207  8.235476            0           0           0  
      0.943350  9.474009  9.116070            0           0           0  
      9.703257  9.474375 11.799026            0           0           0  
      7.460686  7.574380 12.597936            0           0           0  
      4.561760  7.576573 11.795794            0           0           0  
      2.315147  9.473535 12.606908            0           0           0  
      0.875405  9.475428 15.362115            0           0           0  
      8.882046  7.572194 16.067582            0           0           0  
      6.001223  7.577194 15.341612            0           0           0  
      3.733274  9.474731 16.092288            0           0           0  
      2.373516  9.466246 18.994898            0           0           0  
      0.008622  7.566670 19.549356            0           0           0  
      7.494695  7.577384 18.923360            0           0           0  
      5.167497  9.489414 19.543237            0           0           0  
      8.299206  1.894802  8.235476            0           0           0  
      6.080228  0.000000  9.116070            0           0           0  
      3.162328  0.000000  8.235476            0           0           0  
      0.943350  1.894802  9.116070            0           0           0  
      9.703256  1.894436 11.799026            0           0           0  
      7.456335 11.368810 12.600387            0           0           0  
      4.563607  0.000000 11.798518            0           0           0  
      2.315147  1.895276 12.606908            0           0           0  
      0.875405  1.893383 15.362115            0           0           0  
      8.869963  0.000000 16.081476            0           0           0  
      6.007727 11.368810 15.351722            0           0           0  
      3.733274  1.894080 16.092288            0           0           0  
      2.373516  1.902564 18.994898            0           0           0  
      0.032923 11.368810 19.550676            0           0           0  
      7.527569 11.368810 18.979606            0           0           0  
      5.167497  1.879397 19.543237            0           0           0  
      8.299206  5.684405  8.235476            0           0           0  
      6.080228  3.789603  9.116070            0           0           0  
      3.162328  3.789603  8.235476            0           0           0  
      0.943350  5.684405  9.116070            0           0           0  
      9.719605  5.684405 11.793848            0           0           0  
      7.460686  3.794430 12.597936            0           0           0  
      4.561760  3.792237 11.795794            0           0           0  
      2.318664  5.684405 12.636669            0           0           0  
      0.907176  5.684405 15.368836            0           0           0  
      8.882046  3.796617 16.067583            0           0           0  
      6.001223  3.791617 15.341612            0           0           0  
      3.752447  5.684405 16.178900            0           0           0  
      2.413342  5.684405 19.013110            0           0           0  
      0.008622  3.802141 19.549357            0           0           0  
      7.494695  3.791427 18.923361            0           0           0  
      5.198856  5.684405 19.708205            0           0           0  
      5.015629  7.579207  7.500000            0           0           0  
     10.152507  9.474009  7.500000            0           0           0  
      9.363805  9.474009  9.851546            0           0           0  
      6.445905  9.474009  8.970952            0           0           0  
      7.933529  7.579207  8.380594            0           0           0  
      6.413472  7.579207 11.022376            0           0           0  
      4.226927  7.579207  9.851546            0           0           0  
      1.309027  7.579207  8.970952            0           0           0  
      2.796651  9.474009  8.380594            0           0           0  
      1.276594  9.474009 11.022376            0           0           0  
      0.502831  9.475752 13.392629            0           0           0  
      7.846163  9.473415 12.493948            0           0           0  
      9.338548  7.578147 11.910277            0           0           0  
      7.843194  7.577097 14.524772            0           0           0  
      5.637144  7.574025 13.392942            0           0           0  
      2.707646  7.577670 12.503681            0           0           0  
      4.195668  9.473339 11.910264            0           0           0  
      2.707124  9.467077 14.539367            0           0           0  
      1.974787  9.468609 16.939480            0           0           0  
      9.282286  9.474939 16.004780            0           0           0  
      0.518190  7.577392 15.438744            0           0           0  
      9.383250  7.582552 18.016132            0           0           0  
      7.123293  7.590040 16.915255            0           0           0  
      4.150028  7.578624 16.043028            0           0           0  
      5.642425  9.473165 15.436194            0           0           0  
      4.233588  9.504951 18.031316            0           0           0  
      3.561246  9.467229 20.430998            0           0           0  
      0.536904  9.467658 19.784152            0           0           0  
      2.002198  7.575075 19.005644            0           0           0  
      8.656666  7.547518 20.407721            0           0           0  
      5.680770  7.607619 19.743601            0           0           0  
      7.146062  9.481216 18.959333            0           0           0  
      5.015629  0.000000  7.500000            0           0           0  
     10.152507  1.894802  7.500000            0           0           0  
      9.363805  1.894802  9.851546            0           0           0  
      6.445905  1.894802  8.970952            0           0           0  
      7.933529  0.000000  8.380594            0           0           0  
      6.413472  0.000000 11.022376            0           0           0  
      4.226927  0.000000  9.851546            0           0           0  
      1.309027  0.000000  8.970952            0           0           0  
      2.796651  1.894802  8.380594            0           0           0  
      1.276594  1.894802 11.022376            0           0           0  
      0.502831  1.893058 13.392629            0           0           0  
      7.846163  1.895395 12.493948            0           0           0  
      9.336448  0.000000 11.909202            0           0           0  
      7.843907  0.000000 14.529899            0           0           0  
      5.639625 11.368810 13.390013            0           0           0  
      2.707991  0.000000 12.504545            0           0           0  
      4.195668  1.895471 11.910264            0           0           0  
      2.707124  1.901733 14.539367            0           0           0  
      1.974787  1.900202 16.939480            0           0           0  
      9.282286  1.893872 16.004781            0           0           0  
      0.519241  0.000000 15.443892            0           0           0  
      9.382802  0.000000 18.029038            0           0           0  
      7.117304 11.368810 16.922981            0           0           0  
      4.139811  0.000000 16.005437            0           0           0  
      5.642425  1.895646 15.436195            0           0           0  
      4.233588  1.863859 18.031316            0           0           0  
      3.561246  1.901581 20.430998            0           0           0  
      0.536904  1.901152 19.784153            0           0           0  
      2.000833  0.000000 18.998951            0           0           0  
      8.694734  0.000000 20.428678            0           0           0  
      5.698076  0.000000 19.800634            0           0           0  
      7.146062  1.887594 18.959333            0           0           0  
      5.015629  3.789603  7.500000            0           0           0  
     10.152507  5.684405  7.500000            0           0           0  
      9.363805  5.684405  9.851546            0           0           0  
      6.445905  5.684405  8.970952            0           0           0  
      7.933529  3.789603  8.380594            0           0           0  
      6.413472  3.789603 11.022376            0           0           0  
      4.226927  3.789603  9.851546            0           0           0  
      1.309027  3.789603  8.970952            0           0           0  
      2.796651  5.684405  8.380594            0           0           0  
      1.276594  5.684405 11.022376            0           0           0  
      0.509269  5.684405 13.396332            0           0           0  
      7.847002  5.684405 12.491566            0           0           0  
      9.338548  3.790663 11.910277            0           0           0  
      7.843194  3.791714 14.524772            0           0           0  
      5.637144  3.794785 13.392942            0           0           0  
      2.707646  3.791141 12.503681            0           0           0  
      4.197447  5.684405 11.911179            0           0           0  
      2.717923  5.684405 14.566262            0           0           0  
      1.970593  5.684405 16.957756            0           0           0  
      9.281762  5.684405 16.007031            0           0           0  
      0.518190  3.791419 15.438744            0           0           0  
      9.383250  3.786259 18.016132            0           0           0  
      7.123293  3.778771 16.915255            0           0           0  
      4.150028  3.790186 16.043028            0           0           0  
      5.648889  5.684405 15.460298            0           0           0  
      4.230949  5.684405 18.101828            0           0           0  
      3.539545  5.684405 20.492906            0           0           0  
      0.531793  5.684405 19.788190            0           0           0  
      2.002198  3.793736 19.005644            0           0           0  
      8.656666  3.821292 20.407721            0           0           0  
      5.680770  3.761192 19.743601            0           0           0  
      7.119058  5.684405 18.928535            0           0           0  

 Finite differences POTIM=   1.0000000000000000E-002
     LOOP+:  cpu time    188.6957: real time    188.8647
    4ORBIT:  cpu time      0.0000: real time      0.0000

 total amount of memory used by VASP MPI-rank0   151186. kBytes
=======================================================================

   base      :      30000. kBytes
   nonl-proj :      72044. kBytes
   fftplans  :       9610. kBytes
   grid      :      15693. kBytes
   one-center:        295. kBytes
   wavefun   :      23544. kBytes

  
  
 General timing and accounting informations for this job:
 ========================================================
  
                  Total CPU time used (sec):     5219.876
                            User time (sec):     5196.176
                          System time (sec):       23.700
                         Elapsed time (sec):     5237.874
  
                   Maximum memory used (kb):      410464.
                   Average memory used (kb):          N/A
  
                          Minor page faults:      2377276
                          Major page faults:         1296
                 Voluntary context switches:        22040
