 vasp.6.3.0 20Jan22 (build Aug 21 2024 11:13:42) complex                         
 executed on        HPECrayEX_GCC date 2024.11.26  22:51:28
 running  512 mpi-ranks, with    1 threads/rank
 distrk:  each k-point on  512 cores,    1 groups
 distr:  one band on NCORE=  16 cores,   32 groups


--------------------------------------------------------------------------------------------------------


 INCAR:
   SYSTEM = TiO2
   ISMEAR = 0
   SIGMA = 0.05
   EDIFF = 1E-4
   ALGO = ALL
   ISTART = 0
   IBRION = -1
   NSW = 0
   ISYM = 0
   ISIF = 2
   EDIFFG = -0.01
   DIPOL = 0.5 0.5 0.5
   IDIPOL = 3
   LDIPOL = .TRUE.
   GGA = MK
   LUSE_VDW = .TRUE.
   PARAM1 = 0.1234
   PARAM2 = 0.711357
   ZAB_VDW = -1.8867
   AGGAC = 0.0
   ENCUT = 600
   PREC = Accurate
   LASPH = .TRUE.
   LREAL = .FALSE.
   ISPIN = 1
   NELM = 200
   NELMIN = 8
   NCORE = 16
   KPAR = 1
   LWAVE = .FALSE.
   LCHARG = .FALSE.

 POTCAR:    PAW_PBE H 15Jun2001                   
 POTCAR:    PAW_PBE O 08Apr2002                   
 POTCAR:    PAW_PBE Ti_pv 07Sep2000               
 POTCAR:    PAW_PBE O 08Apr2002                   
 -----------------------------------------------------------------------------
|                                                                             |
|               ----> ADVICE to this user running VASP <----                  |
|                                                                             |
|     You have switched on vdW-DFT.                                           |
|     This routine was written and supplied by Jiri Klimes. We recommend      |
|     that you carefully read and cite the following publications:            |
|       J. Klimes, D.R. Bowler, A. Michelides                                 |
|          J. Phys.: Cond Matt. 22 022201 (2010)                              |
|       J. Klimes, D.R. Bowler, A. Michelides                                 |
|          Phys. Rev. B. 83, 195131 (2011)                                    |
|     and references therein.                                                 |
|                                                                             |
 -----------------------------------------------------------------------------

 POTCAR:    PAW_PBE H 15Jun2001                   
   SHA256 =  030f79b5d3ab3cf0e668861823c8fb652ff669f3e15e46930bd03bfd63a607b6 H/POTCAR              
   COPYR  = (c) Copyright 15Jun2001 Georg Kresse                                                    
   COPYR  = This file is part of the software VASP. Any use, copying, and all other rights are regul
   COPYR  = If you do not have a valid VASP license, you may not use, copy or distribute this file. 
   VRHFIN =H: ultrasoft test                                                                        
   LEXCH  = PE                                                                                      
   EATOM  =    12.4884 eV,    0.9179 Ry                                                             
                                                                                                    
   TITEL  = PAW_PBE H 15Jun2001                                                                     
   LULTRA =        F    use ultrasoft PP ?                                                          
   IUNSCR =        0    unscreen: 0-lin 1-nonlin 2-no                                               
   RPACOR =    0.000    partial core radius                                                         
   POMASS =    1.000; ZVAL   =    1.000    mass and valenz                                          
   RCORE  =    1.100    outmost cutoff radius                                                       
   RWIGS  =    0.700; RWIGS  =    0.370    wigner-seitz radius (au A)                               
   ENMAX  =  250.000; ENMIN  =  200.000 eV                                                          
   RCLOC  =    0.701    cutoff for local pot                                                        
   LCOR   =        T    correct aug charges                                                         
   LPAW   =        T    paw PP                                                                      
   EAUG   =  400.000                                                                                
   RMAX   =    1.123    core radius for proj-oper                                                   
   RAUG   =    1.200    factor for augmentation sphere                                              
   RDEP   =    1.112    radius for radial grids                                                     
   RDEPT  =    0.926    core radius for aug-charge                                                  
                                                                                                    
   Atomic configuration                                                                             
    2 entries                                                                                       
     n  l   j            E        occ.                                                              
     1  0  0.50        -6.4927   1.0000                                                             
     2  1  0.50        -3.4015   0.0000                                                             
   Description                                                                                      
     l       E           TYP  RCUT    TYP  RCUT                                                     
     0     -6.4927494     23  1.100                                                                 
     0      6.8029130     23  1.100                                                                 
     1     -4.0817478     23  1.100                                                                 
  local pseudopotential read in
  atomic valenz-charges read in
  non local Contribution for L=           0  read in
    real space projection operators read in
  non local Contribution for L=           0  read in
    real space projection operators read in
  non local Contribution for L=           1  read in
    real space projection operators read in
    PAW grid and wavefunctions read in

   number of l-projection  operators is LMAX  =           3
   number of lm-projection operators is LMMAX =           5

 POTCAR:    PAW_PBE O 08Apr2002                   
   SHA256 =  818f92134a0a090dccd8ba1447fa70422a3b330e708bb4f08108d8ae51209ddf O/POTCAR              
   COPYR  = (c) Copyright 08Apr2002 Georg Kresse                                                    
   COPYR  = This file is part of the software VASP. Any use, copying, and all other rights are regul
   COPYR  = If you do not have a valid VASP license, you may not use, copy or distribute this file. 
   VRHFIN =O: s2p4                                                                                  
   LEXCH  = PE                                                                                      
   EATOM  =   432.3788 eV,   31.7789 Ry                                                             
                                                                                                    
   TITEL  = PAW_PBE O 08Apr2002                                                                     
   LULTRA =        F    use ultrasoft PP ?                                                          
   IUNSCR =        1    unscreen: 0-lin 1-nonlin 2-no                                               
   RPACOR =    1.200    partial core radius                                                         
   POMASS =   16.000; ZVAL   =    6.000    mass and valenz                                          
   RCORE  =    1.520    outmost cutoff radius                                                       
   RWIGS  =    1.550; RWIGS  =    0.820    wigner-seitz radius (au A)                               
   ENMAX  =  400.000; ENMIN  =  300.000 eV                                                          
   ICORE  =        2    local potential                                                             
   LCOR   =        T    correct aug charges                                                         
   LPAW   =        T    paw PP                                                                      
   EAUG   =  605.392                                                                                
   DEXC   =    0.000                                                                                
   RMAX   =    1.553    core radius for proj-oper                                                   
   RAUG   =    1.300    factor for augmentation sphere                                              
   RDEP   =    1.550    radius for radial grids                                                     
   RDEPT  =    1.329    core radius for aug-charge                                                  
                                                                                                    
   Atomic configuration                                                                             
    4 entries                                                                                       
     n  l   j            E        occ.                                                              
     1  0  0.50      -514.6923   2.0000                                                             
     2  0  0.50       -23.9615   2.0000                                                             
     2  1  0.50        -9.0305   4.0000                                                             
     3  2  1.50        -9.5241   0.0000                                                             
   Description                                                                                      
     l       E           TYP  RCUT    TYP  RCUT                                                     
     0    -23.9615318     23  1.200                                                                 
     0     -9.5240782     23  1.200                                                                 
     1     -9.0304911     23  1.520                                                                 
     1      8.1634956     23  1.520                                                                 
     2     -9.5240782      7  1.500                                                                 
  local pseudopotential read in
  partial core-charges read in
  partial kinetic energy density read in
  kinetic energy density of atom read in
  atomic valenz-charges read in
  non local Contribution for L=           0  read in
    real space projection operators read in
  non local Contribution for L=           0  read in
    real space projection operators read in
  non local Contribution for L=           1  read in
    real space projection operators read in
  non local Contribution for L=           1  read in
    real space projection operators read in
    PAW grid and wavefunctions read in

   number of l-projection  operators is LMAX  =           4
   number of lm-projection operators is LMMAX =           8

 POTCAR:    PAW_PBE Ti_pv 07Sep2000               
   SHA256 =  f757a1b2c6d082f4c628fa3d987464a8763bf92e53844ac0500b0e2ddc9ce5c0 Ti_pv/POTCAR          
   COPYR  = (c) Copyright 07Sep2000 Georg Kresse                                                    
   COPYR  = This file is part of the software VASP. Any use, copying, and all other rights are regul
   COPYR  = If you do not have a valid VASP license, you may not use, copy or distribute this file. 
   VRHFIN =Ti: d3 s1                                                                                
   LEXCH  = PE                                                                                      
   EATOM  =  1042.5995 eV,   76.6289 Ry                                                             
                                                                                                    
   TITEL  = PAW_PBE Ti_pv 07Sep2000                                                                 
   LULTRA =        F    use ultrasoft PP ?                                                          
   IUNSCR =        1    unscreen: 0-lin 1-nonlin 2-no                                               
   RPACOR =    2.200    partial core radius                                                         
   POMASS =   47.880; ZVAL   =   10.000    mass and valenz                                          
   RCORE  =    2.500    outmost cutoff radius                                                       
   RWIGS  =    2.500; RWIGS  =    1.323    wigner-seitz radius (au A)                               
   ENMAX  =  222.335; ENMIN  =  166.751 eV                                                          
   RCLOC  =    1.701    cutoff for local pot                                                        
   LCOR   =        T    correct aug charges                                                         
   LPAW   =        T    paw PP                                                                      
   EAUG   =  482.848                                                                                
   DEXC   =    0.000                                                                                
   RMAX   =    2.564    core radius for proj-oper                                                   
   RAUG   =    1.300    factor for augmentation sphere                                              
   RDEP   =    2.538    radius for radial grids                                                     
   RDEPT  =    1.952    core radius for aug-charge                                                  
                                                                                                    
   Atomic configuration                                                                             
    8 entries                                                                                       
     n  l   j            E        occ.                                                              
     1  0  0.50     -4865.3608   2.0000                                                             
     2  0  0.50      -533.1368   2.0000                                                             
     2  1  1.50      -440.5031   6.0000                                                             
     3  0  0.50       -59.3186   2.0000                                                             
     3  1  1.50       -35.7012   6.0000                                                             
     3  2  2.50        -1.9157   3.0000                                                             
     4  0  0.50        -3.7291   1.0000                                                             
     4  3  2.50        -1.3606   0.0000                                                             
   Description                                                                                      
     l       E           TYP  RCUT    TYP  RCUT                                                     
     1    -35.7012140     23  2.300                                                                 
     1     -1.3605826     23  2.300                                                                 
     2     -1.9156996     23  2.500                                                                 
     2     -0.4063033     23  2.500                                                                 
     0     -3.7290856     23  2.500                                                                 
     0     20.4087390     23  2.500                                                                 
  local pseudopotential read in
  partial core-charges read in
  partial kinetic energy density read in
  atomic valenz-charges read in
  non local Contribution for L=           1  read in
    real space projection operators read in
  non local Contribution for L=           1  read in
    real space projection operators read in
  non local Contribution for L=           2  read in
    real space projection operators read in
  non local Contribution for L=           2  read in
    real space projection operators read in
  non local Contribution for L=           0  read in
    real space projection operators read in
  non local Contribution for L=           0  read in
    real space projection operators read in
    PAW grid and wavefunctions read in

   number of l-projection  operators is LMAX  =           6
   number of lm-projection operators is LMMAX =          18

 POTCAR:    PAW_PBE O 08Apr2002                   
   SHA256 =  818f92134a0a090dccd8ba1447fa70422a3b330e708bb4f08108d8ae51209ddf O/POTCAR              
   COPYR  = (c) Copyright 08Apr2002 Georg Kresse                                                    
   COPYR  = This file is part of the software VASP. Any use, copying, and all other rights are regul
   COPYR  = If you do not have a valid VASP license, you may not use, copy or distribute this file. 
   VRHFIN =O: s2p4                                                                                  
   LEXCH  = PE                                                                                      
   EATOM  =   432.3788 eV,   31.7789 Ry                                                             
                                                                                                    
   TITEL  = PAW_PBE O 08Apr2002                                                                     
   LULTRA =        F    use ultrasoft PP ?                                                          
   IUNSCR =        1    unscreen: 0-lin 1-nonlin 2-no                                               
   RPACOR =    1.200    partial core radius                                                         
   POMASS =   16.000; ZVAL   =    6.000    mass and valenz                                          
   RCORE  =    1.520    outmost cutoff radius                                                       
   RWIGS  =    1.550; RWIGS  =    0.820    wigner-seitz radius (au A)                               
   ENMAX  =  400.000; ENMIN  =  300.000 eV                                                          
   ICORE  =        2    local potential                                                             
   LCOR   =        T    correct aug charges                                                         
   LPAW   =        T    paw PP                                                                      
   EAUG   =  605.392                                                                                
   DEXC   =    0.000                                                                                
   RMAX   =    1.553    core radius for proj-oper                                                   
   RAUG   =    1.300    factor for augmentation sphere                                              
   RDEP   =    1.550    radius for radial grids                                                     
   RDEPT  =    1.329    core radius for aug-charge                                                  
                                                                                                    
   Atomic configuration                                                                             
    4 entries                                                                                       
     n  l   j            E        occ.                                                              
     1  0  0.50      -514.6923   2.0000                                                             
     2  0  0.50       -23.9615   2.0000                                                             
     2  1  0.50        -9.0305   4.0000                                                             
     3  2  1.50        -9.5241   0.0000                                                             
   Description                                                                                      
     l       E           TYP  RCUT    TYP  RCUT                                                     
     0    -23.9615318     23  1.200                                                                 
     0     -9.5240782     23  1.200                                                                 
     1     -9.0304911     23  1.520                                                                 
     1      8.1634956     23  1.520                                                                 
     2     -9.5240782      7  1.500                                                                 
  local pseudopotential read in
  partial core-charges read in
  partial kinetic energy density read in
  kinetic energy density of atom read in
  atomic valenz-charges read in
  non local Contribution for L=           0  read in
    real space projection operators read in
  non local Contribution for L=           0  read in
    real space projection operators read in
  non local Contribution for L=           1  read in
    real space projection operators read in
  non local Contribution for L=           1  read in
    real space projection operators read in
    PAW grid and wavefunctions read in

   number of l-projection  operators is LMAX  =           4
   number of lm-projection operators is LMMAX =           8

 -----------------------------------------------------------------------------
|                                                                             |
|               ----> ADVICE to this user running VASP <----                  |
|                                                                             |
|     You have a (more or less) 'large supercell' and for larger cells it     |
|     might be more efficient to use real-space projection operators.         |
|     Therefore, try LREAL= Auto in the INCAR file.                           |
|     Mind: For very accurate calculation, you might also keep the            |
|     reciprocal projection scheme (i.e. LREAL=.FALSE.).                      |
|                                                                             |
 -----------------------------------------------------------------------------

 -----------------------------------------------------------------------------
|                                                                             |
|               ----> ADVICE to this user running VASP <----                  |
|                                                                             |
|     You enforced a specific xc type in the INCAR file but a different       |
|     type was found in the POTCAR file.                                      |
|     I HOPE YOU KNOW WHAT YOU ARE DOING!                                     |
|                                                                             |
 -----------------------------------------------------------------------------

  PAW_PBE H 15Jun2001                   :
 energy of atom  1       EATOM=  -12.4884
 kinetic energy error for atom=    0.0004 (will be added to EATOM!!)
  PAW_PBE O 08Apr2002                   :
 energy of atom  2       EATOM= -432.3788
 kinetic energy error for atom=    0.0168 (will be added to EATOM!!)
  PAW_PBE Ti_pv 07Sep2000               :
 energy of atom  3       EATOM=-1042.5995
 kinetic energy error for atom=    0.0007 (will be added to EATOM!!)
  PAW_PBE O 08Apr2002                   :
 energy of atom  4       EATOM= -432.3788
 kinetic energy error for atom=    0.0168 (will be added to EATOM!!)


 POSCAR:  H  O Ti  O
  positions in direct lattice
  No initial velocities read in
 exchange correlation table for  LEXCH =       43
   RHO(1)=    0.500       N(1)  =     2000
   RHO(2)=  100.500       N(2)  =     4000



--------------------------------------------------------------------------------------------------------


 ion  position               nearest neighbor table
   1  0.670  0.567  0.782-   3 0.98
   2  0.670  0.433  0.782-   3 0.98
   3  0.613  0.500  0.780-   2 0.98   1 0.98  51 2.35
   4  0.815  0.833  0.293-  88 1.97  56 1.97  54 1.97  53 2.02  55 2.02  21 3.11   7 3.11   5 3.11

   5  0.599  0.667  0.325-  52 1.97 119 1.97  57 1.97  55 1.97  56 2.02  58 2.02  36 3.11   6 3.11
                             4 3.11  10 3.14
   6  0.315  0.667  0.293- 124 1.97  60 1.97  58 1.97  52 2.02  59 2.02  39 3.11   5 3.11   7 3.11

   7  0.099  0.833  0.325-  53 1.97  91 1.97  61 1.97  59 1.97  60 2.02  54 2.02  22 3.11   4 3.11
                             6 3.11   8 3.14
   8  0.949  0.833  0.422-  62 1.95  96 1.96  64 1.96  63 2.01  54 2.01  61 2.04  11 3.05   9 3.10
                            25 3.10   7 3.14
   9  0.730  0.666  0.451-  57 1.91 127 1.96  63 1.97  65 2.00  66 2.01  64 2.03  10 3.06   8 3.10
                            40 3.11  14 3.17
  10  0.449  0.667  0.422-  66 1.95 132 1.96  68 1.96  58 2.01  67 2.01  57 2.04   9 3.06  11 3.11
                            43 3.11   5 3.14
  11  0.229  0.833  0.451-  61 1.92  99 1.97  67 1.97  62 2.00  69 2.01  68 2.04   8 3.05  26 3.11
                            10 3.11
  12  0.088  0.834  0.551-  70 1.94 104 1.96  72 1.96  71 2.00  69 2.04  62 2.05  15 3.00  13 3.10
                            29 3.11
  13  0.866  0.666  0.576-  65 1.88 135 1.96  71 1.97  74 1.98  72 2.04  73 2.05  14 3.02  12 3.10
                            44 3.11
  14  0.587  0.667  0.550-  74 1.96 140 1.96  76 1.96  75 2.00  66 2.02  65 2.05  13 3.02  15 3.11
                            47 3.12   9 3.17
  15  0.365  0.833  0.577-  69 1.88 107 1.97  75 1.98  70 1.98  77 2.04  76 2.05  12 3.00  30 3.11
                            14 3.11
  16  0.231  0.833  0.683-  78 1.87  80 1.96 112 1.97  79 2.02  77 2.14  70 2.16  19 2.90  33 3.12
                            17 3.14
  17  1.000  0.666  0.702-  73 1.79  81 1.86 143 2.00  79 2.01  80 2.10  18 2.91  16 3.14  48 3.15

  18  0.729  0.666  0.680-  81 1.90 147 1.95  83 1.97  82 2.02  74 2.09  73 2.13  17 2.91  19 3.13
                            51 3.14
  19  0.502  0.834  0.702-  77 1.79  78 1.86  82 2.00 114 2.00  83 2.09  16 2.90  34 3.12  18 3.13

  20  0.815  0.167  0.293-  88 1.97 120 1.97  86 1.97  85 2.02  87 2.02  21 3.11  23 3.11  37 3.11

  21  0.599  0.000  0.325-  84 1.97  55 1.97  87 1.97  89 1.97  88 2.02  90 2.02   4 3.11  20 3.11
                            22 3.11  26 3.15
  22  0.315  0.000  0.293-  60 1.97  92 1.97  90 1.97  84 2.02  91 2.02  23 3.11   7 3.11  21 3.11

  23  0.099  0.167  0.325-  85 1.97  91 1.97  93 1.97 123 1.97  92 2.02  86 2.02  22 3.11  20 3.11
                            38 3.11  24 3.14
  24  0.949  0.167  0.422-  94 1.95  96 1.96 128 1.96  95 2.01  86 2.01  93 2.04  27 3.05  41 3.10
                            25 3.10  23 3.14
  25  0.729  0.000  0.451-  89 1.91  95 1.97  63 1.97  98 2.00  97 2.00  96 2.04  26 3.05  24 3.10
                             8 3.10
  26  0.449  0.000  0.422-  98 1.95 100 1.96  68 1.96  99 2.01  90 2.01  89 2.04  25 3.05  27 3.11
                            11 3.11  21 3.15
  27  0.229  0.167  0.451-  93 1.92  99 1.97 131 1.97  94 2.00 101 2.01 100 2.04  24 3.05  26 3.11
                            42 3.11
  28  0.088  0.166  0.551- 102 1.94 104 1.96 136 1.96 103 2.00 101 2.04  94 2.05  31 3.00  45 3.10
                            29 3.11
  29  0.865  0.000  0.576-  97 1.88 106 1.97 103 1.97  71 1.97 105 2.05 104 2.06  30 3.00  28 3.11
                            12 3.11
  30  0.587  0.000  0.551- 106 1.94 108 1.96  76 1.96 107 2.00  98 2.04  97 2.04  29 3.00  31 3.11
                            15 3.11
  31  0.365  0.167  0.577- 101 1.88 107 1.97 139 1.98 102 1.98 109 2.04 108 2.05  28 3.00  30 3.11
                            46 3.11
  32  0.231  0.167  0.683- 110 1.87 144 1.96 112 1.97 111 2.02 109 2.14 102 2.16  35 2.90  33 3.12
                            49 3.14
  33  0.002  0.000  0.702- 105 1.80 113 1.86  79 2.01 111 2.01 112 2.08  34 2.89  32 3.12  16 3.12

  34  0.732  1.000  0.682- 113 1.87  83 1.96 115 1.96 114 2.03 105 2.13 106 2.15  33 2.89  19 3.12
                            35 3.12
  35  0.502  0.166  0.702- 109 1.79 110 1.86 146 2.00 114 2.00 115 2.09  32 2.90  34 3.12  50 3.13

  36  0.815  0.500  0.293-  56 1.97 120 1.97 118 1.97 117 2.02 119 2.02  37 3.11   5 3.11  39 3.11

  37  0.599  0.333  0.325- 116 1.97 119 1.97 121 1.97  87 1.97 120 2.02 122 2.02  36 3.11  38 3.11
                            20 3.11  42 3.14
  38  0.315  0.333  0.293- 124 1.97  92 1.97 122 1.97 116 2.02 123 2.02  39 3.11  37 3.11  23 3.11

  39  0.099  0.500  0.325- 117 1.97  59 1.97 123 1.97 125 1.97 124 2.02 118 2.02   6 3.11  38 3.11
                            36 3.11  40 3.13
  40  0.950  0.500  0.422- 126 1.95 128 1.96  64 1.96 118 2.01 127 2.02 125 2.02  43 3.05   9 3.11
                            41 3.11  39 3.13
  41  0.730  0.334  0.451- 121 1.91 127 1.96  95 1.97 129 2.00 130 2.01 128 2.03  42 3.06  24 3.10
                            40 3.11  46 3.17
  42  0.449  0.333  0.422- 130 1.95 132 1.96 100 1.96 122 2.01 131 2.01 121 2.04  41 3.06  27 3.11
                            43 3.11  37 3.14
  43  0.229  0.500  0.452- 125 1.94  67 1.97 131 1.97 126 1.98 133 2.01 132 2.04  40 3.05  42 3.11
                            10 3.11  44 3.15
  44  0.090  0.500  0.551- 134 1.94 136 1.96  72 1.96 133 2.02 135 2.02 126 2.05  47 3.00  45 3.11
                            13 3.11  43 3.15
  45  0.866  0.334  0.576- 129 1.88 135 1.96 103 1.97 138 1.98 136 2.04 137 2.05  46 3.02  28 3.10
                            44 3.11
  46  0.587  0.333  0.550- 138 1.96 140 1.96 108 1.96 139 2.00 130 2.02 129 2.05  45 3.02  31 3.11
                            47 3.12  41 3.17
  47  0.366  0.500  0.579- 133 1.92 134 1.96 139 1.97  75 1.97 141 2.05 140 2.06  44 3.00  46 3.12
                            14 3.12
  48  0.233  0.500  0.683- 142 1.87 144 1.96  80 1.96 143 2.05 141 2.09 134 2.15  51 2.91  49 3.15
                            17 3.15
  49  1.000  0.334  0.702- 137 1.79 145 1.86 143 2.00 111 2.01 144 2.10  50 2.91  32 3.14  48 3.15

  50  0.729  0.334  0.680- 145 1.90 147 1.95 115 1.97 146 2.02 138 2.09 137 2.13  49 2.91  35 3.13
                            51 3.14
  51  0.503  0.500  0.707- 142 1.85 141 1.86 146 2.01  82 2.01 147 2.14   3 2.35  48 2.91  18 3.14
                            50 3.14
  52  0.494  0.667  0.267-   5 1.97   6 2.02
  53  0.994  0.833  0.267-   7 1.97   4 2.02
  54  0.919  0.833  0.351-   4 1.97   8 2.01   7 2.02
  55  0.636  0.833  0.320-  21 1.97   5 1.97   4 2.02
  56  0.778  0.667  0.299-  36 1.97   4 1.97   5 2.02
  57  0.628  0.667  0.394-   9 1.91   5 1.97  10 2.04
  58  0.419  0.667  0.351-   6 1.97  10 2.01   5 2.02
  59  0.136  0.667  0.320-  39 1.97   7 1.97   6 2.02
  60  0.278  0.833  0.299-  22 1.97   6 1.97   7 2.02
  61  0.128  0.833  0.394-  11 1.92   7 1.97   8 2.04
  62  0.055  0.833  0.479-   8 1.95  11 2.00  12 2.05
  63  0.770  0.833  0.447-  25 1.97   9 1.97   8 2.01
  64  0.912  0.667  0.426-  40 1.96   8 1.96   9 2.03
  65  0.765  0.666  0.521-  13 1.88   9 2.00  14 2.05
  66  0.554  0.666  0.479-  10 1.95   9 2.01  14 2.02
  67  0.269  0.667  0.447-  43 1.97  11 1.97  10 2.01
  68  0.412  0.833  0.426-  10 1.96  26 1.96  11 2.04
  69  0.265  0.833  0.521-  15 1.88  11 2.01  12 2.04
  70  0.195  0.833  0.607-  12 1.94  15 1.98  16 2.16
  71  0.907  0.833  0.573-  29 1.97  13 1.97  12 2.00
  72  0.051  0.666  0.554-  44 1.96  12 1.96  13 2.04
  73  0.912  0.668  0.647-  17 1.79  13 2.05  18 2.13
  74  0.696  0.668  0.606-  14 1.96  13 1.98  18 2.09
  75  0.408  0.666  0.575-  47 1.97  15 1.98  14 2.00
  76  0.550  0.833  0.554-  14 1.96  30 1.96  15 2.05
  77  0.411  0.835  0.648-  19 1.79  15 2.04  16 2.14
  78  0.347  0.833  0.734-  19 1.86  16 1.87
  79  0.052  0.833  0.710-  33 2.01  17 2.01  16 2.02
  80  0.193  0.666  0.683-  16 1.96  48 1.96  17 2.10
  81  0.843  0.663  0.733-  17 1.86  18 1.90
  82  0.554  0.668  0.709-  19 2.00  51 2.01  18 2.02
  83  0.694  0.834  0.681-  34 1.96  18 1.97  19 2.09
  84  0.494  0.000  0.267-  21 1.97  22 2.02
  85  0.994  0.167  0.267-  23 1.97  20 2.02
  86  0.919  0.167  0.351-  20 1.97  24 2.01  23 2.02
  87  0.636  0.167  0.320-  21 1.97  37 1.97  20 2.02
  88  0.778  0.000  0.299-   4 1.97  20 1.97  21 2.02
  89  0.628  0.000  0.394-  25 1.91  21 1.97  26 2.04
  90  0.419  0.000  0.351-  22 1.97  26 2.01  21 2.02
  91  0.136  0.000  0.320-   7 1.97  23 1.97  22 2.02
  92  0.278  0.167  0.299-  22 1.97  38 1.97  23 2.02
  93  0.128  0.167  0.394-  27 1.92  23 1.97  24 2.04
  94  0.055  0.167  0.479-  24 1.95  27 2.00  28 2.05
  95  0.770  0.167  0.447-  25 1.97  41 1.97  24 2.01
  96  0.912  1.000  0.426-   8 1.96  24 1.96  25 2.04
  97  0.765  1.000  0.521-  29 1.88  25 2.00  30 2.04
  98  0.554  1.000  0.479-  26 1.95  25 2.00  30 2.04
  99  0.269  0.000  0.447-  27 1.97  11 1.97  26 2.01
 100  0.412  0.167  0.426-  42 1.96  26 1.96  27 2.04
 101  0.265  0.167  0.521-  31 1.88  27 2.01  28 2.04
 102  0.195  0.167  0.607-  28 1.94  31 1.98  32 2.16
 103  0.907  0.167  0.573-  29 1.97  45 1.97  28 2.00
 104  0.052  0.000  0.554-  12 1.96  28 1.96  29 2.06
 105  0.912  1.000  0.647-  33 1.80  29 2.05  34 2.13
 106  0.696  0.000  0.607-  30 1.94  29 1.97  34 2.15
 107  0.407  1.000  0.574-  15 1.97  31 1.97  30 2.00
 108  0.550  0.167  0.554-  46 1.96  30 1.96  31 2.05
 109  0.411  0.165  0.648-  35 1.79  31 2.04  32 2.14
 110  0.347  0.167  0.734-  35 1.86  32 1.87
 111  0.052  0.167  0.710-  33 2.01  49 2.01  32 2.02
 112  0.193  0.000  0.683-  32 1.97  16 1.97  33 2.08
 113  0.846  0.000  0.733-  33 1.86  34 1.87
 114  0.554  0.000  0.710-  35 2.00  19 2.00  34 2.03
 115  0.694  0.166  0.681-  34 1.96  50 1.97  35 2.09
 116  0.494  0.333  0.267-  37 1.97  38 2.02
 117  0.994  0.500  0.267-  39 1.97  36 2.02
 118  0.919  0.500  0.351-  36 1.97  40 2.01  39 2.02
 119  0.636  0.500  0.320-   5 1.97  37 1.97  36 2.02
 120  0.778  0.333  0.299-  36 1.97  20 1.97  37 2.02
 121  0.628  0.333  0.394-  41 1.91  37 1.97  42 2.04
 122  0.419  0.333  0.351-  38 1.97  42 2.01  37 2.02
 123  0.136  0.333  0.320-  39 1.97  23 1.97  38 2.02
 124  0.278  0.500  0.299-   6 1.97  38 1.97  39 2.02
 125  0.128  0.500  0.394-  43 1.94  39 1.97  40 2.02
 126  0.055  0.500  0.479-  40 1.95  43 1.98  44 2.05
 127  0.770  0.500  0.447-   9 1.96  41 1.96  40 2.02
 128  0.912  0.333  0.426-  40 1.96  24 1.96  41 2.03
 129  0.765  0.334  0.521-  45 1.88  41 2.00  46 2.05
 130  0.554  0.334  0.479-  42 1.95  41 2.01  46 2.02
 131  0.269  0.333  0.447-  43 1.97  27 1.97  42 2.01
 132  0.412  0.500  0.426-  10 1.96  42 1.96  43 2.04
 133  0.266  0.500  0.522-  47 1.92  43 2.01  44 2.02
 134  0.196  0.500  0.608-  44 1.94  47 1.96  48 2.15
 135  0.907  0.500  0.574-  13 1.96  45 1.96  44 2.02
 136  0.051  0.334  0.554-  44 1.96  28 1.96  45 2.04
 137  0.912  0.332  0.647-  49 1.79  45 2.05  50 2.13
 138  0.696  0.332  0.606-  46 1.96  45 1.98  50 2.09
 139  0.408  0.334  0.575-  47 1.97  31 1.98  46 2.00
 140  0.551  0.500  0.554-  14 1.96  46 1.96  47 2.06
 141  0.412  0.500  0.650-  51 1.86  47 2.05  48 2.09
 142  0.344  0.500  0.735-  51 1.85  48 1.87
 143  0.052  0.500  0.710-  49 2.00  17 2.00  48 2.05
 144  0.193  0.334  0.683-  32 1.96  48 1.96  49 2.10
 145  0.843  0.337  0.733-  49 1.86  50 1.90
 146  0.554  0.332  0.709-  35 2.00  51 2.01  50 2.02
 147  0.692  0.500  0.679-  50 1.95  18 1.95  51 2.14


IMPORTANT INFORMATION: All symmetrisations will be switched off!
NOSYMM: (Re-)initialisation of all symmetry stuff for point group C_1.


----------------------------------------------------------------------------------------

                                     Primitive cell                                     

  volume of cell :    3395.7251

  direct lattice vectors                    reciprocal lattice vectors
    10.494931139  0.000000000  0.000000000     0.095284094 -0.000000000  0.000000000
     0.000000000 11.517834055  0.000000000     0.000000000  0.086821879  0.000000000
     0.000000000  0.000000000 28.091964603     0.000000000  0.000000000  0.035597368

  length of vectors
    10.494931139 11.517834055 28.091964603     0.095284094  0.086821879  0.035597368

  position of ions in fractional coordinates (direct lattice)
     0.670131602  0.567088551  0.782143149
     0.670129256  0.432914828  0.782142627
     0.613486459  0.499994900  0.779741489
     0.815066060  0.833333333  0.293308113
     0.598522517  0.666666667  0.325106865
     0.315066060  0.666666667  0.293308113
     0.098522517  0.833333333  0.325106865
     0.949012658  0.833419617  0.422127748
     0.729946545  0.666325155  0.450696311
     0.448531623  0.666520512  0.421997017
     0.229043224  0.833299279  0.451006959
     0.087937998  0.833590817  0.551054848
     0.866104175  0.666271499  0.575952409
     0.586642929  0.666510490  0.550188414
     0.364864933  0.833393036  0.576964524
     0.230832372  0.832711645  0.682952035
     0.999677109  0.665881694  0.701710442
     0.729144173  0.665927547  0.679747092
     0.502142269  0.834282217  0.701668725
     0.815066060  0.166666667  0.293308113
     0.598522517  0.000000000  0.325106865
     0.315066060  0.000000000  0.293308113
     0.098522517  0.166666667  0.325106865
     0.949012640  0.166580411  0.422127754
     0.729440449  0.000000036  0.450751027
     0.448627925  0.000000030  0.422109941
     0.229043241  0.166700726  0.451006956
     0.087937967  0.166409225  0.551054840
     0.864710561  0.000000025  0.576414506
     0.587093150  0.000000029  0.550592138
     0.364864932  0.166606971  0.576964506
     0.230832278  0.167288361  0.682952019
     0.001888127  0.000000022  0.701739305
     0.731895844  0.999999961  0.682130412
     0.502142172  0.165717599  0.701668734
     0.815066060  0.500000000  0.293308113
     0.598522517  0.333333333  0.325106865
     0.315066060  0.333333333  0.293308113
     0.098522517  0.500000000  0.325106865
     0.950132349  0.499999989  0.421904034
     0.729946546  0.333674844  0.450696332
     0.448531603  0.333479499  0.421997014
     0.229382204  0.500000007  0.451792174
     0.090193177  0.499999996  0.551070408
     0.866104193  0.333728479  0.575952398
     0.586642938  0.333489508  0.550188404
     0.366216394  0.499999977  0.579418397
     0.233305189  0.499999987  0.683193736
     0.999677107  0.334118323  0.701710431
     0.729144287  0.334072445  0.679747018
     0.502943935  0.499999903  0.707034786
     0.494353811  0.666666667  0.266980260
     0.994353811  0.833333333  0.266980260
     0.919234766  0.833333333  0.351434718
     0.635778309  0.833333333  0.319635967
     0.777810268  0.666666667  0.298779011
     0.628179638  0.666666667  0.394175267
     0.419234766  0.666666667  0.351434718
     0.135778309  0.666666667  0.319635967
     0.277810268  0.833333333  0.298779011
     0.128179638  0.833333333  0.394175267
     0.054526684  0.833458455  0.479166469
     0.769565536  0.833289583  0.446830349
     0.912151923  0.666552029  0.426319693
     0.765153787  0.666265743  0.520695593
     0.554173993  0.666213668  0.479226337
     0.269388152  0.666527624  0.447219815
     0.411542463  0.833240377  0.426272911
     0.265240438  0.832869802  0.521316872
     0.195141412  0.833070305  0.607387531
     0.907116497  0.833486570  0.573464902
     0.051470290  0.666467417  0.553789965
     0.912431592  0.667512777  0.646799503
     0.696369431  0.668323551  0.606467449
     0.407594168  0.666442247  0.574988157
     0.549917465  0.833269770  0.553570800
     0.411012007  0.834767502  0.647605271
     0.346986791  0.832917777  0.733588271
     0.052165453  0.832854142  0.709989415
     0.193247744  0.666429995  0.683142301
     0.842779005  0.663093900  0.732521257
     0.553921367  0.668321825  0.709155307
     0.693519149  0.833876487  0.681458008
     0.494353811  0.000000000  0.266980260
     0.994353811  0.166666667  0.266980260
     0.919234766  0.166666667  0.351434718
     0.635778309  0.166666667  0.319635967
     0.777810268  0.000000000  0.298779011
     0.628179638  0.000000000  0.394175267
     0.419234766  0.000000000  0.351434718
     0.135778309  0.000000000  0.319635967
     0.277810268  0.166666667  0.298779011
     0.128179638  0.166666667  0.394175267
     0.054526697  0.166541566  0.479166473
     0.769565537  0.166710410  0.446830347
     0.911928809  0.999999996  0.426241507
     0.764951690  0.999999989  0.520871050
     0.554279411  0.999999995  0.479083963
     0.269388916  0.000000005  0.447209647
     0.411542450  0.166759608  0.426272907
     0.265240458  0.167130181  0.521316873
     0.195141431  0.166929758  0.607387533
     0.907116511  0.166513411  0.573464910
     0.051573609  0.000000000  0.553931904
     0.911868928  0.999999994  0.647325111
     0.695620555  0.000000047  0.606702033
     0.406690031  0.999999999  0.574058596
     0.549917431  0.166730221  0.553570803
     0.411012064  0.165232454  0.647605336
     0.346986899  0.167082432  0.733588281
     0.052165432  0.167145941  0.709989425
     0.193131746  0.000000037  0.682990946
     0.846361531  0.000000080  0.733312764
     0.553958138  0.000000037  0.710267349
     0.693519144  0.166123522  0.681458058
     0.494353811  0.333333333  0.266980260
     0.994353811  0.500000000  0.266980260
     0.919234766  0.500000000  0.351434718
     0.635778309  0.500000000  0.319635967
     0.777810268  0.333333333  0.298779011
     0.628179638  0.333333333  0.394175267
     0.419234766  0.333333333  0.351434718
     0.135778309  0.333333333  0.319635967
     0.277810268  0.500000000  0.298779011
     0.128179638  0.500000000  0.394175267
     0.055201890  0.500000024  0.479330414
     0.769602305  0.500000034  0.446671478
     0.912151931  0.333448000  0.426319688
     0.765153794  0.333734307  0.520695605
     0.554173970  0.333786343  0.479226340
     0.269388160  0.333472392  0.447219810
     0.411680199  0.500000029  0.426308574
     0.266215943  0.500000009  0.522171088
     0.195563204  0.499999968  0.607976673
     0.907115455  0.500000052  0.573752528
     0.051470265  0.333532632  0.553789958
     0.912431584  0.332487251  0.646799551
     0.696369389  0.331676398  0.606467486
     0.407594183  0.333557730  0.574988171
     0.551133411  0.500000006  0.554499978
     0.411725983  0.499999947  0.650218180
     0.344124460  0.499999825  0.735434619
     0.051570910  0.499999952  0.709725595
     0.193247721  0.333569992  0.683142325
     0.842778909  0.336906003  0.732521312
     0.553921263  0.331678094  0.709155168
     0.692123435  0.499999881  0.679074513

  ion indices of the primitive-cell ions
   primitive index   ion index
                 1           1
                 2           2
                 3           3
                 4           4
                 5           5
                 6           6
                 7           7
                 8           8
                 9           9
                10          10
                11          11
                12          12
                13          13
                14          14
                15          15
                16          16
                17          17
                18          18
                19          19
                20          20
                21          21
                22          22
                23          23
                24          24
                25          25
                26          26
                27          27
                28          28
                29          29
                30          30
                31          31
                32          32
                33          33
                34          34
                35          35
                36          36
                37          37
                38          38
                39          39
                40          40
                41          41
                42          42
                43          43
                44          44
                45          45
                46          46
                47          47
                48          48
                49          49
                50          50
                51          51
                52          52
                53          53
                54          54
                55          55
                56          56
                57          57
                58          58
                59          59
                60          60
                61          61
                62          62
                63          63
                64          64
                65          65
                66          66
                67          67
                68          68
                69          69
                70          70
                71          71
                72          72
                73          73
                74          74
                75          75
                76          76
                77          77
                78          78
                79          79
                80          80
                81          81
                82          82
                83          83
                84          84
                85          85
                86          86
                87          87
                88          88
                89          89
                90          90
                91          91
                92          92
                93          93
                94          94
                95          95
                96          96
                97          97
                98          98
                99          99
               100         100
               101         101
               102         102
               103         103
               104         104
               105         105
               106         106
               107         107
               108         108
               109         109
               110         110
               111         111
               112         112
               113         113
               114         114
               115         115
               116         116
               117         117
               118         118
               119         119
               120         120
               121         121
               122         122
               123         123
               124         124
               125         125
               126         126
               127         127
               128         128
               129         129
               130         130
               131         131
               132         132
               133         133
               134         134
               135         135
               136         136
               137         137
               138         138
               139         139
               140         140
               141         141
               142         142
               143         143
               144         144
               145         145
               146         146
               147         147

----------------------------------------------------------------------------------------



 KPOINTS: pymatgen v2020.8.13 with grid density = 

Automatic generation of k-mesh.
 Grid dimensions read from file:
 generate k-points for:    3    3    1

 Generating k-lattice:

  Cartesian coordinates                     Fractional coordinates (reciprocal lattice)
     0.031761365 -0.000000000  0.000000000     0.333333333 -0.000000000  0.000000000
     0.000000000  0.028940626  0.000000000     0.000000000  0.333333333  0.000000000
     0.000000000  0.000000000  0.035597368     0.000000000  0.000000000  1.000000000

  Length of vectors
     0.031761365  0.028940626  0.035597368

  Shift w.r.t. Gamma in fractional coordinates (k-lattice)
     0.000000000  0.000000000  0.000000000

 
 Subroutine IBZKPT returns following result:
 ===========================================
 
 Found      5 irreducible k-points:
 
 Following reciprocal coordinates:
            Coordinates               Weight
  0.000000  0.000000  0.000000      1.000000
  0.333333  0.000000  0.000000      2.000000
  0.000000  0.333333  0.000000      2.000000
  0.333333  0.333333  0.000000      2.000000
  0.333333 -0.333333  0.000000      2.000000
 
 Following cartesian coordinates:
            Coordinates               Weight
  0.000000  0.000000  0.000000      1.000000
  0.031761  0.000000  0.000000      2.000000
  0.000000  0.028941  0.000000      2.000000
  0.031761  0.028941  0.000000      2.000000
  0.031761 -0.028941  0.000000      2.000000
 


--------------------------------------------------------------------------------------------------------




 Dimension of arrays:
   k-points           NKPTS =      5   k-points in BZ     NKDIM =      5   number of bands    NBANDS=    640
   number of dos      NEDOS =    301   number of ions     NIONS =    147
   non local maximal  LDIM  =      6   non local SUM 2l+1 LMDIM =     18
   total plane-waves  NPLWV = ******
   max r-space proj   IRMAX =      1   max aug-charges    IRDMAX=  20849
   dimension x,y,z NGX =    84 NGY =   96 NGZ =  224
   dimension x,y,z NGXF=   168 NGYF=  192 NGZF=  448
   support grid    NGXF=   168 NGYF=  192 NGZF=  448
   ions per type =               2   1  48  96
   NGX,Y,Z   is equivalent  to a cutoff of  13.31, 13.86, 13.26 a.u.
   NGXF,Y,Z  is equivalent  to a cutoff of  26.61, 27.71, 26.51 a.u.

 SYSTEM =  TiO2                                    
 POSCAR =   H  O Ti  O                             

--------------------------------------------------------------------------------------------------------


  energy-cutoff  :      600.00
  volume of cell :     3395.73
      direct lattice vectors                 reciprocal lattice vectors
    10.494931139  0.000000000  0.000000000     0.095284094 -0.000000000  0.000000000
     0.000000000 11.517834055  0.000000000     0.000000000  0.086821879  0.000000000
     0.000000000  0.000000000 28.091964603     0.000000000  0.000000000  0.035597368

  length of vectors
    10.494931139 11.517834055 28.091964603     0.095284094  0.086821879  0.035597368



 k-points in units of 2pi/SCALE and weight: pymatgen v2020.8.13 with grid density = 
   0.00000000  0.00000000  0.00000000       0.111
   0.03176136  0.00000000  0.00000000       0.222
   0.00000000  0.02894063  0.00000000       0.222
   0.03176136  0.02894063  0.00000000       0.222
   0.03176136 -0.02894063  0.00000000       0.222

 k-points in reciprocal lattice and weights: pymatgen v2020.8.13 with grid density = 
   0.00000000  0.00000000  0.00000000       0.111
   0.33333333  0.00000000  0.00000000       0.222
   0.00000000  0.33333333  0.00000000       0.222
   0.33333333  0.33333333  0.00000000       0.222
   0.33333333 -0.33333333  0.00000000       0.222

 position of ions in fractional coordinates (direct lattice) 
   0.67013160  0.56708855  0.78214315
   0.67012926  0.43291483  0.78214263
   0.61348646  0.49999490  0.77974149
   0.81506606  0.83333333  0.29330811
   0.59852252  0.66666667  0.32510686
   0.31506606  0.66666667  0.29330811
   0.09852252  0.83333333  0.32510686
   0.94901266  0.83341962  0.42212775
   0.72994654  0.66632516  0.45069631
   0.44853162  0.66652051  0.42199702
   0.22904322  0.83329928  0.45100696
   0.08793800  0.83359082  0.55105485
   0.86610417  0.66627150  0.57595241
   0.58664293  0.66651049  0.55018841
   0.36486493  0.83339304  0.57696452
   0.23083237  0.83271164  0.68295204
   0.99967711  0.66588169  0.70171044
   0.72914417  0.66592755  0.67974709
   0.50214227  0.83428222  0.70166873
   0.81506606  0.16666667  0.29330811
   0.59852252  0.00000000  0.32510686
   0.31506606  0.00000000  0.29330811
   0.09852252  0.16666667  0.32510686
   0.94901264  0.16658041  0.42212775
   0.72944045  0.00000004  0.45075103
   0.44862792  0.00000003  0.42210994
   0.22904324  0.16670073  0.45100696
   0.08793797  0.16640923  0.55105484
   0.86471056  0.00000002  0.57641451
   0.58709315  0.00000003  0.55059214
   0.36486493  0.16660697  0.57696451
   0.23083228  0.16728836  0.68295202
   0.00188813  0.00000002  0.70173930
   0.73189584  0.99999996  0.68213041
   0.50214217  0.16571760  0.70166873
   0.81506606  0.50000000  0.29330811
   0.59852252  0.33333333  0.32510686
   0.31506606  0.33333333  0.29330811
   0.09852252  0.50000000  0.32510686
   0.95013235  0.49999999  0.42190403
   0.72994655  0.33367484  0.45069633
   0.44853160  0.33347950  0.42199701
   0.22938220  0.50000001  0.45179217
   0.09019318  0.50000000  0.55107041
   0.86610419  0.33372848  0.57595240
   0.58664294  0.33348951  0.55018840
   0.36621639  0.49999998  0.57941840
   0.23330519  0.49999999  0.68319374
   0.99967711  0.33411832  0.70171043
   0.72914429  0.33407244  0.67974702
   0.50294393  0.49999990  0.70703479
   0.49435381  0.66666667  0.26698026
   0.99435381  0.83333333  0.26698026
   0.91923477  0.83333333  0.35143472
   0.63577831  0.83333333  0.31963597
   0.77781027  0.66666667  0.29877901
   0.62817964  0.66666667  0.39417527
   0.41923477  0.66666667  0.35143472
   0.13577831  0.66666667  0.31963597
   0.27781027  0.83333333  0.29877901
   0.12817964  0.83333333  0.39417527
   0.05452668  0.83345845  0.47916647
   0.76956554  0.83328958  0.44683035
   0.91215192  0.66655203  0.42631969
   0.76515379  0.66626574  0.52069559
   0.55417399  0.66621367  0.47922634
   0.26938815  0.66652762  0.44721981
   0.41154246  0.83324038  0.42627291
   0.26524044  0.83286980  0.52131687
   0.19514141  0.83307030  0.60738753
   0.90711650  0.83348657  0.57346490
   0.05147029  0.66646742  0.55378997
   0.91243159  0.66751278  0.64679950
   0.69636943  0.66832355  0.60646745
   0.40759417  0.66644225  0.57498816
   0.54991747  0.83326977  0.55357080
   0.41101201  0.83476750  0.64760527
   0.34698679  0.83291778  0.73358827
   0.05216545  0.83285414  0.70998941
   0.19324774  0.66642999  0.68314230
   0.84277900  0.66309390  0.73252126
   0.55392137  0.66832182  0.70915531
   0.69351915  0.83387649  0.68145801
   0.49435381  0.00000000  0.26698026
   0.99435381  0.16666667  0.26698026
   0.91923477  0.16666667  0.35143472
   0.63577831  0.16666667  0.31963597
   0.77781027  0.00000000  0.29877901
   0.62817964  0.00000000  0.39417527
   0.41923477  0.00000000  0.35143472
   0.13577831  0.00000000  0.31963597
   0.27781027  0.16666667  0.29877901
   0.12817964  0.16666667  0.39417527
   0.05452670  0.16654157  0.47916647
   0.76956554  0.16671041  0.44683035
   0.91192881  1.00000000  0.42624151
   0.76495169  0.99999999  0.52087105
   0.55427941  0.99999999  0.47908396
   0.26938892  0.00000000  0.44720965
   0.41154245  0.16675961  0.42627291
   0.26524046  0.16713018  0.52131687
   0.19514143  0.16692976  0.60738753
   0.90711651  0.16651341  0.57346491
   0.05157361  0.00000000  0.55393190
   0.91186893  0.99999999  0.64732511
   0.69562056  0.00000005  0.60670203
   0.40669003  1.00000000  0.57405860
   0.54991743  0.16673022  0.55357080
   0.41101206  0.16523245  0.64760534
   0.34698690  0.16708243  0.73358828
   0.05216543  0.16714594  0.70998942
   0.19313175  0.00000004  0.68299095
   0.84636153  0.00000008  0.73331276
   0.55395814  0.00000004  0.71026735
   0.69351914  0.16612352  0.68145806
   0.49435381  0.33333333  0.26698026
   0.99435381  0.50000000  0.26698026
   0.91923477  0.50000000  0.35143472
   0.63577831  0.50000000  0.31963597
   0.77781027  0.33333333  0.29877901
   0.62817964  0.33333333  0.39417527
   0.41923477  0.33333333  0.35143472
   0.13577831  0.33333333  0.31963597
   0.27781027  0.50000000  0.29877901
   0.12817964  0.50000000  0.39417527
   0.05520189  0.50000002  0.47933041
   0.76960231  0.50000003  0.44667148
   0.91215193  0.33344800  0.42631969
   0.76515379  0.33373431  0.52069561
   0.55417397  0.33378634  0.47922634
   0.26938816  0.33347239  0.44721981
   0.41168020  0.50000003  0.42630857
   0.26621594  0.50000001  0.52217109
   0.19556320  0.49999997  0.60797667
   0.90711545  0.50000005  0.57375253
   0.05147027  0.33353263  0.55378996
   0.91243158  0.33248725  0.64679955
   0.69636939  0.33167640  0.60646749
   0.40759418  0.33355773  0.57498817
   0.55113341  0.50000001  0.55449998
   0.41172598  0.49999995  0.65021818
   0.34412446  0.49999983  0.73543462
   0.05157091  0.49999995  0.70972560
   0.19324772  0.33356999  0.68314232
   0.84277891  0.33690600  0.73252131
   0.55392126  0.33167809  0.70915517
   0.69212344  0.49999988  0.67907451

 position of ions in cartesian coordinates  (Angst):
   7.03298501  6.53163183 21.97193765
   7.03296040  4.98624115 21.97192299
   6.43849814  5.75885828 21.90447030
   8.55406217  9.59819505  8.23960113
   6.28145260  7.67855604  9.13289054
   3.30659661  7.67855604  8.23960113
   1.03398703  9.59819505  9.13289054
   9.95982249  9.59918885 11.85839776
   7.66073872  7.67462257 12.66094480
   4.70730850  7.67687265 11.85472527
   2.40379286  9.59780281 12.66967153
   0.92290323  9.60116070 15.48021328
   9.08970368  7.67400456 16.17963468
   6.15677715  7.67675721 15.45587344
   3.82923235  9.59888270 16.20806698
   2.42256985  9.59103454 19.18546440
  10.49154242  7.66951486 19.71242490
   7.65231789  7.67004298 19.09543125
   5.26994853  9.60912413 19.71125299
   8.55406217  1.91963901  8.23960113
   6.28145260  0.00000000  9.13289054
   3.30659661  0.00000000  8.23960113
   1.03398703  1.91963901  9.13289054
   9.95982231  1.91864553 11.85839793
   7.65542728  0.00000041 12.66248189
   4.70831918  0.00000034 11.85789753
   2.40379304  1.92003129 12.66967144
   0.92290291  1.91667384 15.48021307
   9.07507780  0.00000029 16.19261591
   6.16150218  0.00000033 15.46721485
   3.82923233  1.91895144 16.20806647
   2.42256886  1.92679959 19.18546395
   0.01981577  0.00000025 19.71323571
   7.68119648 11.51783361 19.16238338
   5.26994751  1.90870781 19.71125324
   8.55406217  5.75891703  8.23960113
   6.28145260  3.83927802  9.13289054
   3.30659661  3.83927802  8.23960113
   1.03398703  5.75891703  9.13289054
   9.97157357  5.75891691 11.85211319
   7.66073873  3.84321148 12.66094541
   4.70730828  3.84096153 11.85472517
   2.40735044  5.75891710 12.69172977
   0.94657118  5.75891698 15.48065039
   9.08970387  3.84382924 16.17963437
   6.15677723  3.84107681 15.45587318
   3.84341584  5.75891677 16.27700110
   2.44852189  5.75891688 19.19225424
  10.49154240  3.84831940 19.71242458
   7.65231908  3.84779098 19.09542917
   5.27836196  5.75891591 19.86199618
   5.18820920  7.67855604  7.50000000
  10.43567477  9.59819505  7.50000000
   9.64730557  9.59819505  9.87249167
   6.67244958  9.59819505  8.97920226
   8.16306520  7.67855604  8.39328941
   6.59270205  7.67855604 11.07315764
   4.39984000  7.67855604  9.87249167
   1.42498401  7.67855604  8.97920226
   2.91559963  9.59819505  8.39328941
   1.34523648  9.59819505 11.07315764
   0.57225379  9.59963617 13.46072750
   8.07653731  9.59769114 12.55234235
   9.57297162  7.67723566 11.97615772
   8.03023631  7.67393827 14.62736217
   5.81601789  7.67333847 13.46240929
   2.82721010  7.67695456 12.56328321
   4.31910981  9.59712439 11.97484353
   2.78368013  9.59285617 14.64481512
   2.04799568  9.59516553 17.06270903
   9.52012517  9.59995999 16.10975573
   0.54017714  7.67626111 15.55704810
   9.57590673  7.68830140 18.16986873
   7.30834923  7.69763976 17.03686212
   4.27767272  7.67597120 16.15254696
   5.77134593  9.59746293 15.55089133
   4.31354272  9.61471357 18.19250436
   3.64160248  9.59340873 20.60793574
   0.54747284  9.59267580 19.94499751
   2.02812177  7.67583009 19.19080933
   8.84490762  7.63740550 20.57796121
   5.81336660  7.69761987 19.92156577
   7.27843571  9.60445099 19.14349424
   5.18820920  0.00000000  7.50000000
  10.43567477  1.91963901  7.50000000
   9.64730557  1.91963901  9.87249167
   6.67244958  1.91963901  8.97920226
   8.16306520  0.00000000  8.39328941
   6.59270205  0.00000000 11.07315764
   4.39984000  0.00000000  9.87249167
   1.42498401  0.00000000  8.97920226
   2.91559963  1.91963901  8.39328941
   1.34523648  1.91963901 11.07315764
   0.57225393  1.91819812 13.46072760
   8.07653731  1.92014284 12.55234228
   9.57063005 11.51783401 11.97396133
   8.02811531 11.51783393 14.63229110
   5.81712425 11.51783399 13.45840974
   2.82721812  0.00000006 12.56299757
   4.31910967  1.92070949 11.97484343
   2.78368034  1.92497769 14.64481516
   2.04799588  1.92266925 17.06270906
   9.52012532  1.91787384 16.10975594
   0.54126147  0.00000000 15.56103544
   9.57000161 11.51783398 18.18463411
   7.30048982  0.00000054 17.04345203
   4.26818387 11.51783405 16.12643375
   5.77134557  1.92037101 15.55089141
   4.31354331  1.90311999 18.19250617
   3.64160361  1.92442772 20.60793601
   0.54747261  1.92515921 19.94499778
   2.02690438  0.00000043 19.18655747
   8.88250598  0.00000092 20.60019620
   5.81375251  0.00000043 19.95280524
   7.27843566  1.91338316 19.14349564
   5.18820920  3.83927802  7.50000000
  10.43567477  5.75891703  7.50000000
   9.64730557  5.75891703  9.87249167
   6.67244958  5.75891703  8.97920226
   8.16306520  3.83927802  8.39328941
   6.59270205  3.83927802 11.07315764
   4.39984000  3.83927802  9.87249167
   1.42498401  3.83927802  8.97920226
   2.91559963  5.75891703  8.39328941
   1.34523648  5.75891703 11.07315764
   0.57934003  5.75891731 13.46533303
   8.07692320  5.75891742 12.54787936
   9.57297171  3.84059873 11.97615758
   8.03023638  3.84389637 14.62736251
   5.81601765  3.84449570 13.46240938
   2.82721019  3.84087967 12.56328307
   4.32055534  5.75891736 11.97584537
   2.79391799  5.75891714 14.66881172
   2.05242236  5.75891665 17.07925918
   9.52011423  5.75891763 16.11783572
   0.54017689  3.84157351 15.55704790
   9.57590665  3.82953298 18.16987009
   7.30834879  3.82019371 17.03686315
   4.27767289  3.84186259 16.15254734
   5.78410720  5.75891709 15.57699374
   4.32103584  5.75891642 18.26590610
   3.61156251  5.75891501 20.65980329
   0.54123315  5.75891648 19.93758630
   2.02812153  3.84200381 19.19081000
   8.84490662  3.88042743 20.57796277
   5.81336551  3.82021324 19.92156188
   7.26378779  5.75891566 19.07653719



--------------------------------------------------------------------------------------------------------

--------------------------------------- Iteration      FINAL  ---------------------------------------


--------------------OUTCAR has been truncated-------------------------


--------------------OUTCAR has been truncated-------------------------


--------------------OUTCAR has been truncated-------------------------


--------------------OUTCAR has been truncated-------------------------


--------------------OUTCAR has been truncated-------------------------


--------------------OUTCAR has been truncated-------------------------


--------------------OUTCAR has been truncated-------------------------


--------------------OUTCAR has been truncated-------------------------


--------------------OUTCAR has been truncated-------------------------


--------------------OUTCAR has been truncated-------------------------


  FORCE on cell =-STRESS in cart. coord.  units (eV):
  Direction    XX          YY          ZZ          XY          YZ          ZX
  --------------------------------------------------------------------------------------
  Alpha Z  2345.56545  2345.56545  2345.56545
  Ewald  464868.97367458000.45220************    -0.01361    -0.00039 -1729.27083
  Hartree486106.44925481896.47406************    -0.00365     0.00054 -1192.52863
  E(xc)   -5178.13986 -5178.83303 -5177.90111    -0.00002    -0.00000    -0.22960
  Local  ************************959062.46308     0.01312    -0.00041  2933.81341
  n-local -3344.09279 -3316.26308 -3356.52120     0.00065     0.00002     1.85276
  augment  3158.57535  3154.82155  3148.93384     0.00017    -0.00002    -0.05925
  Kinetic 17075.50601 17127.92924 17211.41689     0.00027     0.00006   -21.77158
  Fock        0.00000     0.00000     0.00000     0.00000     0.00000     0.00000
  -------------------------------------------------------------------------------------
  Total    -131.57917   -97.31642   -82.34611    -0.00307    -0.00020    -8.19372
  in kB     -62.08193   -45.91602   -38.85269    -0.00145    -0.00010    -3.86597
  external pressure =      -48.95 kB  Pullay stress =        0.00 kB


 VOLUME and BASIS-vectors are now :
 -----------------------------------------------------------------------------
  energy-cutoff  :      600.00
  volume of cell :     3395.73
      direct lattice vectors                 reciprocal lattice vectors
    10.494931139  0.000000000  0.000000000     0.095284094 -0.000000000  0.000000000
     0.000000000 11.517834055  0.000000000     0.000000000  0.086821879  0.000000000
     0.000000000  0.000000000 28.091964603     0.000000000  0.000000000  0.035597368

  length of vectors
    10.494931139 11.517834055 28.091964603     0.095284094  0.086821879  0.035597368


 FORCES acting on ions:
    Electron-Ion                     Ewald-Force                    Non-Local-Force
 -----------------------------------------------------------------------------------------------
   -.518E+02 -.682E+02 -.344E+03   0.568E+02 0.751E+02 0.345E+03   -.492E+01 -.671E+01 -.597E+00
   -.518E+02 0.682E+02 -.344E+03   0.568E+02 -.751E+02 0.345E+03   -.492E+01 0.671E+01 -.598E+00
   0.163E+02 -.878E-02 -.206E+04   -.594E+02 0.161E-01 0.206E+04   0.428E+02 -.192E-02 -.197E+01
   0.411E+01 -.759E-01 0.323E+04   0.562E+00 0.807E-01 -.323E+04   -.992E+00 -.916E-03 -.323E+01
   0.551E+01 -.181E+00 0.265E+04   -.702E+01 0.185E+00 -.266E+04   -.888E-01 -.108E-02 -.930E-01
   0.409E+01 0.619E-01 0.323E+04   0.555E+00 -.618E-01 -.323E+04   -.990E+00 0.245E-03 -.323E+01
   0.428E+01 0.188E-01 0.265E+04   -.583E+01 -.205E-01 -.266E+04   -.810E-01 0.440E-03 -.985E-01
   -.125E+01 0.875E-01 0.121E+04   0.106E+01 -.854E-01 -.121E+04   0.185E+00 -.178E-02 0.117E-02
   -.130E+01 -.179E+01 0.766E+03   0.134E+01 0.177E+01 -.766E+03   -.182E-01 0.175E-01 -.132E+00
   0.108E+00 -.356E+00 0.121E+04   -.284E+00 0.348E+00 -.121E+04   0.175E+00 0.647E-02 -.171E-01
   -.748E+01 0.137E+00 0.759E+03   0.750E+01 -.141E+00 -.758E+03   0.477E-02 0.301E-02 -.135E+00
   -.491E+01 -.193E+01 -.750E+03   0.459E+01 0.193E+01 0.750E+03   0.322E+00 0.370E-03 0.681E-01
   -.136E+02 -.490E+01 -.112E+04   0.138E+02 0.492E+01 0.112E+04   -.812E-01 -.150E-01 -.199E+00
   0.142E+01 -.248E+01 -.725E+03   -.170E+01 0.247E+01 0.725E+03   0.284E+00 0.430E-02 0.476E-01
   -.386E+01 -.157E+01 -.115E+04   0.400E+01 0.158E+01 0.115E+04   -.874E-01 -.113E-01 -.251E+00
   0.280E+02 -.119E+02 -.267E+04   -.290E+02 0.119E+02 0.267E+04   0.976E+00 0.164E-01 -.181E+00
   -.885E+02 -.225E+02 -.304E+04   0.885E+02 0.223E+02 0.304E+04   -.259E-01 0.131E+00 0.726E+00
   -.101E+02 -.458E+02 -.258E+04   0.924E+01 0.458E+02 0.258E+04   0.864E+00 -.678E-02 -.414E-01
   -.600E+02 -.325E+02 -.303E+04   0.600E+02 0.325E+02 0.303E+04   -.158E-01 0.113E-01 0.738E+00
   0.411E+01 0.761E-01 0.323E+04   0.562E+00 -.807E-01 -.323E+04   -.992E+00 0.951E-03 -.323E+01
   0.549E+01 0.444E-04 0.265E+04   -.703E+01 -.167E-04 -.266E+04   -.827E-01 -.152E-04 -.988E-01
   0.400E+01 0.104E-04 0.323E+04   0.661E+00 -.113E-04 -.323E+04   -.991E+00 0.824E-05 -.323E+01
   0.428E+01 -.187E-01 0.265E+04   -.583E+01 0.205E-01 -.266E+04   -.810E-01 -.416E-03 -.985E-01
   -.125E+01 -.874E-01 0.121E+04   0.106E+01 0.854E-01 -.121E+04   0.185E+00 0.178E-02 0.117E-02
   -.380E+01 0.154E-03 0.763E+03   0.382E+01 -.152E-03 -.763E+03   0.124E-01 0.326E-05 -.139E+00
   0.354E+00 0.161E-03 0.121E+04   -.533E+00 -.181E-03 -.121E+04   0.176E+00 -.135E-04 -.135E-01
   -.748E+01 -.137E+00 0.759E+03   0.750E+01 0.141E+00 -.758E+03   0.477E-02 -.299E-02 -.135E+00
   -.491E+01 0.193E+01 -.750E+03   0.459E+01 -.193E+01 0.750E+03   0.322E+00 -.360E-03 0.682E-01
   -.132E+02 0.305E-03 -.114E+04   0.133E+02 -.324E-03 0.114E+04   -.496E-01 0.111E-04 -.212E+00
   -.164E+01 0.309E-03 -.740E+03   0.132E+01 -.307E-03 0.740E+03   0.315E+00 0.816E-05 0.955E-01
   -.386E+01 0.158E+01 -.115E+04   0.400E+01 -.158E+01 0.115E+04   -.874E-01 0.113E-01 -.251E+00
   0.280E+02 0.119E+02 -.267E+04   -.290E+02 -.119E+02 0.267E+04   0.975E+00 -.164E-01 -.181E+00
   -.754E+02 0.459E-03 -.305E+04   0.755E+02 -.459E-03 0.305E+04   -.659E-01 -.132E-04 0.722E+00
   0.116E+02 0.734E-03 -.266E+04   -.125E+02 -.688E-03 0.266E+04   0.912E+00 0.206E-06 -.123E+00
   -.600E+02 0.325E+02 -.303E+04   0.600E+02 -.325E+02 0.303E+04   -.158E-01 -.114E-01 0.738E+00
   0.414E+01 0.142E-04 0.323E+04   0.526E+00 -.500E-06 -.323E+04   -.991E+00 0.234E-04 -.323E+01
   0.551E+01 0.181E+00 0.265E+04   -.702E+01 -.185E+00 -.266E+04   -.888E-01 0.111E-02 -.930E-01
   0.409E+01 -.619E-01 0.323E+04   0.555E+00 0.618E-01 -.323E+04   -.990E+00 -.222E-03 -.323E+01
   0.347E+01 0.247E-04 0.265E+04   -.497E+01 0.109E-04 -.266E+04   -.981E-01 0.290E-04 -.922E-01
   -.253E+00 -.904E-04 0.121E+04   0.787E-01 0.791E-04 -.121E+04   0.167E+00 0.159E-04 0.308E-01
   -.130E+01 0.179E+01 0.766E+03   0.134E+01 -.177E+01 -.766E+03   -.182E-01 -.175E-01 -.132E+00
   0.108E+00 0.356E+00 0.121E+04   -.284E+00 -.347E+00 -.121E+04   0.175E+00 -.645E-02 -.171E-01
   -.100E+02 0.214E-04 0.746E+03   0.101E+02 0.111E-04 -.746E+03   -.137E-02 0.286E-05 -.602E-01
   -.241E+01 -.205E-03 -.749E+03   0.215E+01 0.228E-03 0.749E+03   0.251E+00 -.202E-06 0.100E+00
   -.136E+02 0.490E+01 -.112E+04   0.138E+02 -.492E+01 0.112E+04   -.812E-01 0.150E-01 -.199E+00
   0.142E+01 0.248E+01 -.725E+03   -.170E+01 -.247E+01 0.725E+03   0.284E+00 -.430E-02 0.476E-01
   -.585E+01 -.323E-03 -.118E+04   0.595E+01 0.316E-03 0.118E+04   -.666E-01 0.701E-05 -.133E+00
   0.457E+02 -.101E-02 -.266E+04   -.465E+02 0.977E-03 0.266E+04   0.793E+00 0.225E-04 -.637E-01
   -.885E+02 0.225E+02 -.304E+04   0.885E+02 -.223E+02 0.304E+04   -.259E-01 -.131E+00 0.726E+00
   -.101E+02 0.458E+02 -.258E+04   0.924E+01 -.458E+02 0.258E+04   0.864E+00 0.678E-02 -.414E-01
   0.116E+02 -.442E-02 -.298E+04   -.112E+02 0.433E-02 0.298E+04   -.275E+00 0.634E-04 0.359E+00
   -.315E+02 -.422E-01 0.218E+04   0.361E+02 0.435E-01 -.220E+04   -.638E+01 -.156E-02 0.168E+02
   -.318E+02 -.437E-01 0.218E+04   0.364E+02 0.440E-01 -.220E+04   -.637E+01 -.367E-03 0.168E+02
   0.780E+02 0.534E-01 0.133E+04   -.821E+02 -.559E-01 -.132E+04   0.333E+01 0.222E-03 -.416E+01
   0.724E+02 -.501E-01 0.162E+04   -.787E+02 0.526E-01 -.161E+04   0.677E+01 -.495E-02 -.242E+01
   -.836E+02 -.948E-01 0.186E+04   0.900E+02 0.964E-01 -.186E+04   -.635E+01 -.614E-02 -.294E+00
   -.639E+02 -.751E+00 0.101E+04   0.687E+02 0.790E+00 -.102E+04   -.494E+01 -.369E-01 0.413E+01
   0.786E+02 0.393E-01 0.133E+04   -.826E+02 -.252E-01 -.132E+04   0.330E+01 -.166E-01 -.402E+01
   0.716E+02 0.277E-01 0.162E+04   -.779E+02 -.303E-01 -.161E+04   0.678E+01 0.717E-02 -.243E+01
   -.837E+02 0.885E-03 0.186E+04   0.902E+02 0.934E-03 -.186E+04   -.634E+01 -.598E-02 -.298E+00
   -.672E+02 0.122E+00 0.101E+04   0.721E+02 -.123E+00 -.102E+04   -.503E+01 -.262E-02 0.422E+01
   0.752E+02 -.647E+00 0.150E+03   -.809E+02 0.654E+00 -.145E+03   0.587E+01 -.709E-02 -.517E+01
   0.772E+02 0.100E-01 0.464E+03   -.832E+02 -.648E-01 -.461E+03   0.610E+01 0.541E-01 -.289E+01
   -.773E+02 -.396E+00 0.715E+03   0.831E+02 0.433E+00 -.717E+03   -.597E+01 -.387E-01 0.243E+01
   -.595E+02 -.962E+00 -.117E+03   0.635E+02 0.934E+00 0.112E+03   -.409E+01 0.298E-01 0.542E+01
   0.768E+02 0.684E+00 0.157E+03   -.823E+02 -.747E+00 -.153E+03   0.565E+01 0.652E-01 -.430E+01
   0.745E+02 0.293E+00 0.460E+03   -.803E+02 -.251E+00 -.457E+03   0.594E+01 -.404E-01 -.285E+01
   -.756E+02 0.627E-01 0.715E+03   0.814E+02 -.631E-01 -.718E+03   -.586E+01 0.107E-02 0.245E+01
   -.617E+02 0.125E+01 -.122E+03   0.660E+02 -.139E+01 0.116E+03   -.442E+01 0.138E+00 0.585E+01
   0.779E+02 -.209E+01 -.104E+04   -.832E+02 0.205E+01 0.105E+04   0.542E+01 0.417E-01 -.766E+01
   0.745E+02 -.262E+01 -.685E+03   -.806E+02 0.250E+01 0.688E+03   0.618E+01 0.114E+00 -.297E+01
   -.787E+02 -.157E+01 -.441E+03   0.843E+02 0.166E+01 0.439E+03   -.580E+01 -.900E-01 0.256E+01
   -.612E+02 -.121E+02 -.122E+04   0.628E+02 0.125E+02 0.121E+04   -.162E+01 -.421E+00 0.979E+01
   0.769E+02 -.116E+02 -.100E+04   -.824E+02 0.120E+02 0.101E+04   0.567E+01 -.436E+00 -.603E+01
   0.774E+02 -.193E+01 -.698E+03   -.831E+02 0.204E+01 0.701E+03   0.584E+01 -.110E+00 -.317E+01
   -.736E+02 -.189E+01 -.437E+03   0.792E+02 0.187E+01 0.435E+03   -.568E+01 0.172E-01 0.253E+01
   -.391E+02 -.101E+02 -.123E+04   0.400E+02 0.103E+02 0.122E+04   -.931E+00 -.256E+00 0.964E+01
   0.523E+02 -.145E+02 -.220E+04   -.568E+02 0.144E+02 0.222E+04   0.455E+01 0.129E+00 -.209E+02
   0.592E+02 -.575E+01 -.193E+04   -.636E+02 0.564E+01 0.194E+04   0.455E+01 0.113E+00 -.744E+01
   -.481E+02 -.691E+01 -.159E+04   0.526E+02 0.678E+01 0.158E+04   -.457E+01 0.137E+00 0.279E+01
   0.786E+01 -.313E+02 -.217E+04   -.126E+02 0.311E+02 0.219E+04   0.484E+01 0.146E+00 -.193E+02
   0.770E+02 -.499E+02 -.187E+04   -.815E+02 0.498E+02 0.187E+04   0.457E+01 0.854E-01 -.646E+01
   -.638E+02 -.136E+02 -.157E+04   0.688E+02 0.132E+02 0.157E+04   -.508E+01 0.371E+00 0.295E+01
   -.316E+02 0.275E-04 0.218E+04   0.362E+02 -.395E-05 -.220E+04   -.637E+01 -.239E-04 0.168E+02
   -.318E+02 0.436E-01 0.218E+04   0.364E+02 -.440E-01 -.220E+04   -.637E+01 0.387E-03 0.168E+02
   0.780E+02 -.534E-01 0.133E+04   -.821E+02 0.559E-01 -.132E+04   0.333E+01 -.234E-03 -.416E+01
   0.724E+02 0.501E-01 0.162E+04   -.787E+02 -.525E-01 -.161E+04   0.677E+01 0.497E-02 -.242E+01
   -.835E+02 0.231E-04 0.186E+04   0.900E+02 -.133E-05 -.186E+04   -.635E+01 -.118E-04 -.299E+00
   -.641E+02 0.866E-04 0.101E+04   0.688E+02 -.758E-04 -.102E+04   -.492E+01 -.330E-05 0.419E+01
   0.782E+02 0.896E-04 0.132E+04   -.823E+02 -.456E-04 -.132E+04   0.329E+01 -.341E-04 -.411E+01
   0.718E+02 -.262E-05 0.162E+04   -.781E+02 -.219E-05 -.161E+04   0.678E+01 -.205E-04 -.242E+01
   -.837E+02 -.852E-03 0.186E+04   0.902E+02 -.938E-03 -.186E+04   -.634E+01 0.594E-02 -.298E+00
   -.672E+02 -.122E+00 0.101E+04   0.721E+02 0.122E+00 -.102E+04   -.503E+01 0.261E-02 0.422E+01
   0.752E+02 0.647E+00 0.150E+03   -.809E+02 -.654E+00 -.145E+03   0.587E+01 0.707E-02 -.517E+01
   0.772E+02 -.102E-01 0.464E+03   -.832E+02 0.650E-01 -.461E+03   0.610E+01 -.541E-01 -.289E+01
   -.763E+02 -.508E-04 0.716E+03   0.820E+02 0.462E-04 -.718E+03   -.590E+01 0.439E-05 0.248E+01
   -.606E+02 0.152E-03 -.119E+03   0.648E+02 -.170E-03 0.114E+03   -.426E+01 0.197E-04 0.567E+01
   0.755E+02 0.155E-03 0.154E+03   -.810E+02 -.143E-03 -.149E+03   0.568E+01 -.339E-05 -.485E+01
   0.747E+02 0.736E-04 0.459E+03   -.805E+02 -.940E-04 -.456E+03   0.594E+01 -.332E-05 -.298E+01
   -.756E+02 -.630E-01 0.715E+03   0.814E+02 0.633E-01 -.718E+03   -.586E+01 -.108E-02 0.245E+01
   -.617E+02 -.125E+01 -.122E+03   0.660E+02 0.139E+01 0.116E+03   -.442E+01 -.138E+00 0.585E+01
   0.779E+02 0.209E+01 -.104E+04   -.832E+02 -.205E+01 0.105E+04   0.542E+01 -.417E-01 -.766E+01
   0.745E+02 0.262E+01 -.685E+03   -.806E+02 -.250E+01 0.688E+03   0.618E+01 -.114E+00 -.297E+01
   -.752E+02 -.193E-04 -.447E+03   0.806E+02 0.149E-04 0.445E+03   -.553E+01 0.139E-04 0.239E+01
   -.523E+02 0.267E-03 -.123E+04   0.536E+02 -.274E-03 0.122E+04   -.134E+01 -.881E-05 0.988E+01
   0.767E+02 0.131E-03 -.103E+04   -.822E+02 -.122E-03 0.104E+04   0.561E+01 0.145E-04 -.764E+01
   0.768E+02 0.117E-03 -.692E+03   -.826E+02 -.112E-03 0.695E+03   0.592E+01 0.136E-04 -.301E+01
   -.736E+02 0.189E+01 -.437E+03   0.792E+02 -.187E+01 0.435E+03   -.568E+01 -.172E-01 0.253E+01
   -.391E+02 0.101E+02 -.123E+04   0.400E+02 -.103E+02 0.122E+04   -.931E+00 0.256E+00 0.964E+01
   0.523E+02 0.145E+02 -.220E+04   -.568E+02 -.144E+02 0.222E+04   0.455E+01 -.129E+00 -.209E+02
   0.592E+02 0.575E+01 -.193E+04   -.636E+02 -.564E+01 0.194E+04   0.455E+01 -.113E+00 -.745E+01
   -.573E+02 0.418E-03 -.159E+04   0.625E+02 -.451E-03 0.159E+04   -.533E+01 0.656E-05 0.300E+01
   0.368E+02 0.354E-03 -.220E+04   -.414E+02 -.305E-03 0.222E+04   0.474E+01 -.497E-04 -.208E+02
   0.580E+02 0.111E-02 -.193E+04   -.620E+02 -.112E-02 0.194E+04   0.411E+01 -.366E-04 -.785E+01
   -.638E+02 0.136E+02 -.157E+04   0.688E+02 -.132E+02 0.157E+04   -.508E+01 -.371E+00 0.295E+01
   -.315E+02 0.422E-01 0.218E+04   0.361E+02 -.435E-01 -.220E+04   -.638E+01 0.155E-02 0.168E+02
   -.319E+02 -.279E-04 0.218E+04   0.364E+02 0.206E-05 -.220E+04   -.638E+01 0.633E-05 0.168E+02
   0.786E+02 -.396E-04 0.133E+04   -.828E+02 0.140E-04 -.132E+04   0.343E+01 0.267E-04 -.409E+01
   0.725E+02 -.116E-04 0.162E+04   -.788E+02 -.514E-05 -.161E+04   0.677E+01 0.551E-05 -.243E+01
   -.836E+02 0.947E-01 0.186E+04   0.900E+02 -.964E-01 -.186E+04   -.635E+01 0.615E-02 -.294E+00
   -.639E+02 0.751E+00 0.101E+04   0.687E+02 -.790E+00 -.102E+04   -.494E+01 0.368E-01 0.413E+01
   0.786E+02 -.393E-01 0.133E+04   -.826E+02 0.253E-01 -.132E+04   0.330E+01 0.166E-01 -.402E+01
   0.716E+02 -.277E-01 0.162E+04   -.779E+02 0.303E-01 -.161E+04   0.678E+01 -.714E-02 -.243E+01
   -.837E+02 -.139E-04 0.186E+04   0.902E+02 0.441E-05 -.186E+04   -.633E+01 -.356E-05 -.308E+00
   -.729E+02 -.234E-04 0.101E+04   0.785E+02 0.157E-04 -.102E+04   -.567E+01 -.161E-04 0.402E+01
   0.784E+02 -.786E-04 0.151E+03   -.846E+02 0.954E-04 -.146E+03   0.643E+01 -.290E-04 -.510E+01
   0.746E+02 0.184E-03 0.468E+03   -.802E+02 -.199E-03 -.465E+03   0.578E+01 -.158E-05 -.270E+01
   -.773E+02 0.396E+00 0.715E+03   0.831E+02 -.433E+00 -.717E+03   -.597E+01 0.387E-01 0.243E+01
   -.595E+02 0.962E+00 -.117E+03   0.635E+02 -.934E+00 0.112E+03   -.409E+01 -.299E-01 0.542E+01
   0.768E+02 -.684E+00 0.157E+03   -.823E+02 0.747E+00 -.153E+03   0.565E+01 -.652E-01 -.430E+01
   0.745E+02 -.293E+00 0.460E+03   -.803E+02 0.251E+00 -.457E+03   0.594E+01 0.404E-01 -.285E+01
   -.734E+02 0.117E-03 0.715E+03   0.789E+02 -.121E-03 -.717E+03   -.568E+01 0.360E-05 0.246E+01
   -.728E+02 -.635E-04 -.131E+03   0.784E+02 0.885E-04 0.126E+03   -.575E+01 -.237E-04 0.521E+01
   0.833E+02 -.139E-03 -.104E+04   -.893E+02 0.143E-03 0.104E+04   0.623E+01 -.406E-05 -.764E+01
   0.678E+02 0.233E-03 -.683E+03   -.732E+02 -.237E-03 0.686E+03   0.555E+01 -.104E-05 -.294E+01
   -.787E+02 0.157E+01 -.441E+03   0.843E+02 -.166E+01 0.439E+03   -.580E+01 0.899E-01 0.256E+01
   -.613E+02 0.121E+02 -.122E+04   0.628E+02 -.125E+02 0.121E+04   -.162E+01 0.421E+00 0.979E+01
   0.769E+02 0.116E+02 -.100E+04   -.824E+02 -.120E+02 0.101E+04   0.567E+01 0.436E+00 -.603E+01
   0.774E+02 0.193E+01 -.698E+03   -.831E+02 -.204E+01 0.701E+03   0.584E+01 0.110E+00 -.317E+01
   -.695E+02 -.904E-04 -.445E+03   0.748E+02 0.815E-04 0.443E+03   -.549E+01 -.812E-05 0.212E+01
   -.473E+02 -.623E-03 -.124E+04   0.511E+02 0.612E-03 0.123E+04   -.392E+01 0.159E-04 0.779E+01
   0.104E+03 -.978E-03 -.218E+04   -.109E+03 0.918E-03 0.220E+04   0.534E+01 0.799E-04 -.210E+02
   0.458E+02 -.647E-03 -.192E+04   -.494E+02 0.651E-03 0.192E+04   0.366E+01 0.323E-04 -.708E+01
   -.481E+02 0.691E+01 -.159E+04   0.526E+02 -.678E+01 0.158E+04   -.457E+01 -.137E+00 0.279E+01
   0.786E+01 0.313E+02 -.217E+04   -.126E+02 -.311E+02 0.219E+04   0.484E+01 -.146E+00 -.193E+02
   0.770E+02 0.499E+02 -.187E+04   -.815E+02 -.498E+02 0.187E+04   0.457E+01 -.854E-01 -.646E+01
   -.611E+02 -.185E-02 -.148E+04   0.645E+02 0.188E-02 0.148E+04   -.355E+01 0.269E-04 0.422E+01
 -----------------------------------------------------------------------------------------------
   -.482E+02 -.353E-03 0.701E+02   0.114E-12 -.291E-12 -.180E-10   0.482E+02 0.984E-03 -.702E+02


 POSITION                                       TOTAL-FORCE (eV/Angst)
 -----------------------------------------------------------------------------------
      7.03299      6.53163     21.97194         0.056592      0.136285     -0.051663
      7.03296      4.98624     21.97192         0.060577     -0.141563     -0.051233
      6.43850      5.75886     21.90447        -0.218091      0.005361     -0.238692
      8.55406      9.59820      8.23960         3.700500      0.003837      2.088493
      6.28145      7.67856      9.13289        -1.605637      0.002830     -1.868047
      3.30660      7.67856      8.23960         3.677151      0.000307      2.071741
      1.03399      9.59820      9.13289        -1.634107     -0.001276     -1.875914
      9.95982      9.59919     11.85840        -0.006170      0.001700      0.006348
      7.66074      7.67462     12.66094        -0.002122     -0.001255     -0.006179
      4.70731      7.67687     11.85473        -0.006819     -0.003047      0.007208
      2.40379      9.59780     12.66967        -0.011789     -0.001135     -0.004646
      0.92290      9.60116     15.48021        -0.004192      0.001236      0.005276
      9.08970      7.67400     16.17963        -0.012685      0.001190     -0.002904
      6.15678      7.67676     15.45587        -0.008432      0.000722      0.006470
      3.82923      9.59888     16.20807        -0.016623      0.000608     -0.007648
      2.42257      9.59103     19.18546         0.045970     -0.001109      0.006594
     10.49154      7.66951     19.71242        -0.162805     -0.006452     -0.249562
      7.65232      7.67004     19.09543         0.020957     -0.020870      0.018903
      5.26995      9.60912     19.71125        -0.175882     -0.003501     -0.240522
      8.55406      1.91964      8.23960         3.700352     -0.003629      2.088454
      6.28145      0.00000      9.13289        -1.621455      0.000008     -1.872530
      3.30660      0.00000      8.23960         3.693294      0.000003      2.082191
      1.03399      1.91964      9.13289        -1.634155      0.001328     -1.876047
      9.95982      1.91865     11.85840        -0.006137     -0.001686      0.006328
      7.65543      0.00000     12.66248        -0.006194      0.000002     -0.005394
      4.70832      0.00000     11.85790        -0.006061     -0.000038      0.008506
      2.40379      1.92003     12.66967        -0.011804      0.001159     -0.004681
      0.92290      1.91667     15.48021        -0.004178     -0.001283      0.005338
      9.07508      0.00000     16.19262        -0.016614     -0.000011     -0.005406
      6.16150      0.00000     15.46721        -0.004159      0.000007      0.004874
      3.82923      1.91895     16.20807        -0.016594     -0.000639     -0.007608
      2.42257      1.92680     19.18546         0.045999      0.001127      0.006578
      0.01982      0.00000     19.71324        -0.170388     -0.000017     -0.239771
      7.68120     11.51783     19.16238         0.045909      0.000042      0.007438
      5.26995      1.90871     19.71125        -0.175904      0.003539     -0.240530
      8.55406      5.75892      8.23960         3.697340      0.000033      2.074876
      6.28145      3.83928      9.13289        -1.605664     -0.002786     -1.868096
      3.30660      3.83928      8.23960         3.677200     -0.000296      2.071643
      1.03399      5.75892      9.13289        -1.600097      0.000061     -1.832086
      9.97157      5.75892     11.85211        -0.003413      0.000000      0.002167
      7.66074      3.84321     12.66095        -0.002093      0.001226     -0.006165
      4.70731      3.84096     11.85473        -0.006816      0.003051      0.007175
      2.40735      5.75892     12.69173        -0.011197      0.000031     -0.002605
      0.94657      5.75892     15.48065         0.007308      0.000018      0.002440
      9.08970      3.84383     16.17963        -0.012709     -0.001158     -0.002939
      6.15678      3.84108     15.45587        -0.008465     -0.000727      0.006493
      3.84342      5.75892     16.27700        -0.026262     -0.000004     -0.010930
      2.44852      5.75892     19.19225         0.063441     -0.000014      0.006500
     10.49154      3.84832     19.71242        -0.162898      0.006446     -0.249521
      7.65232      3.84779     19.09543         0.020854      0.020866      0.018957
      5.27836      5.75892     19.86200        -0.075371     -0.000030     -0.098034
      5.18821      7.67856      7.50000        -1.781170     -0.000277      1.500257
     10.43567      9.59820      7.50000        -1.775992     -0.000030      1.496016
      9.64731      9.59820      9.87249        -0.766472     -0.002280     -0.210755
      6.67245      9.59820      8.97920         0.483644     -0.002535     -0.113427
      8.16307      7.67856      8.39329         0.123390     -0.004507     -0.951049
      6.59270      7.67856     11.07316        -0.185405      0.001725      0.460549
      4.39984      7.67856      9.87249        -0.774527     -0.002528     -0.192605
      1.42498      7.67856      8.97920         0.491226      0.004552     -0.118064
      2.91560      9.59820      8.39329         0.130468     -0.004162     -0.952807
      1.34524      9.59820     11.07316        -0.132979     -0.003012      0.481563
      0.57225      9.59964     13.46073         0.137574     -0.000154     -0.092084
      8.07654      9.59769     12.55234         0.137292     -0.000669     -0.060967
      9.57297      7.67724     11.97616        -0.137411     -0.001310      0.054816
      8.03024      7.67394     14.62736        -0.110590      0.001637      0.086273
      5.81602      7.67334     13.46241         0.133486      0.002254     -0.081451
      2.82721      7.67695     12.56328         0.137138      0.001240     -0.061800
      4.31911      9.59712     11.97484        -0.133370      0.000716      0.054938
      2.78368      9.59286     14.64482        -0.114601      0.001591      0.092667
      2.04800      9.59517     17.06271         0.137237      0.000377     -0.146761
      9.52013      9.59996     16.10976         0.139450     -0.000015     -0.061055
      0.54018      7.67626     15.55705        -0.133073     -0.002746      0.059339
      9.57591      7.68830     18.16987        -0.079653     -0.006820      0.132846
      7.30835      7.69764     17.03686         0.138733     -0.010881     -0.116440
      4.27767      7.67597     16.15255         0.135784      0.001207     -0.068027
      5.77135      9.59746     15.55089        -0.131504      0.001240      0.059530
      4.31354      9.61471     18.19250        -0.069236     -0.006088      0.132547
      3.64160      9.59341     20.60794         0.093407      0.003832     -0.527269
      0.54747      9.59268     19.94500         0.109224      0.001792     -0.201314
      2.02812      7.67583     19.19081        -0.108657      0.003197      0.056501
      8.84491      7.63741     20.57796         0.092881     -0.004144     -0.492804
      5.81337      7.69762     19.92157         0.118113     -0.014499     -0.157059
      7.27844      9.60445     19.14349        -0.116071      0.004035      0.057011
      5.18821      0.00000      7.50000        -1.778807     -0.000005      1.497725
     10.43567      1.91964      7.50000        -1.776009      0.000029      1.496020
      9.64731      1.91964      9.87249        -0.766500      0.002278     -0.210727
      6.67245      1.91964      8.97920         0.483681      0.002513     -0.113476
      8.16307      0.00000      8.39329         0.124642      0.000006     -0.952337
      6.59270      0.00000     11.07316        -0.173223      0.000003      0.444894
      4.39984      0.00000      9.87249        -0.772571      0.000006     -0.201030
      1.42498      0.00000      8.97920         0.488060     -0.000030     -0.113060
      2.91560      1.91964      8.39329         0.130482      0.004141     -0.952810
      1.34524      1.91964     11.07316        -0.132980      0.003004      0.481581
      0.57225      1.91820     13.46073         0.137551      0.000134     -0.092084
      8.07654      1.92014     12.55234         0.137288      0.000686     -0.060959
      9.57063     11.51783     11.97396        -0.134988     -0.000004      0.056511
      8.02812     11.51783     14.63229        -0.113981     -0.000003      0.088301
      5.81712     11.51783     13.45841         0.134044      0.000004     -0.090072
      2.82722      0.00000     12.56300         0.137585     -0.000028     -0.064347
      4.31911      1.92071     11.97484        -0.133382     -0.000714      0.054915
      2.78368      1.92498     14.64482        -0.114601     -0.001608      0.092682
      2.04800      1.92267     17.06271         0.137232     -0.000372     -0.146780
      9.52013      1.91787     16.10976         0.139433      0.000030     -0.061075
      0.54126      0.00000     15.56104        -0.129767      0.000005      0.054479
      9.57000     11.51783     18.18463        -0.076369     -0.000020      0.132967
      7.30049      0.00000     17.04345         0.138685      0.000019     -0.145105
      4.26818     11.51783     16.12643         0.138548      0.000015     -0.062387
      5.77135      1.92037     15.55089        -0.131502     -0.001232      0.059514
      4.31354      1.90312     18.19251        -0.069272      0.006060      0.132472
      3.64160      1.92443     20.60794         0.093364     -0.003831     -0.527307
      0.54747      1.92516     19.94500         0.109237     -0.001822     -0.201302
      2.02690      0.00000     19.18656        -0.120953     -0.000031      0.060529
      8.88251      0.00000     20.60020         0.097194     -0.000005     -0.527916
      5.81375      0.00000     19.95281         0.101603     -0.000051     -0.207726
      7.27844      1.91338     19.14350        -0.116075     -0.004078      0.056993
      5.18821      3.83928      7.50000        -1.781162      0.000263      1.500271
     10.43567      5.75892      7.50000        -1.787600     -0.000024      1.489986
      9.64731      5.75892      9.87249        -0.775241     -0.000003     -0.211059
      6.67245      5.75892      8.97920         0.484165     -0.000016     -0.113985
      8.16307      3.83928      8.39329         0.123398      0.004440     -0.951074
      6.59270      3.83928     11.07316        -0.185411     -0.001748      0.460527
      4.39984      3.83928      9.87249        -0.774559      0.002545     -0.192608
      1.42498      3.83928      8.97920         0.491224     -0.004571     -0.118072
      2.91560      5.75892      8.39329         0.131750     -0.000017     -0.955681
      1.34524      5.75892     11.07316        -0.118050     -0.000028      0.558141
      0.57934      5.75892     13.46533         0.142101     -0.000016     -0.090385
      8.07692      5.75892     12.54788         0.133885     -0.000021     -0.057467
      9.57297      3.84060     11.97616        -0.137441      0.001307      0.054808
      8.03024      3.84390     14.62736        -0.110600     -0.001620      0.086274
      5.81602      3.84450     13.46241         0.133503     -0.002269     -0.081453
      2.82721      3.84088     12.56328         0.137142     -0.001267     -0.061836
      4.32056      5.75892     11.97585        -0.129858     -0.000005      0.054430
      2.79392      5.75892     14.66881        -0.134008     -0.000003      0.090369
      2.05242      5.75892     17.07926         0.144247     -0.000004     -0.144304
      9.52011      5.75892     16.11784         0.133935     -0.000009     -0.061595
      0.54018      3.84157     15.55705        -0.133059      0.002740      0.059329
      9.57591      3.82953     18.16987        -0.079651      0.006845      0.132778
      7.30835      3.82019     17.03686         0.138736      0.010887     -0.116460
      4.27767      3.84186     16.15255         0.135805     -0.001213     -0.068002
      5.78411      5.75892     15.57699        -0.128079     -0.000021      0.050302
      4.32104      5.75892     18.26591        -0.113576      0.000001      0.101698
      3.61156      5.75892     20.65980         0.114473      0.000016     -0.511476
      0.54123      5.75892     19.93759         0.092340      0.000032     -0.193629
      2.02812      3.84200     19.19081        -0.108650     -0.003211      0.056511
      8.84491      3.88043     20.57796         0.092931      0.004132     -0.492883
      5.81337      3.82021     19.92156         0.118084      0.014467     -0.157145
      7.26379      5.75892     19.07654        -0.086225      0.000058      0.093858
 -----------------------------------------------------------------------------------
    total drift:                                0.007612      0.000631     -0.016316


--------------------------------------------------------------------------------------------------------



  FREE ENERGIE OF THE ION-ELECTRON SYSTEM (eV)
  ---------------------------------------------------
  free  energy   TOTEN  =     -1055.04787195 eV

  energy  without entropy=    -1055.04787195  energy(sigma->0) =    -1055.04787195



--------------------------------------------------------------------------------------------------------


    POTLOK:  cpu time      1.0781: real time      1.0785


--------------------------------------------------------------------------------------------------------


     LOOP+:  cpu time    364.3759: real time    364.6474
    4ORBIT:  cpu time      0.0000: real time      0.0000

 total amount of memory used by VASP MPI-rank0   119836. kBytes
=======================================================================

   base      :      30000. kBytes
   nonl-proj :      37168. kBytes
   fftplans  :       6416. kBytes
   grid      :      11384. kBytes
   one-center:        155. kBytes
   wavefun   :      34713. kBytes

  
  
 General timing and accounting informations for this job:
 ========================================================
  
                  Total CPU time used (sec):      418.131
                            User time (sec):      413.581
                          System time (sec):        4.550
                         Elapsed time (sec):      431.543
  
                   Maximum memory used (kb):      490540.
                   Average memory used (kb):          N/A
  
                          Minor page faults:       456023
                          Major page faults:          610
                 Voluntary context switches:        10834
