 vasp.6.3.0 20Jan22 (build Aug 21 2024 11:13:42) complex                         
 executed on        HPECrayEX_GCC date 2024.08.22  13:45:13
 running  384 mpi-ranks, with    1 threads/rank
 distrk:  each k-point on  384 cores,    1 groups
 distr:  one band on NCORE=   8 cores,   48 groups


--------------------------------------------------------------------------------------------------------


 INCAR:
   SYSTEM = MgO-rocksalt
   ISMEAR = 0
   SIGMA = 0.05
   EDIFF = 1E-6
   ALGO = ALL
   ISTART = 0
   IBRION = -1
   NSW = 0
   ISYM = 0
   DIPOL = 0.5 0.5 0.5
   IDIPOL = 4
   LDIPOL = .TRUE.
   GGA = RE
   IVDW = 13
   VDW_S8 = 1.7468
   VDW_A1 = 0.5363
   VDW_A2 = 3.0726
   ENCUT = 600
   PREC = Accurate
   LASPH = .TRUE.
   LREAL = .FALSE.
   ISPIN = 1
   NELM = 200
   NELMIN = 8
   NCORE = 8
   KPAR = 1
   LWAVE = .FALSE.
   LCHARG = .FALSE.

 POTCAR:    PAW_PBE C 08Apr2002                   
 POTCAR:    PAW_PBE H 15Jun2001                   
 POTCAR:    PAW_PBE C 08Apr2002                   
   SHA256 =  253f7b50bb8d59471dbedb8285d89021f4a42ed1a2c5d38a03a736e69125dd95 C/POTCAR              
   COPYR  = (c) Copyright 08Apr2002 Georg Kresse                                                    
   COPYR  = This file is part of the software VASP. Any use, copying, and all other rights are regul
   COPYR  = If you do not have a valid VASP license, you may not use, copy or distribute this file. 
   VRHFIN =C: s2p2                                                                                  
   LEXCH  = PE                                                                                      
   EATOM  =   147.1560 eV,   10.8157 Ry                                                             
                                                                                                    
   TITEL  = PAW_PBE C 08Apr2002                                                                     
   LULTRA =        F    use ultrasoft PP ?                                                          
   IUNSCR =        1    unscreen: 0-lin 1-nonlin 2-no                                               
   RPACOR =    1.200    partial core radius                                                         
   POMASS =   12.011; ZVAL   =    4.000    mass and valenz                                          
   RCORE  =    1.500    outmost cutoff radius                                                       
   RWIGS  =    1.630; RWIGS  =    0.863    wigner-seitz radius (au A)                               
   ENMAX  =  400.000; ENMIN  =  300.000 eV                                                          
   ICORE  =        2    local potential                                                             
   LCOR   =        T    correct aug charges                                                         
   LPAW   =        T    paw PP                                                                      
   EAUG   =  644.873                                                                                
   DEXC   =    0.000                                                                                
   RMAX   =    1.529    core radius for proj-oper                                                   
   RAUG   =    1.300    factor for augmentation sphere                                              
   RDEP   =    1.501    radius for radial grids                                                     
   RDEPT  =    1.300    core radius for aug-charge                                                  
                                                                                                    
   Atomic configuration                                                                             
    4 entries                                                                                       
     n  l   j            E        occ.                                                              
     1  0  0.50      -273.3789   2.0000                                                             
     2  0  0.50       -13.7508   2.0000                                                             
     2  1  0.50        -5.2854   2.0000                                                             
     3  2  1.50        -5.4423   0.0000                                                             
   Description                                                                                      
     l       E           TYP  RCUT    TYP  RCUT                                                     
     0    -13.7508458     23  1.200                                                                 
     0     -8.2022199     23  1.200                                                                 
     1     -5.2854383     23  1.500                                                                 
     1     34.0145650     23  1.500                                                                 
     2     -5.4423304      7  1.500                                                                 
  local pseudopotential read in
  partial core-charges read in
  partial kinetic energy density read in
  atomic valenz-charges read in
  non local Contribution for L=           0  read in
    real space projection operators read in
  non local Contribution for L=           0  read in
    real space projection operators read in
  non local Contribution for L=           1  read in
    real space projection operators read in
  non local Contribution for L=           1  read in
    real space projection operators read in
    PAW grid and wavefunctions read in

   number of l-projection  operators is LMAX  =           4
   number of lm-projection operators is LMMAX =           8

 POTCAR:    PAW_PBE H 15Jun2001                   
   SHA256 =  030f79b5d3ab3cf0e668861823c8fb652ff669f3e15e46930bd03bfd63a607b6 H/POTCAR              
   COPYR  = (c) Copyright 15Jun2001 Georg Kresse                                                    
   COPYR  = This file is part of the software VASP. Any use, copying, and all other rights are regul
   COPYR  = If you do not have a valid VASP license, you may not use, copy or distribute this file. 
   VRHFIN =H: ultrasoft test                                                                        
   LEXCH  = PE                                                                                      
   EATOM  =    12.4884 eV,    0.9179 Ry                                                             
                                                                                                    
   TITEL  = PAW_PBE H 15Jun2001                                                                     
   LULTRA =        F    use ultrasoft PP ?                                                          
   IUNSCR =        0    unscreen: 0-lin 1-nonlin 2-no                                               
   RPACOR =    0.000    partial core radius                                                         
   POMASS =    1.000; ZVAL   =    1.000    mass and valenz                                          
   RCORE  =    1.100    outmost cutoff radius                                                       
   RWIGS  =    0.700; RWIGS  =    0.370    wigner-seitz radius (au A)                               
   ENMAX  =  250.000; ENMIN  =  200.000 eV                                                          
   RCLOC  =    0.701    cutoff for local pot                                                        
   LCOR   =        T    correct aug charges                                                         
   LPAW   =        T    paw PP                                                                      
   EAUG   =  400.000                                                                                
   RMAX   =    1.123    core radius for proj-oper                                                   
   RAUG   =    1.200    factor for augmentation sphere                                              
   RDEP   =    1.112    radius for radial grids                                                     
   RDEPT  =    0.926    core radius for aug-charge                                                  
                                                                                                    
   Atomic configuration                                                                             
    2 entries                                                                                       
     n  l   j            E        occ.                                                              
     1  0  0.50        -6.4927   1.0000                                                             
     2  1  0.50        -3.4015   0.0000                                                             
   Description                                                                                      
     l       E           TYP  RCUT    TYP  RCUT                                                     
     0     -6.4927494     23  1.100                                                                 
     0      6.8029130     23  1.100                                                                 
     1     -4.0817478     23  1.100                                                                 
  local pseudopotential read in
  atomic valenz-charges read in
  non local Contribution for L=           0  read in
    real space projection operators read in
  non local Contribution for L=           0  read in
    real space projection operators read in
  non local Contribution for L=           1  read in
    real space projection operators read in
    PAW grid and wavefunctions read in

   number of l-projection  operators is LMAX  =           3
   number of lm-projection operators is LMMAX =           5

 -----------------------------------------------------------------------------
|                                                                             |
|               ----> ADVICE to this user running VASP <----                  |
|                                                                             |
|     You enforced a specific xc type in the INCAR file but a different       |
|     type was found in the POTCAR file.                                      |
|     I HOPE YOU KNOW WHAT YOU ARE DOING!                                     |
|                                                                             |
 -----------------------------------------------------------------------------

  PAW_PBE C 08Apr2002                   :
 energy of atom  1       EATOM= -147.1560
 kinetic energy error for atom=    0.0057 (will be added to EATOM!!)
  PAW_PBE H 15Jun2001                   :
 energy of atom  2       EATOM=  -12.4884
 kinetic energy error for atom=    0.0004 (will be added to EATOM!!)


 POSCAR:  C  H
  positions in direct lattice
  No initial velocities read in
 -----------------------------------------------------------------------------
|                                                                             |
|           W    W    AA    RRRRR   N    N  II  N    N   GGGG   !!!           |
|           W    W   A  A   R    R  NN   N  II  NN   N  G    G  !!!           |
|           W    W  A    A  R    R  N N  N  II  N N  N  G       !!!           |
|           W WW W  AAAAAA  RRRRR   N  N N  II  N  N N  G  GGG   !            |
|           WW  WW  A    A  R   R   N   NN  II  N   NN  G    G                |
|           W    W  A    A  R    R  N    N  II  N    N   GGGG   !!!           |
|                                                                             |
|     Specifying the vdW parameters                                           |
|     VDW_S8 = 1.747                                                          |
|     VDW_A1 = 0.536                                                          |
|     VDW_A2 = 3.073                                                          |
|     in the INCAR file will overwrite the defaults for revpbe. Please        |
|     make sure that is what you intended.                                    |
|                                                                             |
 -----------------------------------------------------------------------------

 exchange correlation table for  LEXCH =       40
   RHO(1)=    0.500       N(1)  =     2000
   RHO(2)=  100.500       N(2)  =     4000



--------------------------------------------------------------------------------------------------------


 ion  position               nearest neighbor table
   1  0.333  0.333  0.500-   2 1.10   4 1.10
   2  0.333  0.373  0.539-   1 1.10
   3  0.333  0.667  0.539-
   4  0.373  0.333  0.461-   1 1.10
   5  0.667  0.333  0.461-


IMPORTANT INFORMATION: All symmetrisations will be switched off!
NOSYMM: (Re-)initialisation of all symmetry stuff for point group C_1.


----------------------------------------------------------------------------------------

                                     Primitive cell                                     

  volume of cell :    8258.8929

  direct lattice vectors                    reciprocal lattice vectors
    22.536240327  0.000000000  0.000000000     0.044372974  0.000000000  0.000000000
     0.000000000 22.541428894  0.000000000     0.000000000  0.044362760  0.000000000
     0.000000000  0.000000000 16.257693388     0.000000000  0.000000000  0.061509341

  length of vectors
    22.536240327 22.541428894 16.257693388     0.044372974  0.044362760  0.061509341

  position of ions in fractional coordinates (direct lattice)
     0.332797308  0.332720700  0.499907062
     0.332797321  0.372609607  0.538679945
     0.332797303  0.667279300  0.538679913
     0.372925645  0.332720700  0.461320055
     0.667202697  0.332720717  0.461320070

  ion indices of the primitive-cell ions
   primitive index   ion index
                 1           1
                 2           2
                 3           3
                 4           4
                 5           5

----------------------------------------------------------------------------------------



 KPOINTS: pymatgen v2020.8.13 with grid density = 

Automatic generation of k-mesh.
 Grid dimensions read from file:
 generate k-points for:    1    1    1

 Generating k-lattice:

  Cartesian coordinates                     Fractional coordinates (reciprocal lattice)
     0.044372974  0.000000000  0.000000000     1.000000000  0.000000000  0.000000000
     0.000000000  0.044362760  0.000000000     0.000000000  1.000000000  0.000000000
     0.000000000  0.000000000  0.061509341     0.000000000  0.000000000  1.000000000

  Length of vectors
     0.044372974  0.044362760  0.061509341

  Shift w.r.t. Gamma in fractional coordinates (k-lattice)
     0.000000000  0.000000000  0.000000000

 
 Subroutine IBZKPT returns following result:
 ===========================================
 
 Found      1 irreducible k-points:
 
 Following reciprocal coordinates:
            Coordinates               Weight
  0.000000  0.000000  0.000000      1.000000
 
 Following cartesian coordinates:
            Coordinates               Weight
  0.000000  0.000000  0.000000      1.000000
 


--------------------------------------------------------------------------------------------------------




 Dimension of arrays:
   k-points           NKPTS =      1   k-points in BZ     NKDIM =      1   number of bands    NBANDS=     48
   number of dos      NEDOS =    301   number of ions     NIONS =      5
   non local maximal  LDIM  =      4   non local SUM 2l+1 LMDIM =      8
   total plane-waves  NPLWV = ******
   max r-space proj   IRMAX =      1   max aug-charges    IRDMAX=   6680
   dimension x,y,z NGX =   180 NGY =  180 NGZ =  140
   dimension x,y,z NGXF=   360 NGYF=  360 NGZF=  280
   support grid    NGXF=   360 NGYF=  360 NGZF=  280
   ions per type =               1   4
   NGX,Y,Z   is equivalent  to a cutoff of  13.28, 13.28, 14.32 a.u.
   NGXF,Y,Z  is equivalent  to a cutoff of  26.56, 26.55, 28.63 a.u.

 SYSTEM =  MgO-rocksalt                            
 POSCAR =   C  H                                   

--------------------------------------------------------------------------------------------------------


  energy-cutoff  :      600.00
  volume of cell :     8258.89
      direct lattice vectors                 reciprocal lattice vectors
    22.536240327  0.000000000  0.000000000     0.044372974  0.000000000  0.000000000
     0.000000000 22.541428894  0.000000000     0.000000000  0.044362760  0.000000000
     0.000000000  0.000000000 16.257693388     0.000000000  0.000000000  0.061509341

  length of vectors
    22.536240327 22.541428894 16.257693388     0.044372974  0.044362760  0.061509341



 k-points in units of 2pi/SCALE and weight: pymatgen v2020.8.13 with grid density = 
   0.00000000  0.00000000  0.00000000       1.000

 k-points in reciprocal lattice and weights: pymatgen v2020.8.13 with grid density = 
   0.00000000  0.00000000  0.00000000       1.000

 position of ions in fractional coordinates (direct lattice) 
   0.33279731  0.33272070  0.49990706
   0.33279732  0.37260961  0.53867995
   0.33279730  0.66727930  0.53867991
   0.37292565  0.33272070  0.46132005
   0.66720270  0.33272072  0.46132007

 position of ions in cartesian coordinates  (Angst):
   7.50000011  7.50000001  8.12733574
   7.50000040  8.39915296  8.75769339
   7.50000000 15.04142889  8.75769285
   8.40434197  7.50000000  7.50000000
  15.03624033  7.50000038  7.50000026



--------------------------------------------------------------------------------------------------------

--------------------------------------- Iteration      FINAL  ---------------------------------------


--------------------OUTCAR has been truncated-------------------------


--------------------OUTCAR has been truncated-------------------------


--------------------OUTCAR has been truncated-------------------------


--------------------OUTCAR has been truncated-------------------------


--------------------OUTCAR has been truncated-------------------------


--------------------OUTCAR has been truncated-------------------------


--------------------OUTCAR has been truncated-------------------------


--------------------OUTCAR has been truncated-------------------------


--------------------OUTCAR has been truncated-------------------------


--------------------OUTCAR has been truncated-------------------------



  FORCE on cell =-STRESS in cart. coord.  units (eV):
  Direction    XX          YY          ZZ          XY          YZ          ZX
  --------------------------------------------------------------------------------------
  Alpha Z     0.02933     0.02933     0.02933
  Ewald      24.00315    23.79529    29.15605    -2.67285    28.11053   -27.97994
  Hartree    75.17332    74.99692    75.08212     2.94371    11.85148   -11.78928
  E(xc)     -24.52862   -24.53371   -24.67666     0.13244     0.33542    -0.33349
  Local    -159.95063  -159.44727  -157.11812    -8.00263   -42.39280    42.14402
  n-local    -8.93730    -8.90905    -6.48391    -2.35615    -2.13638     2.09937
  augment     0.35113     0.34999     0.28402     0.06508     0.03861    -0.03806
  Kinetic    94.23097    94.14644    83.88483    10.13880     4.34315    -4.20789
  Fock        0.00000     0.00000     0.00000     0.00000     0.00000     0.00000
  vdW         0.00123     0.00122     0.00027     0.00157     0.00022    -0.00020
  -------------------------------------------------------------------------------------
  Total       0.37259     0.42915     0.15792     0.24997     0.15022    -0.10547
  in kB       0.07228     0.08325     0.03064     0.04849     0.02914    -0.02046
  external pressure =        0.06 kB  Pullay stress =        0.00 kB


 VOLUME and BASIS-vectors are now :
 -----------------------------------------------------------------------------
  energy-cutoff  :      600.00
  volume of cell :     8258.89
      direct lattice vectors                 reciprocal lattice vectors
    22.536240327  0.000000000  0.000000000     0.044372974  0.000000000  0.000000000
     0.000000000 22.541428894  0.000000000     0.000000000  0.044362760  0.000000000
     0.000000000  0.000000000 16.257693388     0.000000000  0.000000000  0.061509341

  length of vectors
    22.536240327 22.541428894 16.257693388     0.044372974  0.044362760  0.061509341


 FORCES acting on ions:
    Electron-Ion                     Ewald-Force                    Non-Local-Force
 -----------------------------------------------------------------------------------------------
   0.260E+02 0.261E+02 0.212E+00   -.399E+02 -.399E+02 -.319E+00   0.131E+02 0.131E+02 0.564E-01
   0.250E+01 -.359E+02 -.269E+02   -.246E+01 0.411E+02 0.305E+02   0.231E+00 -.468E+01 -.344E+01
   0.888E-01 -.135E+01 -.971E-01   -.891E-01 0.136E+01 0.974E-01   0.455E-03 -.602E-02 -.421E-03
   -.359E+02 0.249E+01 0.267E+02   0.411E+02 -.244E+01 -.302E+02   -.467E+01 0.230E+00 0.340E+01
   -.136E+01 0.887E-01 0.970E-01   0.136E+01 -.890E-01 -.973E-01   -.603E-02 0.453E-03 0.435E-03
 -----------------------------------------------------------------------------------------------
   -.870E+01 -.862E+01 -.112E-01   0.333E-14 -.146E-13 -.115E-14   0.870E+01 0.862E+01 0.112E-01


 POSITION                                       TOTAL-FORCE (eV/Angst)
 -----------------------------------------------------------------------------------
      7.50000      7.50000      8.12734        -0.741911     -0.805886     -0.050282
      7.50000      8.39915      8.75769         0.279797      0.529843      0.177050
      7.50000     15.04143      8.75769        -0.000261     -0.001879     -0.000100
      8.40434      7.50000      7.50000         0.464220      0.278222     -0.126760
     15.03624      7.50000      7.50000        -0.001844     -0.000299      0.000093
 -----------------------------------------------------------------------------------
    total drift:                                0.002049      0.002199     -0.000002


--------------------------------------------------------------------------------------------------------



  FREE ENERGIE OF THE ION-ELECTRON SYSTEM (eV)
  ---------------------------------------------------
  free  energy   TOTEN  =       -11.75052799 eV

  energy  without entropy=      -11.68829444  energy(sigma->0) =      -11.71941121



--------------------------------------------------------------------------------------------------------


    POTLOK:  cpu time      0.1842: real time      0.1842


--------------------------------------------------------------------------------------------------------


     LOOP+:  cpu time     53.8760: real time     54.0433
    4ORBIT:  cpu time      0.0000: real time      0.0000

 total amount of memory used by VASP MPI-rank0    88397. kBytes
=======================================================================

   base      :      30000. kBytes
   nonl-proj :       7168. kBytes
   fftplans  :      20647. kBytes
   grid      :      28923. kBytes
   one-center:          3. kBytes
   wavefun   :       1656. kBytes

  
  
 General timing and accounting informations for this job:
 ========================================================
  
                  Total CPU time used (sec):       75.627
                            User time (sec):       74.518
                          System time (sec):        1.109
                         Elapsed time (sec):       78.869
  
                   Maximum memory used (kb):      236028.
                   Average memory used (kb):          N/A
  
                          Minor page faults:        27891
                          Major page faults:         1152
                 Voluntary context switches:         8927
