 vasp.6.3.0 20Jan22 (build Apr  1 2022 16:44:48) complex                         
 executed on        HPECrayEX_GCC date 2022.11.13  00:28:05
 running  512 mpi-ranks, with    1 threads/rank
 distrk:  each k-point on  512 cores,    1 groups
 distr:  one band on NCORE=   8 cores,   64 groups


--------------------------------------------------------------------------------------------------------


 INCAR:
   SYSTEM = MgO-rocksalt
   ISMEAR = 0
   SIGMA = 0.05
   EDIFF = 1E-6
   ALGO = ALL
   ISTART = 0
   IBRION = -1
   NSW = 0
   ISYM = 0
   DIPOL = 0.5 0.5 0.5
   IDIPOL = 3
   LDIPOL = .TRUE.
   GGA = RE
   IVDW = 13
   VDW_S8 = 1.7468
   VDW_A1 = 0.5363
   VDW_A2 = 3.0726
   ENCUT = 600
   PREC = Accurate
   LASPH = .TRUE.
   LREAL = .FALSE.
   ISPIN = 1
   NELM = 200
   NELMIN = 8
   NCORE = 8
   KPAR = 1
   LWAVE = .FALSE.
   LCHARG = .FALSE.

 POTCAR:    PAW_PBE Mg_pv 13Apr2007               
 POTCAR:    PAW_PBE O 08Apr2002                   
 POTCAR:    PAW_PBE Mg_pv 13Apr2007               
   SHA256 =  f474ac0dd33840b9ae76c01d57fea79fdf77cdfbb07d5ade72c65f83c709b62b Mg_pv/POTCAR          
   COPYR  = (c) Copyright 13Apr2007 Georg Kresse                                                    
   COPYR  = This file is part of the software VASP. Any use, copying, and all other rights are regul
   COPYR  = If you do not have a valid VASP license, you may not use, copy or distribute this file. 
   VRHFIN =Mg: p6s2                                                                                 
   LEXCH  = PE                                                                                      
   EATOM  =  1056.7344 eV,   77.6678 Ry                                                             
                                                                                                    
   TITEL  = PAW_PBE Mg_pv 13Apr2007                                                                 
   LULTRA =        F    use ultrasoft PP ?                                                          
   IUNSCR =        1    unscreen: 0-lin 1-nonlin 2-no                                               
   RPACOR =    1.500    partial core radius                                                         
   POMASS =   24.305; ZVAL   =    8.000    mass and valenz                                          
   RCORE  =    2.000    outmost cutoff radius                                                       
   RWIGS  =    2.000; RWIGS  =    1.058    wigner-seitz radius (au A)                               
   ENMAX  =  403.929; ENMIN  =  302.947 eV                                                          
   RCLOC  =    1.506    cutoff for local pot                                                        
   LCOR   =        T    correct aug charges                                                         
   LPAW   =        T    paw PP                                                                      
   EAUG   =  758.780                                                                                
   DEXC   =    0.000                                                                                
   RMAX   =    2.045    core radius for proj-oper                                                   
   RAUG   =    1.300    factor for augmentation sphere                                              
   RDEP   =    2.025    radius for radial grids                                                     
   RDEPT  =    1.557    core radius for aug-charge                                                  
                                                                                                    
   Atomic configuration                                                                             
    5 entries                                                                                       
     n  l   j            E        occ.                                                              
     1  0  0.50     -1259.6230   2.0000                                                             
     2  0  0.50       -79.8442   2.0000                                                             
     2  1  1.50       -46.6121   6.0000                                                             
     3  0  0.50        -4.7055   2.0000                                                             
     3  2  1.50        -1.3606   0.0000                                                             
   Description                                                                                      
     l       E           TYP  RCUT    TYP  RCUT                                                     
     1    -46.6121073     23  1.600                                                                 
     1      2.7211652     23  1.600                                                                 
     0     -4.7054661     23  2.000                                                                 
     0     61.2262170     23  2.000                                                                 
     2     -1.3605826     23  2.000                                                                 
  local pseudopotential read in
  partial core-charges read in
  partial kinetic energy density read in
  atomic valenz-charges read in
  non local Contribution for L=           1  read in
    real space projection operators read in
  non local Contribution for L=           1  read in
    real space projection operators read in
  non local Contribution for L=           0  read in
    real space projection operators read in
  non local Contribution for L=           0  read in
    real space projection operators read in
  non local Contribution for L=           2  read in
    real space projection operators read in
    PAW grid and wavefunctions read in

   number of l-projection  operators is LMAX  =           5
   number of lm-projection operators is LMMAX =          13

 POTCAR:    PAW_PBE O 08Apr2002                   
   SHA256 =  818f92134a0a090dccd8ba1447fa70422a3b330e708bb4f08108d8ae51209ddf O/POTCAR              
   COPYR  = (c) Copyright 08Apr2002 Georg Kresse                                                    
   COPYR  = This file is part of the software VASP. Any use, copying, and all other rights are regul
   COPYR  = If you do not have a valid VASP license, you may not use, copy or distribute this file. 
   VRHFIN =O: s2p4                                                                                  
   LEXCH  = PE                                                                                      
   EATOM  =   432.3788 eV,   31.7789 Ry                                                             
                                                                                                    
   TITEL  = PAW_PBE O 08Apr2002                                                                     
   LULTRA =        F    use ultrasoft PP ?                                                          
   IUNSCR =        1    unscreen: 0-lin 1-nonlin 2-no                                               
   RPACOR =    1.200    partial core radius                                                         
   POMASS =   16.000; ZVAL   =    6.000    mass and valenz                                          
   RCORE  =    1.520    outmost cutoff radius                                                       
   RWIGS  =    1.550; RWIGS  =    0.820    wigner-seitz radius (au A)                               
   ENMAX  =  400.000; ENMIN  =  300.000 eV                                                          
   ICORE  =        2    local potential                                                             
   LCOR   =        T    correct aug charges                                                         
   LPAW   =        T    paw PP                                                                      
   EAUG   =  605.392                                                                                
   DEXC   =    0.000                                                                                
   RMAX   =    1.553    core radius for proj-oper                                                   
   RAUG   =    1.300    factor for augmentation sphere                                              
   RDEP   =    1.550    radius for radial grids                                                     
   RDEPT  =    1.329    core radius for aug-charge                                                  
                                                                                                    
   Atomic configuration                                                                             
    4 entries                                                                                       
     n  l   j            E        occ.                                                              
     1  0  0.50      -514.6923   2.0000                                                             
     2  0  0.50       -23.9615   2.0000                                                             
     2  1  0.50        -9.0305   4.0000                                                             
     3  2  1.50        -9.5241   0.0000                                                             
   Description                                                                                      
     l       E           TYP  RCUT    TYP  RCUT                                                     
     0    -23.9615318     23  1.200                                                                 
     0     -9.5240782     23  1.200                                                                 
     1     -9.0304911     23  1.520                                                                 
     1      8.1634956     23  1.520                                                                 
     2     -9.5240782      7  1.500                                                                 
  local pseudopotential read in
  partial core-charges read in
  partial kinetic energy density read in
  kinetic energy density of atom read in
  atomic valenz-charges read in
  non local Contribution for L=           0  read in
    real space projection operators read in
  non local Contribution for L=           0  read in
    real space projection operators read in
  non local Contribution for L=           1  read in
    real space projection operators read in
  non local Contribution for L=           1  read in
    real space projection operators read in
    PAW grid and wavefunctions read in

   number of l-projection  operators is LMAX  =           4
   number of lm-projection operators is LMMAX =           8

 -----------------------------------------------------------------------------
|                                                                             |
|               ----> ADVICE to this user running VASP <----                  |
|                                                                             |
|     You have a (more or less) 'large supercell' and for larger cells it     |
|     might be more efficient to use real-space projection operators.         |
|     Therefore, try LREAL= Auto in the INCAR file.                           |
|     Mind: For very accurate calculation, you might also keep the            |
|     reciprocal projection scheme (i.e. LREAL=.FALSE.).                      |
|                                                                             |
 -----------------------------------------------------------------------------

 -----------------------------------------------------------------------------
|                                                                             |
|               ----> ADVICE to this user running VASP <----                  |
|                                                                             |
|     You enforced a specific xc type in the INCAR file but a different       |
|     type was found in the POTCAR file.                                      |
|     I HOPE YOU KNOW WHAT YOU ARE DOING!                                     |
|                                                                             |
 -----------------------------------------------------------------------------

  PAW_PBE Mg_pv 13Apr2007               :
 energy of atom  1       EATOM=-1056.7344
 kinetic energy error for atom=    0.0221 (will be added to EATOM!!)
  PAW_PBE O 08Apr2002                   :
 energy of atom  2       EATOM= -432.3788
 kinetic energy error for atom=    0.0168 (will be added to EATOM!!)


 POSCAR: Mg  O
  positions in direct lattice
  No initial velocities read in
 -----------------------------------------------------------------------------
|                                                                             |
|           W    W    AA    RRRRR   N    N  II  N    N   GGGG   !!!           |
|           W    W   A  A   R    R  NN   N  II  NN   N  G    G  !!!           |
|           W    W  A    A  R    R  N N  N  II  N N  N  G       !!!           |
|           W WW W  AAAAAA  RRRRR   N  N N  II  N  N N  G  GGG   !            |
|           WW  WW  A    A  R   R   N   NN  II  N   NN  G    G                |
|           W    W  A    A  R    R  N    N  II  N    N   GGGG   !!!           |
|                                                                             |
|     Specifying the vdW parameters                                           |
|     VDW_S8 = 1.747                                                          |
|     VDW_A1 = 0.536                                                          |
|     VDW_A2 = 3.073                                                          |
|     in the INCAR file will overwrite the defaults for revpbe. Please        |
|     make sure that is what you intended.                                    |
|                                                                             |
 -----------------------------------------------------------------------------

 exchange correlation table for  LEXCH =       40
   RHO(1)=    0.500       N(1)  =     2000
   RHO(2)=  100.500       N(2)  =     4000



--------------------------------------------------------------------------------------------------------


 ion  position               nearest neighbor table
   1  0.000  0.750  0.350-  33 2.14  35 2.14  36 2.14  43 2.14  52 2.14
   2  0.250  0.000  0.350-  34 2.14  35 2.14  36 2.14  44 2.14  51 2.14
   3  0.000  0.000  0.450-  39 2.13  35 2.14  33 2.14  34 2.14  41 2.14  50 2.14
   4  0.250  0.750  0.450-  36 2.14  34 2.14  33 2.14  42 2.14  49 2.14  40 2.15
   5  1.000  0.750  0.549-  33 2.12  47 2.13  39 2.13  56 2.16  40 2.16  37 2.16
   6  0.252  0.001  0.551-  55 2.12  38 2.12  48 2.13  40 2.14  39 2.16  34 2.16
   7  0.000  0.003  0.649-  45 2.11  38 2.12  54 2.12  39 2.13  37 2.16
   8  0.236  0.750  0.648-  37 2.02  40 2.09  46 2.13  38 2.13
   9  0.000  0.250  0.350-  41 2.14  35 2.14  43 2.14  44 2.14  60 2.14
  10  0.250  0.500  0.350-  42 2.14  36 2.14  43 2.14  44 2.14  59 2.14
  11  0.000  0.500  0.450-  47 2.13  43 2.14  42 2.14  33 2.14  41 2.14  58 2.14
  12  0.250  0.250  0.450-  44 2.14  41 2.14  42 2.14  34 2.14  57 2.14  48 2.14
  13  0.000  0.250  0.550-  41 2.13  47 2.14  39 2.14  48 2.14  64 2.14  45 2.16
  14  0.252  0.499  0.551-  63 2.12  46 2.12  48 2.13  40 2.14  47 2.16  42 2.16
  15  0.000  0.497  0.649-  45 2.11  46 2.12  62 2.12  47 2.13  37 2.16
  16  0.247  0.250  0.650-  45 2.11  48 2.13  46 2.15  38 2.15  61 2.16
  17  0.500  0.750  0.350-  49 2.14  36 2.14  51 2.14  52 2.14  59 2.14
  18  0.750  0.000  0.350-  50 2.14  35 2.14  51 2.14  52 2.14  60 2.14
  19  0.500  0.000  0.450-  51 2.14  49 2.14  50 2.14  34 2.14  57 2.14  55 2.16
  20  0.750  0.750  0.450-  52 2.14  49 2.14  50 2.14  33 2.14  58 2.14  56 2.15
  21  0.500  0.750  0.548-  49 2.09  56 2.12  40 2.12  55 2.12  63 2.12
  22  0.748  0.001  0.551-  55 2.12  54 2.12  64 2.13  56 2.14  39 2.16  50 2.16
  23  0.500  0.012  0.660-  61 2.04  38 2.17  54 2.17  53 2.24
  24  0.764  0.750  0.648-  37 2.02  56 2.09  62 2.13  54 2.13
  25  0.500  0.250  0.350-  57 2.14  51 2.14  44 2.14  59 2.14  60 2.14
  26  0.750  0.500  0.350-  58 2.14  52 2.14  43 2.14  59 2.14  60 2.14
  27  0.500  0.500  0.450-  59 2.14  49 2.14  57 2.14  58 2.14  42 2.14  63 2.16
  28  0.750  0.250  0.450-  60 2.14  50 2.14  57 2.14  58 2.14  41 2.14  64 2.14
  29  0.500  0.250  0.551-  48 2.13  64 2.13  55 2.16  63 2.16  61 2.17  57 2.17
  30  0.748  0.499  0.551-  63 2.12  62 2.12  64 2.13  56 2.14  47 2.16  58 2.16
  31  0.500  0.488  0.660-  61 2.04  46 2.17  62 2.17  53 2.24
  32  0.753  0.250  0.650-  45 2.11  64 2.13  62 2.15  54 2.15  61 2.16
  33  0.000  0.750  0.450-   5 2.12   1 2.14   4 2.14   3 2.14  11 2.14  20 2.14
  34  0.250  0.000  0.450-   2 2.14   3 2.14   4 2.14  12 2.14  19 2.14   6 2.16
  35  0.000  0.000  0.350-   3 2.14   2 2.14   1 2.14   9 2.14  18 2.14
  36  0.250  0.750  0.350-   4 2.14   2 2.14   1 2.14  10 2.14  17 2.14
  37  0.000  0.750  0.650-  24 2.02   8 2.02   5 2.16   7 2.16  15 2.16
  38  0.248  0.999  0.650-   7 2.12   6 2.12   8 2.13  16 2.15  23 2.17
  39  0.000  0.999  0.550-   3 2.13   5 2.13   7 2.13  13 2.14   6 2.16  22 2.16
  40  0.252  0.750  0.551-   8 2.09  21 2.12   6 2.14  14 2.14   4 2.15   5 2.16
  41  0.000  0.250  0.450-  13 2.13   9 2.14  11 2.14  12 2.14   3 2.14  28 2.14
  42  0.250  0.500  0.450-  10 2.14   4 2.14  11 2.14  12 2.14  27 2.14  14 2.16
  43  0.000  0.500  0.350-  11 2.14   9 2.14  10 2.14   1 2.14  26 2.14
  44  0.250  0.250  0.350-  12 2.14   9 2.14  10 2.14   2 2.14  25 2.14
  45  0.000  0.250  0.651-  16 2.11  32 2.11   7 2.11  15 2.11  13 2.16
  46  0.248  0.501  0.650-  15 2.12  14 2.12   8 2.13  16 2.15  31 2.17
  47  0.000  0.501  0.550-  11 2.13   5 2.13  15 2.13  13 2.14  14 2.16  30 2.16
  48  0.251  0.250  0.550-  16 2.13   6 2.13  14 2.13  29 2.13  13 2.14  12 2.14
  49  0.500  0.750  0.450-  21 2.09  17 2.14  19 2.14  20 2.14   4 2.14  27 2.14
  50  0.750  0.000  0.450-  18 2.14   3 2.14  19 2.14  20 2.14  28 2.14  22 2.16
  51  0.500  0.000  0.350-  19 2.14  17 2.14  18 2.14   2 2.14  25 2.14
  52  0.750  0.750  0.350-  20 2.14  17 2.14  18 2.14   1 2.14  26 2.14
  53  0.500  0.750  0.656-  23 2.24  31 2.24
  54  0.752  0.999  0.650-   7 2.12  22 2.12  24 2.13  32 2.15  23 2.17
  55  0.500  0.998  0.551-   6 2.12  22 2.12  21 2.12  29 2.16  19 2.16
  56  0.748  0.750  0.551-  24 2.09  21 2.12  22 2.14  30 2.14  20 2.15   5 2.16
  57  0.500  0.250  0.450-  25 2.14  19 2.14  12 2.14  27 2.14  28 2.14  29 2.17
  58  0.750  0.500  0.450-  26 2.14  20 2.14  11 2.14  27 2.14  28 2.14  30 2.16
  59  0.500  0.500  0.350-  27 2.14  17 2.14  25 2.14  26 2.14  10 2.14
  60  0.750  0.250  0.350-  28 2.14  18 2.14  25 2.14  26 2.14   9 2.14
  61  0.500  0.250  0.653-  23 2.04  31 2.04  16 2.16  32 2.16  29 2.17
  62  0.752  0.501  0.650-  15 2.12  30 2.12  24 2.13  32 2.15  31 2.17
  63  0.500  0.502  0.551-  14 2.12  30 2.12  21 2.12  29 2.16  27 2.16
  64  0.749  0.250  0.550-  32 2.13  22 2.13  30 2.13  29 2.13  13 2.14  28 2.14


IMPORTANT INFORMATION: All symmetrisations will be switched off!
NOSYMM: (Re-)initialisation of all symmetry stuff for point group C_1.


----------------------------------------------------------------------------------------

                                     Primitive cell                                     

  volume of cell :    1563.6717

  direct lattice vectors                    reciprocal lattice vectors
     8.546113626  0.000000000  0.000000000     0.117012252  0.000000000  0.000000000
     0.000000000  8.546113626  0.000000000     0.000000000  0.117012252  0.000000000
     0.000000000  0.000000000 21.409585219     0.000000000  0.000000000  0.046708051

  length of vectors
     8.546113626  8.546113626 21.409585219     0.117012252  0.117012252  0.046708051

  position of ions in fractional coordinates (direct lattice)
     0.000000000  0.750000000  0.350310383
     0.250000000  0.000000000  0.350310383
     0.000000000  0.000000000  0.450103461
     0.250000000  0.750000000  0.450103461
     0.999999996  0.749999995  0.548934327
     0.252435121  0.000799322  0.551117351
     0.000000018  0.002694637  0.649174680
     0.236130573  0.749999923  0.647909678
     0.000000000  0.250000000  0.350310383
     0.250000000  0.500000000  0.350310383
     0.000000000  0.500000000  0.450103461
     0.250000000  0.250000000  0.450103461
     0.000000006  0.250000048  0.549757535
     0.252435106  0.499200687  0.551117401
     0.000000013  0.497305443  0.649174743
     0.247095179  0.250000020  0.649618847
     0.500000000  0.750000000  0.350310383
     0.750000000  0.000000000  0.350310383
     0.500000000  0.000000000  0.450103461
     0.750000000  0.750000000  0.450103461
     0.500000006  0.750000003  0.547825157
     0.747564865  0.000799317  0.551117381
     0.499999993  0.011658846  0.659893261
     0.763869454  0.749999933  0.647909717
     0.500000000  0.250000000  0.350310383
     0.750000000  0.500000000  0.350310383
     0.500000000  0.500000000  0.450103461
     0.750000000  0.250000000  0.450103461
     0.499999993  0.249999915  0.551456911
     0.747564900  0.499200696  0.551117424
     0.499999986  0.488341060  0.659893135
     0.752904818  0.250000023  0.649618834
     0.000000000  0.750000000  0.450103461
     0.250000000  0.000000000  0.450103461
     0.000000000  0.000000000  0.350310383
     0.250000000  0.750000000  0.350310383
     0.000000011  0.750000041  0.649751932
     0.247664923  0.998716189  0.650325631
     0.000000011  0.999496689  0.549535961
     0.252444442  0.750000066  0.550535273
     0.000000000  0.250000000  0.450103461
     0.250000000  0.500000000  0.450103461
     0.000000000  0.500000000  0.350310383
     0.250000000  0.250000000  0.350310383
     0.000000006  0.250000036  0.650512231
     0.247664723  0.501283682  0.650325546
     0.000000003  0.500503339  0.549535961
     0.250733516  0.249999975  0.550229632
     0.500000000  0.750000000  0.450103461
     0.750000000  0.000000000  0.450103461
     0.500000000  0.000000000  0.350310383
     0.750000000  0.750000000  0.350310383
     0.499999975  0.750000428  0.656241119
     0.752335083  0.998716161  0.650325629
     0.499999993  0.997697958  0.551167804
     0.747555556  0.750000068  0.550535284
     0.500000000  0.250000000  0.450103461
     0.750000000  0.500000000  0.450103461
     0.500000000  0.500000000  0.350310383
     0.750000000  0.250000000  0.350310383
     0.499999998  0.249999847  0.652708309
     0.752335277  0.501283712  0.650325548
     0.499999993  0.502301880  0.551167779
     0.749266477  0.249999978  0.550229652

  ion indices of the primitive-cell ions
   primitive index   ion index
                 1           1
                 2           2
                 3           3
                 4           4
                 5           5
                 6           6
                 7           7
                 8           8
                 9           9
                10          10
                11          11
                12          12
                13          13
                14          14
                15          15
                16          16
                17          17
                18          18
                19          19
                20          20
                21          21
                22          22
                23          23
                24          24
                25          25
                26          26
                27          27
                28          28
                29          29
                30          30
                31          31
                32          32
                33          33
                34          34
                35          35
                36          36
                37          37
                38          38
                39          39
                40          40
                41          41
                42          42
                43          43
                44          44
                45          45
                46          46
                47          47
                48          48
                49          49
                50          50
                51          51
                52          52
                53          53
                54          54
                55          55
                56          56
                57          57
                58          58
                59          59
                60          60
                61          61
                62          62
                63          63
                64          64

----------------------------------------------------------------------------------------



 KPOINTS: pymatgen v2020.8.13 with grid density = 

Automatic generation of k-mesh.
 Grid dimensions read from file:
 generate k-points for:    2    2    1

 Generating k-lattice:

  Cartesian coordinates                     Fractional coordinates (reciprocal lattice)
     0.058506126  0.000000000  0.000000000     0.500000000  0.000000000  0.000000000
     0.000000000  0.058506126  0.000000000     0.000000000  0.500000000  0.000000000
     0.000000000  0.000000000  0.046708051     0.000000000  0.000000000  1.000000000

  Length of vectors
     0.058506126  0.058506126  0.046708051

  Shift w.r.t. Gamma in fractional coordinates (k-lattice)
     0.000000000  0.000000000  0.000000000

 
 Subroutine IBZKPT returns following result:
 ===========================================
 
 Found      4 irreducible k-points:
 
 Following reciprocal coordinates:
            Coordinates               Weight
  0.000000  0.000000  0.000000      1.000000
  0.500000  0.000000  0.000000      1.000000
  0.000000  0.500000  0.000000      1.000000
  0.500000  0.500000  0.000000      1.000000
 
 Following cartesian coordinates:
            Coordinates               Weight
  0.000000  0.000000  0.000000      1.000000
  0.058506  0.000000  0.000000      1.000000
  0.000000  0.058506  0.000000      1.000000
  0.058506  0.058506  0.000000      1.000000
 


--------------------------------------------------------------------------------------------------------




 Dimension of arrays:
   k-points           NKPTS =      4   k-points in BZ     NKDIM =      4   number of bands    NBANDS=    320
   number of dos      NEDOS =    301   number of ions     NIONS =     64
   non local maximal  LDIM  =      5   non local SUM 2l+1 LMDIM =     13
   total plane-waves  NPLWV = 882000
   max r-space proj   IRMAX =      1   max aug-charges    IRDMAX=  11315
   dimension x,y,z NGX =    70 NGY =   70 NGZ =  180
   dimension x,y,z NGXF=   140 NGYF=  140 NGZF=  360
   support grid    NGXF=   140 NGYF=  140 NGZF=  360
   ions per type =              32  32
   NGX,Y,Z   is equivalent  to a cutoff of  13.62, 13.62, 13.98 a.u.
   NGXF,Y,Z  is equivalent  to a cutoff of  27.23, 27.23, 27.95 a.u.

 SYSTEM =  MgO-rocksalt                            
 POSCAR =  Mg  O                                   

--------------------------------------------------------------------------------------------------------


  energy-cutoff  :      600.00
  volume of cell :     1563.67
      direct lattice vectors                 reciprocal lattice vectors
     8.546113626  0.000000000  0.000000000     0.117012252  0.000000000  0.000000000
     0.000000000  8.546113626  0.000000000     0.000000000  0.117012252  0.000000000
     0.000000000  0.000000000 21.409585219     0.000000000  0.000000000  0.046708051

  length of vectors
     8.546113626  8.546113626 21.409585219     0.117012252  0.117012252  0.046708051



 k-points in units of 2pi/SCALE and weight: pymatgen v2020.8.13 with grid density = 
   0.00000000  0.00000000  0.00000000       0.250
   0.05850613  0.00000000  0.00000000       0.250
   0.00000000  0.05850613  0.00000000       0.250
   0.05850613  0.05850613  0.00000000       0.250

 k-points in reciprocal lattice and weights: pymatgen v2020.8.13 with grid density = 
   0.00000000  0.00000000  0.00000000       0.250
   0.50000000  0.00000000  0.00000000       0.250
   0.00000000  0.50000000  0.00000000       0.250
   0.50000000  0.50000000  0.00000000       0.250

 position of ions in fractional coordinates (direct lattice) 
   0.00000000  0.75000000  0.35031038
   0.25000000  0.00000000  0.35031038
   0.00000000  0.00000000  0.45010346
   0.25000000  0.75000000  0.45010346
   1.00000000  0.75000000  0.54893433
   0.25243512  0.00079932  0.55111735
   0.00000002  0.00269464  0.64917468
   0.23613057  0.74999992  0.64790968
   0.00000000  0.25000000  0.35031038
   0.25000000  0.50000000  0.35031038
   0.00000000  0.50000000  0.45010346
   0.25000000  0.25000000  0.45010346
   0.00000001  0.25000005  0.54975754
   0.25243511  0.49920069  0.55111740
   0.00000001  0.49730544  0.64917474
   0.24709518  0.25000002  0.64961885
   0.50000000  0.75000000  0.35031038
   0.75000000  0.00000000  0.35031038
   0.50000000  0.00000000  0.45010346
   0.75000000  0.75000000  0.45010346
   0.50000001  0.75000000  0.54782516
   0.74756487  0.00079932  0.55111738
   0.49999999  0.01165885  0.65989326
   0.76386945  0.74999993  0.64790972
   0.50000000  0.25000000  0.35031038
   0.75000000  0.50000000  0.35031038
   0.50000000  0.50000000  0.45010346
   0.75000000  0.25000000  0.45010346
   0.49999999  0.24999992  0.55145691
   0.74756490  0.49920070  0.55111742
   0.49999999  0.48834106  0.65989314
   0.75290482  0.25000002  0.64961883
   0.00000000  0.75000000  0.45010346
   0.25000000  0.00000000  0.45010346
   0.00000000  0.00000000  0.35031038
   0.25000000  0.75000000  0.35031038
   0.00000001  0.75000004  0.64975193
   0.24766492  0.99871619  0.65032563
   0.00000001  0.99949669  0.54953596
   0.25244444  0.75000007  0.55053527
   0.00000000  0.25000000  0.45010346
   0.25000000  0.50000000  0.45010346
   0.00000000  0.50000000  0.35031038
   0.25000000  0.25000000  0.35031038
   0.00000001  0.25000004  0.65051223
   0.24766472  0.50128368  0.65032555
   0.00000000  0.50050334  0.54953596
   0.25073352  0.24999997  0.55022963
   0.50000000  0.75000000  0.45010346
   0.75000000  0.00000000  0.45010346
   0.50000000  0.00000000  0.35031038
   0.75000000  0.75000000  0.35031038
   0.49999997  0.75000043  0.65624112
   0.75233508  0.99871616  0.65032563
   0.49999999  0.99769796  0.55116780
   0.74755556  0.75000007  0.55053528
   0.50000000  0.25000000  0.45010346
   0.75000000  0.50000000  0.45010346
   0.50000000  0.50000000  0.35031038
   0.75000000  0.25000000  0.35031038
   0.50000000  0.24999985  0.65270831
   0.75233528  0.50128371  0.65032555
   0.49999999  0.50230188  0.55116778
   0.74926648  0.24999998  0.55022965

 position of ions in cartesian coordinates  (Angst):
   0.00000000  6.40958522  7.50000000
   2.13652841  0.00000000  7.50000000
   0.00000000  0.00000000  9.63652841
   2.13652841  6.40958522  9.63652841
   8.54611359  6.40958518 11.75245626
   2.15733923  0.00683109 11.79919389
   0.00000015  0.02302867 13.89856063
   2.01799870  6.40958456 13.87147746
   0.00000000  2.13652841  7.50000000
   2.13652841  4.27305681  7.50000000
   0.00000000  4.27305681  9.63652841
   2.13652841  2.13652841  9.63652841
   0.00000005  2.13652881 11.77008080
   2.15733910  4.26622580 11.79919496
   0.00000011  4.25002882 13.89856197
   2.11170347  2.13652858 13.90807007
   4.27305681  6.40958522  7.50000000
   6.40958522  0.00000000  7.50000000
   4.27305681  0.00000000  9.63652841
   6.40958522  6.40958522  9.63652841
   4.27305686  6.40958525 11.72870938
   6.38877428  0.00683105 11.79919453
   4.27305675  0.09963782 14.12804101
   6.52811515  6.40958465 13.87147831
   4.27305681  2.13652841  7.50000000
   6.40958522  4.27305681  7.50000000
   4.27305681  4.27305681  9.63652841
   6.40958522  2.13652841  9.63652841
   4.27305675  2.13652768 11.80646373
   6.38877458  4.26622587 11.79919546
   4.27305669  4.17341819 14.12803831
   6.43441013  2.13652860 13.90806978
   0.00000000  6.40958522  9.63652841
   2.13652841  0.00000000  9.63652841
   0.00000000  0.00000000  7.50000000
   2.13652841  6.40958522  7.50000000
   0.00000009  6.40958557 13.91091937
   2.11657257  8.53514203 13.92320202
   0.00000010  8.54181227 11.76533698
   2.15741888  6.40958578 11.78673184
   0.00000000  2.13652841  9.63652841
   2.13652841  4.27305681  9.63652841
   0.00000000  4.27305681  7.50000000
   2.13652841  2.13652841  7.50000000
   0.00000005  2.13652871 13.92719705
   2.11657086  4.28402731 13.92320021
   0.00000002  4.27735840 11.76533698
   2.14279712  2.13652819 11.78018819
   4.27305681  6.40958522  9.63652841
   6.40958522  0.00000000  9.63652841
   4.27305681  0.00000000  7.50000000
   6.40958522  6.40958522  7.50000000
   4.27305660  6.40958888 14.04985017
   6.42954110  8.53514180 13.92320198
   4.27305676  8.52644012 11.80027407
   6.38869473  6.40958580 11.78673207
   4.27305681  2.13652841  9.63652841
   6.40958522  4.27305681  9.63652841
   4.27305681  4.27305681  7.50000000
   6.40958522  2.13652841  7.50000000
   4.27305680  2.13652710 13.97421416
   6.42954276  4.28402757 13.92320023
   4.27305675  4.29272895 11.80027353
   6.40331645  2.13652822 11.78018862



--------------------------------------------------------------------------------------------------------

--------------------------------------- Iteration      FINAL  ---------------------------------------


--------------------OUTCAR has been truncated-------------------------


--------------------OUTCAR has been truncated-------------------------


--------------------OUTCAR has been truncated-------------------------


--------------------OUTCAR has been truncated-------------------------


--------------------OUTCAR has been truncated-------------------------


--------------------OUTCAR has been truncated-------------------------


--------------------OUTCAR has been truncated-------------------------


--------------------OUTCAR has been truncated-------------------------


--------------------OUTCAR has been truncated-------------------------


--------------------OUTCAR has been truncated-------------------------



  FORCE on cell =-STRESS in cart. coord.  units (eV):
  Direction    XX          YY          ZZ          XY          YZ          ZX
  --------------------------------------------------------------------------------------
  Alpha Z   850.71337   850.71337   850.71337
  Ewald  155562.61022155583.33313************    -0.00001    -0.00009     0.00002
  Hartree165761.21193165776.30422************    -0.00001    -0.00008     0.00001
  E(xc)   -2460.77772 -2460.74927 -2468.93717    -0.00000    -0.00000     0.00000
  Local  ************************331221.03418     0.00002     0.00017    -0.00002
  n-local -2797.04256 -2796.93981 -2817.61633     0.00000    -0.00000     0.00000
  augment  1047.10264  1047.09078  1037.42985    -0.00000    -0.00000    -0.00000
  Kinetic  7288.02864  7287.24581  7329.47787    -0.00000     0.00000    -0.00001
  Fock        0.00000     0.00000     0.00000     0.00000     0.00000     0.00000
  vdW       -20.29318   -20.29972   -15.28588     0.00000     0.00000    -0.00000
  -------------------------------------------------------------------------------------
  Total     -46.12080   -46.71500   -16.23788     0.00000    -0.00000    -0.00000
  in kB     -47.25653   -47.86536   -16.63774     0.00000    -0.00000    -0.00000
  external pressure =      -37.25 kB  Pullay stress =        0.00 kB


 VOLUME and BASIS-vectors are now :
 -----------------------------------------------------------------------------
  energy-cutoff  :      600.00
  volume of cell :     1563.67
      direct lattice vectors                 reciprocal lattice vectors
     8.546113626  0.000000000  0.000000000     0.117012252  0.000000000  0.000000000
     0.000000000  8.546113626  0.000000000     0.000000000  0.117012252  0.000000000
     0.000000000  0.000000000 21.409585219     0.000000000  0.000000000  0.046708051

  length of vectors
     8.546113626  8.546113626 21.409585219     0.117012252  0.117012252  0.046708051


 FORCES acting on ions:
    Electron-Ion                     Ewald-Force                    Non-Local-Force
 -----------------------------------------------------------------------------------------------
   0.865E-05 0.784E-05 0.201E+04   -.964E-05 -.108E-04 -.200E+04   -.500E-06 0.376E-07 -.701E+01
   -.644E+00 -.273E+00 0.200E+04   0.660E+00 0.292E+00 -.200E+04   -.116E-01 -.137E-01 -.713E+01
   0.533E-04 -.690E+00 0.666E+03   -.580E-04 0.723E+00 -.666E+03   0.267E-05 -.223E-01 0.301E+00
   -.117E+01 0.921E-04 0.661E+03   0.117E+01 -.933E-04 -.662E+03   -.611E-02 0.496E-06 0.548E+00
   0.495E-04 -.309E-04 -.640E+03   -.507E-04 0.318E-04 0.639E+03   0.161E-05 0.773E-06 0.493E+00
   -.104E+02 0.331E+01 -.672E+03   0.115E+02 -.364E+01 0.672E+03   -.987E+00 0.172E+00 -.751E+00
   0.362E-04 0.289E+01 -.199E+04   -.302E-04 -.221E+01 0.198E+04   -.461E-05 -.730E+00 0.670E+01
   -.540E+02 0.181E-03 -.197E+04   0.545E+02 -.131E-03 0.196E+04   0.972E+00 -.348E-04 0.645E+01
   0.703E-05 -.971E-05 0.201E+04   -.111E-04 0.101E-04 -.200E+04   -.179E-05 0.331E-06 -.703E+01
   -.644E+00 0.273E+00 0.200E+04   0.660E+00 -.292E+00 -.200E+04   -.116E-01 0.137E-01 -.713E+01
   0.428E-04 0.690E+00 0.666E+03   -.444E-04 -.723E+00 -.666E+03   0.850E-06 0.223E-01 0.301E+00
   -.373E+01 -.693E-04 0.662E+03   0.394E+01 0.733E-04 -.662E+03   -.148E+00 -.155E-05 0.679E+00
   0.593E-04 0.960E-04 -.652E+03   -.578E-04 -.957E-04 0.652E+03   -.275E-05 -.380E-05 0.250E+00
   -.104E+02 -.331E+01 -.672E+03   0.115E+02 0.364E+01 0.672E+03   -.987E+00 -.172E+00 -.751E+00
   0.317E-04 -.289E+01 -.199E+04   -.284E-04 0.221E+01 0.198E+04   -.887E-06 0.730E+00 0.670E+01
   -.741E+01 0.132E-03 -.198E+04   0.585E+01 -.152E-03 0.198E+04   0.140E+01 0.403E-05 0.703E+01
   -.119E-04 0.130E-04 0.200E+04   0.958E-05 -.156E-04 -.200E+04   -.118E-05 0.119E-05 -.702E+01
   0.644E+00 -.273E+00 0.200E+04   -.660E+00 0.292E+00 -.200E+04   0.116E-01 -.137E-01 -.713E+01
   -.489E-04 -.328E+01 0.657E+03   0.510E-04 0.351E+01 -.657E+03   -.116E-05 -.158E+00 0.407E+00
   0.117E+01 0.857E-04 0.661E+03   -.117E+01 -.861E-04 -.662E+03   0.611E-02 -.220E-06 0.548E+00
   -.396E-04 0.501E-03 -.683E+03   0.427E-04 -.449E-03 0.684E+03   -.253E-05 -.456E-04 0.360E+00
   0.104E+02 0.331E+01 -.672E+03   -.115E+02 -.364E+01 0.672E+03   0.987E+00 0.172E+00 -.751E+00
   -.316E-04 0.454E+02 -.206E+04   0.245E-04 -.471E+02 0.205E+04   0.558E-06 0.108E+00 0.747E+01
   0.540E+02 0.210E-03 -.197E+04   -.545E+02 -.159E-03 0.196E+04   -.972E+00 -.348E-04 0.645E+01
   -.987E-05 -.105E-04 0.200E+04   0.110E-04 0.146E-04 -.200E+04   -.332E-05 0.690E-06 -.714E+01
   0.644E+00 0.273E+00 0.200E+04   -.660E+00 -.292E+00 -.200E+04   0.116E-01 0.137E-01 -.713E+01
   -.479E-04 0.328E+01 0.657E+03   0.482E-04 -.351E+01 -.657E+03   -.875E-06 0.158E+00 0.407E+00
   0.373E+01 -.646E-04 0.662E+03   -.394E+01 0.656E-04 -.662E+03   0.148E+00 -.540E-06 0.679E+00
   -.357E-04 -.992E-04 -.680E+03   0.362E-04 0.818E-04 0.679E+03   0.100E-05 0.138E-04 0.669E+00
   0.104E+02 -.331E+01 -.672E+03   -.115E+02 0.364E+01 0.672E+03   0.987E+00 -.172E+00 -.751E+00
   -.495E-04 -.454E+02 -.206E+04   0.442E-04 0.471E+02 0.205E+04   0.712E-05 -.108E+00 0.747E+01
   0.741E+01 0.131E-03 -.198E+04   -.585E+01 -.148E-03 0.198E+04   -.140E+01 0.511E-05 0.703E+01
   0.276E-04 0.203E-04 0.502E+03   -.277E-04 -.232E-04 -.502E+03   0.135E-05 0.925E-06 0.305E+00
   -.197E+01 -.413E+00 0.494E+03   0.194E+01 0.400E+00 -.494E+03   0.375E-01 0.143E-01 -.314E+00
   0.880E-05 -.124E+00 0.151E+04   -.837E-05 0.134E+00 -.151E+04   -.928E-06 -.148E-01 0.344E+01
   -.356E+00 0.116E-04 0.151E+04   0.364E+00 -.110E-04 -.151E+04   -.105E-01 -.138E-05 0.346E+01
   -.191E-04 -.142E-03 -.150E+04   0.219E-04 0.164E-03 0.150E+04   -.661E-06 -.321E-04 -.412E+01
   -.163E+02 0.747E+01 -.149E+04   0.175E+02 -.868E+01 0.150E+04   -.124E+01 0.167E+01 -.314E+01
   0.650E-04 -.540E+00 -.485E+03   -.675E-04 0.411E+00 0.485E+03   0.119E-05 0.203E+00 0.602E+00
   -.119E+02 0.142E-03 -.499E+03   0.126E+02 -.129E-03 0.499E+03   -.107E+01 -.206E-04 0.175E+00
   0.395E-04 -.100E-04 0.500E+03   -.383E-04 0.836E-05 -.500E+03   -.132E-05 0.190E-05 0.192E+00
   -.197E+01 0.413E+00 0.494E+03   0.194E+01 -.400E+00 -.494E+03   0.375E-01 -.143E-01 -.314E+00
   0.730E-05 0.124E+00 0.151E+04   -.756E-05 -.134E+00 -.151E+04   -.488E-06 0.148E-01 0.344E+01
   -.584E+00 -.123E-04 0.150E+04   0.611E+00 0.104E-04 -.151E+04   -.375E-01 -.162E-06 0.342E+01
   0.396E-04 0.143E-03 -.150E+04   -.386E-04 -.142E-03 0.151E+04   -.108E-05 -.359E-05 -.400E+01
   -.163E+02 -.747E+01 -.149E+04   0.175E+02 0.868E+01 0.150E+04   -.124E+01 -.167E+01 -.314E+01
   0.286E-04 0.540E+00 -.485E+03   -.281E-04 -.411E+00 0.485E+03   -.224E-06 -.203E+00 0.602E+00
   -.569E+01 -.333E-04 -.492E+03   0.559E+01 0.350E-04 0.491E+03   0.731E-01 0.718E-06 0.946E+00
   -.233E-04 0.718E-04 0.501E+03   0.264E-04 -.652E-04 -.501E+03   -.136E-05 -.499E-05 0.307E+00
   0.197E+01 -.413E+00 0.494E+03   -.194E+01 0.400E+00 -.494E+03   -.375E-01 0.143E-01 -.314E+00
   -.856E-05 -.351E+00 0.150E+04   0.820E-05 0.381E+00 -.151E+04   -.203E-06 -.417E-01 0.341E+01
   0.356E+00 0.114E-04 0.151E+04   -.364E+00 -.103E-04 -.151E+04   0.105E-01 0.202E-05 0.346E+01
   -.522E-04 0.119E-02 -.151E+04   0.557E-04 -.118E-02 0.151E+04   -.174E-05 -.425E-04 -.229E+01
   0.163E+02 0.747E+01 -.149E+04   -.175E+02 -.868E+01 0.150E+04   0.124E+01 0.167E+01 -.314E+01
   -.224E-04 0.392E+01 -.532E+03   0.219E-04 -.462E+01 0.534E+03   0.568E-06 0.112E+01 -.227E+01
   0.119E+02 0.140E-03 -.499E+03   -.126E+02 -.130E-03 0.499E+03   0.107E+01 -.193E-04 0.175E+00
   -.383E-04 -.507E-04 0.491E+03   0.367E-04 0.529E-04 -.491E+03   0.147E-05 -.428E-05 -.307E+00
   0.197E+01 0.413E+00 0.494E+03   -.194E+01 -.400E+00 -.494E+03   -.375E-01 -.143E-01 -.314E+00
   -.799E-05 0.351E+00 0.150E+04   0.762E-05 -.381E+00 -.151E+04   -.867E-06 0.417E-01 0.341E+01
   0.584E+00 -.104E-04 0.150E+04   -.611E+00 0.968E-05 -.151E+04   0.375E-01 0.149E-05 0.342E+01
   -.199E-04 -.395E-03 -.149E+04   0.194E-04 0.374E-03 0.150E+04   0.196E-05 0.446E-04 -.153E+01
   0.163E+02 -.747E+01 -.149E+04   -.175E+02 0.868E+01 0.150E+04   0.124E+01 -.167E+01 -.314E+01
   -.486E-04 -.392E+01 -.532E+03   0.497E-04 0.462E+01 0.534E+03   -.140E-05 -.112E+01 -.227E+01
   0.569E+01 -.270E-04 -.492E+03   -.559E+01 0.318E-04 0.491E+03   -.731E-01 -.158E-05 0.946E+00
 -----------------------------------------------------------------------------------------------
   0.170E-04 -.776E-04 -.229E+01   0.439E-12 -.625E-13 -.227E-12   -.301E-04 0.764E-04 0.229E+01


 POSITION                                       TOTAL-FORCE (eV/Angst)
 -----------------------------------------------------------------------------------
      0.00000      6.40959      7.50000        -0.000001     -0.000003      0.489212
      2.13653      0.00000      7.50000         0.004091      0.004830      0.510769
      0.00000      0.00000      9.63653        -0.000002      0.010404      0.048544
      2.13653      6.40959      9.63653        -0.007445     -0.000001      0.067843
      8.54611      6.40959     11.75246         0.000001      0.000002     -0.154704
      2.15734      0.00683     11.79919         0.126402     -0.155457     -0.138645
      0.00000      0.02303     13.89856         0.000002     -0.044573     -0.387700
      2.01800      6.40958     13.87148         1.493804      0.000015     -0.055542
      0.00000      2.13653      7.50000        -0.000006      0.000001      0.491687
      2.13653      4.27306      7.50000         0.004091     -0.004832      0.510764
      0.00000      4.27306      9.63653        -0.000001     -0.010402      0.048542
      2.13653      2.13653      9.63653         0.055801      0.000002      0.030269
      0.00000      2.13653     11.77008        -0.000001     -0.000003     -0.162178
      2.15734      4.26623     11.79919         0.126397      0.155453     -0.138663
      0.00000      4.25003     13.89856         0.000003      0.044564     -0.387702
      2.11170      2.13653     13.90807        -0.156410     -0.000016     -0.492547
      4.27306      6.40959      7.50000        -0.000003     -0.000001      0.490562
      6.40959      0.00000      7.50000        -0.004094      0.004836      0.510770
      4.27306      0.00000      9.63653         0.000001      0.072676      0.127311
      6.40959      6.40959      9.63653         0.007443     -0.000001      0.067845
      4.27306      6.40959     11.72871         0.000001      0.000007      1.114806
      6.38877      0.00683     11.79919        -0.126400     -0.155459     -0.138647
      4.27306      0.09964     14.12804        -0.000006     -1.566341     -1.334866
      6.52812      6.40958     13.87148        -1.493797      0.000016     -0.055545
      4.27306      2.13653      7.50000        -0.000002      0.000005      0.516438
      6.40959      4.27306      7.50000        -0.004095     -0.004831      0.510769
      4.27306      4.27306      9.63653        -0.000000     -0.072677      0.127307
      6.40959      2.13653      9.63653        -0.055801      0.000000      0.030272
      4.27306      2.13653     11.80646         0.000002     -0.000004     -0.308627
      6.38877      4.26623     11.79920        -0.126398      0.155453     -0.138660
      4.27306      4.17342     14.12804         0.000002      1.566335     -1.334873
      6.43441      2.13653     13.90807         0.156413     -0.000013     -0.492553
      0.00000      6.40959      9.63653         0.000001     -0.000002      0.025866
      2.13653      0.00000      9.63653         0.002472      0.000790      0.056870
      0.00000      0.00000      7.50000        -0.000000     -0.004196     -0.346451
      2.13653      6.40959      7.50000        -0.002861     -0.000001     -0.341570
      0.00000      6.40959     13.91092         0.000002     -0.000010      0.154425
      2.11657      8.53514     13.92320        -0.067383      0.462003      0.432160
      0.00000      8.54181     11.76534        -0.000001      0.072493      0.135711
      2.15742      6.40959     11.78673        -0.387319     -0.000008     -0.222497
      0.00000      2.13653      9.63653         0.000000      0.000000      0.075591
      2.13653      4.27306      9.63653         0.002472     -0.000793      0.056875
      0.00000      4.27306      7.50000        -0.000001      0.004195     -0.346453
      2.13653      2.13653      7.50000        -0.010655     -0.000002     -0.352411
      0.00000      2.13653     13.92720         0.000000     -0.000003      0.166044
      2.11657      4.28403     13.92320        -0.067355     -0.461990      0.432172
      0.00000      4.27736     11.76534         0.000000     -0.072492      0.135710
      2.14280      2.13653     11.78019        -0.024399      0.000002      0.145597
      4.27306      6.40959      9.63653         0.000002      0.000002     -0.104104
      6.40959      0.00000      9.63653        -0.002471      0.000796      0.056872
      4.27306      0.00000      7.50000        -0.000000     -0.011967     -0.355159
      6.40959      6.40959      7.50000         0.002860      0.000003     -0.341572
      4.27306      6.40959     14.04985         0.000002     -0.000033      0.060131
      6.42954      8.53514     13.92320         0.067383      0.462006      0.432160
      4.27306      8.52644     11.80027         0.000000      0.418540     -0.122260
      6.38869      6.40959     11.78673         0.387322     -0.000009     -0.222497
      4.27306      2.13653      9.63653         0.000000     -0.000002      0.090162
      6.40959      4.27306      9.63653        -0.002472     -0.000793      0.056875
      4.27306      4.27306      7.50000        -0.000001      0.011970     -0.355160
      6.40959      2.13653      7.50000         0.010653      0.000001     -0.352409
      4.27306      2.13653     13.97421         0.000002      0.000023      0.521535
      6.42954      4.28403     13.92320         0.067356     -0.461994      0.432172
      4.27306      4.29273     11.80027        -0.000000     -0.418520     -0.122238
      6.40332      2.13653     11.78019         0.024399      0.000003      0.145596
 -----------------------------------------------------------------------------------
    total drift:                               -0.000013     -0.000001      0.003243


--------------------------------------------------------------------------------------------------------



  FREE ENERGIE OF THE ION-ELECTRON SYSTEM (eV)
  ---------------------------------------------------
  free  energy   TOTEN  =      -369.69628135 eV

  energy  without entropy=     -369.69628135  energy(sigma->0) =     -369.69628135



--------------------------------------------------------------------------------------------------------


    POTLOK:  cpu time      0.3031: real time      0.3032


--------------------------------------------------------------------------------------------------------


     LOOP+:  cpu time     69.6355: real time     69.7928
    4ORBIT:  cpu time      0.0000: real time      0.0000

 total amount of memory used by VASP MPI-rank0    61053. kBytes
=======================================================================

   base      :      30000. kBytes
   nonl-proj :      12234. kBytes
   fftplans  :       4926. kBytes
   grid      :       7379. kBytes
   one-center:         64. kBytes
   wavefun   :       6450. kBytes

  
  
 General timing and accounting informations for this job:
 ========================================================
  
                  Total CPU time used (sec):      102.326
                            User time (sec):      100.751
                          System time (sec):        1.576
                         Elapsed time (sec):      112.441
  
                   Maximum memory used (kb):      157908.
                   Average memory used (kb):          N/A
  
                          Minor page faults:        33508
                          Major page faults:            0
                 Voluntary context switches:        12388
