 vasp.6.3.0 20Jan22 (build Apr  1 2022 16:44:48) complex                         
 executed on        HPECrayEX_GCC date 2023.03.11  22:58:26
 running  768 mpi-ranks, with    1 threads/rank
 distrk:  each k-point on  768 cores,    1 groups
 distr:  one band on NCORE=   8 cores,   96 groups


--------------------------------------------------------------------------------------------------------


 INCAR:
   SYSTEM = MgO-rocksalt
   ISMEAR = 0
   SIGMA = 0.05
   EDIFF = 1E-6
   ALGO = ALL
   ISTART = 0
   IBRION = -1
   NSW = 0
   ISYM = 0
   DIPOL = 0.5 0.5 0.5
   IDIPOL = 3
   LDIPOL = .TRUE.
   LHFCALC = .TRUE.
   GGA = PE
   IVDW = 13
   VDW_S8 = 1.2007
   VDW_A1 = 0.4009
   VDW_A2 = 5.0293
   ENCUT = 600
   PREC = Accurate
   LASPH = .TRUE.
   LREAL = .FALSE.
   ISPIN = 1
   NELM = 200
   NELMIN = 8
   NCORE = 8
   KPAR = 1
   LWAVE = .FALSE.
   LCHARG = .FALSE.

 POTCAR:    PAW_PBE N 08Apr2002                   
 POTCAR:    PAW_PBE O 08Apr2002                   
 POTCAR:    PAW_PBE Mg_pv 13Apr2007               
 POTCAR:    PAW_PBE O 08Apr2002                   
 POTCAR:    PAW_PBE N 08Apr2002                   
   SHA256 =  e053789ff3a61a86a1b75d8a110fcc91f86041011e7b0817c7c99e4e8a6349d7 N/POTCAR              
   COPYR  = (c) Copyright 08Apr2002 Georg Kresse                                                    
   COPYR  = This file is part of the software VASP. Any use, copying, and all other rights are regul
   COPYR  = If you do not have a valid VASP license, you may not use, copy or distribute this file. 
   VRHFIN =N: s2p3                                                                                  
   LEXCH  = PE                                                                                      
   EATOM  =   264.5486 eV,   19.4438 Ry                                                             
                                                                                                    
   TITEL  = PAW_PBE N 08Apr2002                                                                     
   LULTRA =        F    use ultrasoft PP ?                                                          
   IUNSCR =        1    unscreen: 0-lin 1-nonlin 2-no                                               
   RPACOR =    1.200    partial core radius                                                         
   POMASS =   14.001; ZVAL   =    5.000    mass and valenz                                          
   RCORE  =    1.500    outmost cutoff radius                                                       
   RWIGS  =    1.400; RWIGS  =    0.741    wigner-seitz radius (au A)                               
   ENMAX  =  400.000; ENMIN  =  300.000 eV                                                          
   ICORE  =        2    local potential                                                             
   LCOR   =        T    correct aug charges                                                         
   LPAW   =        T    paw PP                                                                      
   EAUG   =  627.112                                                                                
   DEXC   =    0.000                                                                                
   RMAX   =    1.529    core radius for proj-oper                                                   
   RAUG   =    1.300    factor for augmentation sphere                                              
   RDEP   =    1.514    radius for radial grids                                                     
   RDEPT  =    1.338    core radius for aug-charge                                                  
                                                                                                    
   Atomic configuration                                                                             
    4 entries                                                                                       
     n  l   j            E        occ.                                                              
     1  0  0.50      -384.7179   2.0000                                                             
     2  0  0.50       -18.5828   2.0000                                                             
     2  1  0.50        -7.0898   3.0000                                                             
     3  2  1.50        -6.8029   0.0000                                                             
   Description                                                                                      
     l       E           TYP  RCUT    TYP  RCUT                                                     
     0    -18.5828119     23  1.200                                                                 
     0    -13.5018863     23  1.200                                                                 
     1     -7.0897853     23  1.500                                                                 
     1      9.5240782     23  1.500                                                                 
     2     -6.8029130      7  1.500                                                                 
  local pseudopotential read in
  partial core-charges read in
  partial kinetic energy density read in
  atomic valenz-charges read in
  non local Contribution for L=           0  read in
    real space projection operators read in
  non local Contribution for L=           0  read in
    real space projection operators read in
  non local Contribution for L=           1  read in
    real space projection operators read in
  non local Contribution for L=           1  read in
    real space projection operators read in
    PAW grid and wavefunctions read in

   number of l-projection  operators is LMAX  =           4
   number of lm-projection operators is LMMAX =           8

 POTCAR:    PAW_PBE O 08Apr2002                   
   SHA256 =  818f92134a0a090dccd8ba1447fa70422a3b330e708bb4f08108d8ae51209ddf O/POTCAR              
   COPYR  = (c) Copyright 08Apr2002 Georg Kresse                                                    
   COPYR  = This file is part of the software VASP. Any use, copying, and all other rights are regul
   COPYR  = If you do not have a valid VASP license, you may not use, copy or distribute this file. 
   VRHFIN =O: s2p4                                                                                  
   LEXCH  = PE                                                                                      
   EATOM  =   432.3788 eV,   31.7789 Ry                                                             
                                                                                                    
   TITEL  = PAW_PBE O 08Apr2002                                                                     
   LULTRA =        F    use ultrasoft PP ?                                                          
   IUNSCR =        1    unscreen: 0-lin 1-nonlin 2-no                                               
   RPACOR =    1.200    partial core radius                                                         
   POMASS =   16.000; ZVAL   =    6.000    mass and valenz                                          
   RCORE  =    1.520    outmost cutoff radius                                                       
   RWIGS  =    1.550; RWIGS  =    0.820    wigner-seitz radius (au A)                               
   ENMAX  =  400.000; ENMIN  =  300.000 eV                                                          
   ICORE  =        2    local potential                                                             
   LCOR   =        T    correct aug charges                                                         
   LPAW   =        T    paw PP                                                                      
   EAUG   =  605.392                                                                                
   DEXC   =    0.000                                                                                
   RMAX   =    1.553    core radius for proj-oper                                                   
   RAUG   =    1.300    factor for augmentation sphere                                              
   RDEP   =    1.550    radius for radial grids                                                     
   RDEPT  =    1.329    core radius for aug-charge                                                  
                                                                                                    
   Atomic configuration                                                                             
    4 entries                                                                                       
     n  l   j            E        occ.                                                              
     1  0  0.50      -514.6923   2.0000                                                             
     2  0  0.50       -23.9615   2.0000                                                             
     2  1  0.50        -9.0305   4.0000                                                             
     3  2  1.50        -9.5241   0.0000                                                             
   Description                                                                                      
     l       E           TYP  RCUT    TYP  RCUT                                                     
     0    -23.9615318     23  1.200                                                                 
     0     -9.5240782     23  1.200                                                                 
     1     -9.0304911     23  1.520                                                                 
     1      8.1634956     23  1.520                                                                 
     2     -9.5240782      7  1.500                                                                 
  local pseudopotential read in
  partial core-charges read in
  partial kinetic energy density read in
  kinetic energy density of atom read in
  atomic valenz-charges read in
  non local Contribution for L=           0  read in
    real space projection operators read in
  non local Contribution for L=           0  read in
    real space projection operators read in
  non local Contribution for L=           1  read in
    real space projection operators read in
  non local Contribution for L=           1  read in
    real space projection operators read in
    PAW grid and wavefunctions read in

   number of l-projection  operators is LMAX  =           4
   number of lm-projection operators is LMMAX =           8

 POTCAR:    PAW_PBE Mg_pv 13Apr2007               
   SHA256 =  f474ac0dd33840b9ae76c01d57fea79fdf77cdfbb07d5ade72c65f83c709b62b Mg_pv/POTCAR          
   COPYR  = (c) Copyright 13Apr2007 Georg Kresse                                                    
   COPYR  = This file is part of the software VASP. Any use, copying, and all other rights are regul
   COPYR  = If you do not have a valid VASP license, you may not use, copy or distribute this file. 
   VRHFIN =Mg: p6s2                                                                                 
   LEXCH  = PE                                                                                      
   EATOM  =  1056.7344 eV,   77.6678 Ry                                                             
                                                                                                    
   TITEL  = PAW_PBE Mg_pv 13Apr2007                                                                 
   LULTRA =        F    use ultrasoft PP ?                                                          
   IUNSCR =        1    unscreen: 0-lin 1-nonlin 2-no                                               
   RPACOR =    1.500    partial core radius                                                         
   POMASS =   24.305; ZVAL   =    8.000    mass and valenz                                          
   RCORE  =    2.000    outmost cutoff radius                                                       
   RWIGS  =    2.000; RWIGS  =    1.058    wigner-seitz radius (au A)                               
   ENMAX  =  403.929; ENMIN  =  302.947 eV                                                          
   RCLOC  =    1.506    cutoff for local pot                                                        
   LCOR   =        T    correct aug charges                                                         
   LPAW   =        T    paw PP                                                                      
   EAUG   =  758.780                                                                                
   DEXC   =    0.000                                                                                
   RMAX   =    2.045    core radius for proj-oper                                                   
   RAUG   =    1.300    factor for augmentation sphere                                              
   RDEP   =    2.025    radius for radial grids                                                     
   RDEPT  =    1.557    core radius for aug-charge                                                  
                                                                                                    
   Atomic configuration                                                                             
    5 entries                                                                                       
     n  l   j            E        occ.                                                              
     1  0  0.50     -1259.6230   2.0000                                                             
     2  0  0.50       -79.8442   2.0000                                                             
     2  1  1.50       -46.6121   6.0000                                                             
     3  0  0.50        -4.7055   2.0000                                                             
     3  2  1.50        -1.3606   0.0000                                                             
   Description                                                                                      
     l       E           TYP  RCUT    TYP  RCUT                                                     
     1    -46.6121073     23  1.600                                                                 
     1      2.7211652     23  1.600                                                                 
     0     -4.7054661     23  2.000                                                                 
     0     61.2262170     23  2.000                                                                 
     2     -1.3605826     23  2.000                                                                 
  local pseudopotential read in
  partial core-charges read in
  partial kinetic energy density read in
  atomic valenz-charges read in
  non local Contribution for L=           1  read in
    real space projection operators read in
  non local Contribution for L=           1  read in
    real space projection operators read in
  non local Contribution for L=           0  read in
    real space projection operators read in
  non local Contribution for L=           0  read in
    real space projection operators read in
  non local Contribution for L=           2  read in
    real space projection operators read in
    PAW grid and wavefunctions read in

   number of l-projection  operators is LMAX  =           5
   number of lm-projection operators is LMMAX =          13

 POTCAR:    PAW_PBE O 08Apr2002                   
   SHA256 =  818f92134a0a090dccd8ba1447fa70422a3b330e708bb4f08108d8ae51209ddf O/POTCAR              
   COPYR  = (c) Copyright 08Apr2002 Georg Kresse                                                    
   COPYR  = This file is part of the software VASP. Any use, copying, and all other rights are regul
   COPYR  = If you do not have a valid VASP license, you may not use, copy or distribute this file. 
   VRHFIN =O: s2p4                                                                                  
   LEXCH  = PE                                                                                      
   EATOM  =   432.3788 eV,   31.7789 Ry                                                             
                                                                                                    
   TITEL  = PAW_PBE O 08Apr2002                                                                     
   LULTRA =        F    use ultrasoft PP ?                                                          
   IUNSCR =        1    unscreen: 0-lin 1-nonlin 2-no                                               
   RPACOR =    1.200    partial core radius                                                         
   POMASS =   16.000; ZVAL   =    6.000    mass and valenz                                          
   RCORE  =    1.520    outmost cutoff radius                                                       
   RWIGS  =    1.550; RWIGS  =    0.820    wigner-seitz radius (au A)                               
   ENMAX  =  400.000; ENMIN  =  300.000 eV                                                          
   ICORE  =        2    local potential                                                             
   LCOR   =        T    correct aug charges                                                         
   LPAW   =        T    paw PP                                                                      
   EAUG   =  605.392                                                                                
   DEXC   =    0.000                                                                                
   RMAX   =    1.553    core radius for proj-oper                                                   
   RAUG   =    1.300    factor for augmentation sphere                                              
   RDEP   =    1.550    radius for radial grids                                                     
   RDEPT  =    1.329    core radius for aug-charge                                                  
                                                                                                    
   Atomic configuration                                                                             
    4 entries                                                                                       
     n  l   j            E        occ.                                                              
     1  0  0.50      -514.6923   2.0000                                                             
     2  0  0.50       -23.9615   2.0000                                                             
     2  1  0.50        -9.0305   4.0000                                                             
     3  2  1.50        -9.5241   0.0000                                                             
   Description                                                                                      
     l       E           TYP  RCUT    TYP  RCUT                                                     
     0    -23.9615318     23  1.200                                                                 
     0     -9.5240782     23  1.200                                                                 
     1     -9.0304911     23  1.520                                                                 
     1      8.1634956     23  1.520                                                                 
     2     -9.5240782      7  1.500                                                                 
  local pseudopotential read in
  partial core-charges read in
  partial kinetic energy density read in
  kinetic energy density of atom read in
  atomic valenz-charges read in
  non local Contribution for L=           0  read in
    real space projection operators read in
  non local Contribution for L=           0  read in
    real space projection operators read in
  non local Contribution for L=           1  read in
    real space projection operators read in
  non local Contribution for L=           1  read in
    real space projection operators read in
    PAW grid and wavefunctions read in

   number of l-projection  operators is LMAX  =           4
   number of lm-projection operators is LMMAX =           8

 -----------------------------------------------------------------------------
|                                                                             |
|               ----> ADVICE to this user running VASP <----                  |
|                                                                             |
|     You have a (more or less) 'large supercell' and for larger cells it     |
|     might be more efficient to use real-space projection operators.         |
|     Therefore, try LREAL= Auto in the INCAR file.                           |
|     Mind: For very accurate calculation, you might also keep the            |
|     reciprocal projection scheme (i.e. LREAL=.FALSE.).                      |
|                                                                             |
 -----------------------------------------------------------------------------

  PAW_PBE N 08Apr2002                   :
 energy of atom  1       EATOM= -264.5486
 kinetic energy error for atom=    0.0103 (will be added to EATOM!!)
  PAW_PBE O 08Apr2002                   :
 energy of atom  2       EATOM= -432.3788
 kinetic energy error for atom=    0.0168 (will be added to EATOM!!)
  PAW_PBE Mg_pv 13Apr2007               :
 energy of atom  3       EATOM=-1056.7344
 kinetic energy error for atom=    0.0221 (will be added to EATOM!!)
  PAW_PBE O 08Apr2002                   :
 energy of atom  4       EATOM= -432.3788
 kinetic energy error for atom=    0.0168 (will be added to EATOM!!)


 POSCAR:  N  O Mg  O
  positions in direct lattice
  No initial velocities read in
 -----------------------------------------------------------------------------
|                                                                             |
|           W    W    AA    RRRRR   N    N  II  N    N   GGGG   !!!           |
|           W    W   A  A   R    R  NN   N  II  NN   N  G    G  !!!           |
|           W    W  A    A  R    R  N N  N  II  N N  N  G       !!!           |
|           W WW W  AAAAAA  RRRRR   N  N N  II  N  N N  G  GGG   !            |
|           WW  WW  A    A  R   R   N   NN  II  N   NN  G    G                |
|           W    W  A    A  R    R  N    N  II  N    N   GGGG   !!!           |
|                                                                             |
|     Specifying the vdW parameters                                           |
|     VDW_S8 = 1.201                                                          |
|     VDW_A1 = 0.401                                                          |
|     VDW_A2 = 5.029                                                          |
|     in the INCAR file will overwrite the defaults for pbe0. Please make     |
|     sure that is what you intended.                                         |
|                                                                             |
 -----------------------------------------------------------------------------

 exchange correlation table for  LEXCH =        8
   RHO(1)=    0.500       N(1)  =     2000
   RHO(2)=  100.500       N(2)  =     4000



--------------------------------------------------------------------------------------------------------


 ion  position               nearest neighbor table
   1  0.493  0.519  0.766-   2 1.14
   2  0.471  0.594  0.810-   1 1.14   3 1.20
   3  0.448  0.673  0.856-   2 1.20
   4  0.000  0.750  0.352-  36 2.11  38 2.11  39 2.11  46 2.11  55 2.11
   5  0.250  0.000  0.352-  37 2.11  38 2.11  39 2.11  47 2.11  54 2.11
   6  0.000  0.000  0.451-  38 2.11  37 2.11  36 2.11  44 2.11  53 2.11  42 2.12
   7  0.250  0.750  0.451-  39 2.11  37 2.11  36 2.11  45 2.11  52 2.11  43 2.12
   8  1.000  0.750  0.550-  50 2.11  59 2.11  42 2.11  43 2.11  36 2.12  40 2.15
   9  0.250  0.000  0.550-  51 2.11  58 2.11  43 2.11  42 2.11  37 2.12  41 2.15
  10  1.000  0.000  0.649-  48 2.11  57 2.11  42 2.11  41 2.11  40 2.11
  11  0.250  0.750  0.648-  43 2.10  40 2.11  41 2.11  49 2.11  56 2.11
  12  0.000  0.250  0.352-  44 2.11  38 2.11  46 2.11  47 2.11  63 2.11
  13  0.250  0.500  0.352-  45 2.11  39 2.11  46 2.11  47 2.11  62 2.11
  14  0.000  0.500  0.451-  46 2.11  44 2.11  45 2.11  36 2.11  61 2.11  50 2.12
  15  0.250  0.250  0.451-  47 2.11  44 2.11  45 2.11  37 2.11  60 2.11  51 2.12
  16  1.000  0.250  0.550-  67 2.11  51 2.11  50 2.11  42 2.11  44 2.12  48 2.15
  17  0.250  0.500  0.550-  66 2.11  51 2.11  43 2.11  50 2.11  45 2.13  49 2.15
  18  1.000  0.500  0.649-  65 2.10  49 2.10  50 2.11  48 2.11  40 2.11
  19  0.250  0.250  0.649-  51 2.11  64 2.11  48 2.11  41 2.11  49 2.11
  20  0.500  0.750  0.352-  52 2.11  39 2.11  54 2.11  55 2.11  62 2.11
  21  0.750  0.000  0.352-  53 2.11  38 2.11  54 2.11  55 2.11  63 2.11
  22  0.500  0.000  0.451-  54 2.11  52 2.11  53 2.11  37 2.11  60 2.11  58 2.12
  23  0.750  0.750  0.451-  55 2.11  52 2.11  53 2.11  36 2.11  61 2.11  59 2.12
  24  0.500  0.750  0.550-  66 2.11  59 2.11  43 2.11  58 2.11  52 2.13  56 2.15
  25  0.750  0.000  0.550-  67 2.11  58 2.11  59 2.11  42 2.11  53 2.12  57 2.15
  26  0.500  0.000  0.649-  64 2.10  56 2.11  58 2.11  57 2.11  41 2.11
  27  0.750  0.750  0.649-  59 2.10  65 2.11  40 2.11  57 2.11  56 2.11
  28  0.500  0.250  0.352-  60 2.11  54 2.11  47 2.11  62 2.11  63 2.11
  29  0.750  0.500  0.352-  61 2.11  55 2.11  46 2.11  62 2.11  63 2.11
  30  0.500  0.500  0.451-  62 2.11  52 2.11  60 2.11  61 2.11  45 2.11  66 2.13
  31  0.750  0.250  0.451-  63 2.11  53 2.11  60 2.11  61 2.11  44 2.11  67 2.12
  32  0.500  0.250  0.550-  66 2.11  67 2.11  51 2.11  58 2.12  60 2.13  64 2.14
  33  0.750  0.500  0.550-  66 2.11  67 2.11  59 2.11  50 2.11  61 2.13  65 2.14
  34  0.500  0.499  0.651-  64 2.11  65 2.12  49 2.12  56 2.12  66 2.15
  35  0.750  0.250  0.649-  67 2.11  64 2.11  65 2.11  48 2.11  57 2.11
  36  0.000  0.750  0.451-   4 2.11   6 2.11   7 2.11  14 2.11  23 2.11   8 2.12
  37  0.250  0.000  0.451-   5 2.11   6 2.11   7 2.11  15 2.11  22 2.11   9 2.12
  38  0.000  0.000  0.352-   6 2.11   5 2.11   4 2.11  12 2.11  21 2.11
  39  0.250  0.750  0.352-   7 2.11   5 2.11   4 2.11  13 2.11  20 2.11
  40  0.000  0.750  0.651-  11 2.11  27 2.11  10 2.11  18 2.11   8 2.15
  41  0.250  1.000  0.651-  11 2.11  10 2.11  19 2.11  26 2.11   9 2.15
  42  0.000  1.000  0.550-  10 2.11   8 2.11   9 2.11  25 2.11  16 2.11   6 2.12
  43  0.250  0.750  0.550-  11 2.10  24 2.11   8 2.11   9 2.11  17 2.11   7 2.12
  44  0.000  0.250  0.451-  12 2.11   6 2.11  14 2.11  15 2.11  31 2.11  16 2.12
  45  0.250  0.500  0.451-  13 2.11   7 2.11  14 2.11  15 2.11  30 2.11  17 2.13
  46  0.000  0.500  0.352-  14 2.11  12 2.11  13 2.11   4 2.11  29 2.11
  47  0.250  0.250  0.352-  15 2.11  12 2.11  13 2.11   5 2.11  28 2.11
  48  0.000  0.250  0.651-  10 2.11  19 2.11  18 2.11  35 2.11  16 2.15
  49  0.249  0.500  0.651-  18 2.10  11 2.11  19 2.11  34 2.12  17 2.15
  50  0.000  0.500  0.550-  18 2.11   8 2.11  16 2.11  17 2.11  33 2.11  14 2.12
  51  0.250  0.250  0.550-  19 2.11   9 2.11  16 2.11  17 2.11  32 2.11  15 2.12
  52  0.500  0.750  0.451-  20 2.11   7 2.11  22 2.11  23 2.11  30 2.11  24 2.13
  53  0.750  0.000  0.451-  21 2.11   6 2.11  22 2.11  23 2.11  31 2.11  25 2.12
  54  0.500  0.000  0.352-  22 2.11  20 2.11  21 2.11   5 2.11  28 2.11
  55  0.750  0.750  0.352-  23 2.11  20 2.11  21 2.11   4 2.11  29 2.11
  56  0.500  0.751  0.651-  26 2.11  11 2.11  27 2.11  34 2.12  24 2.15
  57  0.750  1.000  0.651-  10 2.11  27 2.11  35 2.11  26 2.11  25 2.15
  58  0.500  1.000  0.550-  26 2.11   9 2.11  25 2.11  24 2.11  32 2.12  22 2.12
  59  0.750  0.750  0.550-  27 2.10   8 2.11  24 2.11  25 2.11  33 2.11  23 2.12
  60  0.500  0.250  0.451-  28 2.11  22 2.11  15 2.11  30 2.11  31 2.11  32 2.13
  61  0.750  0.500  0.451-  29 2.11  23 2.11  14 2.11  30 2.11  31 2.11  33 2.13
  62  0.500  0.500  0.352-  30 2.11  20 2.11  28 2.11  29 2.11  13 2.11
  63  0.750  0.250  0.352-  31 2.11  21 2.11  28 2.11  29 2.11  12 2.11
  64  0.500  0.249  0.651-  26 2.10  19 2.11  35 2.11  34 2.11  32 2.14
  65  0.751  0.500  0.651-  18 2.10  27 2.11  35 2.11  34 2.12  33 2.14
  66  0.500  0.500  0.550-  24 2.11  17 2.11  33 2.11  32 2.11  30 2.13  34 2.15
  67  0.750  0.250  0.550-  35 2.11  25 2.11  16 2.11  33 2.11  32 2.11  31 2.12


IMPORTANT INFORMATION: All symmetrisations will be switched off!
NOSYMM: (Re-)initialisation of all symmetry stuff for point group C_1.


----------------------------------------------------------------------------------------

                                     Primitive cell                                     

  volume of cell :    1519.8199

  direct lattice vectors                    reciprocal lattice vectors
     8.440984654  0.000000000  0.000000000     0.118469591  0.000000000  0.000000000
     0.000000000  8.440984654  0.000000000     0.000000000  0.118469591  0.000000000
     0.000000000  0.000000000 21.330738491     0.000000000  0.000000000  0.046880702

  length of vectors
     8.440984654  8.440984654 21.330738491     0.118469591  0.118469591  0.046880702

  position of ions in fractional coordinates (direct lattice)
     0.493398131  0.519404002  0.766108779
     0.471138949  0.594205185  0.809960549
     0.447548019  0.673291737  0.855770475
     0.000000000  0.750000000  0.351605267
     0.250000000  0.000000000  0.351605267
     0.000000000  0.000000000  0.450535089
     0.250000000  0.750000000  0.450535089
     0.999954346  0.749943911  0.550033337
     0.250059217  0.000083621  0.550049328
     0.999974613  0.000078779  0.648776369
     0.249800109  0.750104580  0.648369797
     0.000000000  0.250000000  0.351605267
     0.250000000  0.500000000  0.351605267
     0.000000000  0.500000000  0.450535089
     0.250000000  0.250000000  0.450535089
     0.999992643  0.250071267  0.550081376
     0.250466599  0.499936424  0.550285804
     0.999910591  0.499944107  0.648595353
     0.250071256  0.249972791  0.648663217
     0.500000000  0.750000000  0.351605267
     0.750000000  0.000000000  0.351605267
     0.500000000  0.000000000  0.450535089
     0.750000000  0.750000000  0.450535089
     0.500019170  0.749513781  0.550294524
     0.749931195  0.000045804  0.550067803
     0.500000635  0.000284138  0.648599469
     0.750105583  0.749980305  0.648513915
     0.500000000  0.250000000  0.351605267
     0.750000000  0.500000000  0.351605267
     0.500000000  0.500000000  0.450535089
     0.750000000  0.250000000  0.450535089
     0.500014918  0.250394168  0.550308765
     0.749553765  0.499942387  0.550295926
     0.500181848  0.499312364  0.650965447
     0.749943309  0.249994221  0.648681965
     0.000000000  0.750000000  0.450535089
     0.250000000  0.000000000  0.450535089
     0.000000000  0.000000000  0.351605267
     0.250000000  0.750000000  0.351605267
     0.000012200  0.750130927  0.651051999
     0.249850447  0.999920408  0.651044229
     0.000002071  0.999970731  0.549879102
     0.249988900  0.750048197  0.549864299
     0.000000000  0.250000000  0.450535089
     0.250000000  0.500000000  0.450535089
     0.000000000  0.500000000  0.351605267
     0.250000000  0.250000000  0.351605267
     0.000021798  0.249888812  0.651053889
     0.249183234  0.500152064  0.651003323
     0.000044966  0.500042088  0.549823568
     0.249901523  0.249969111  0.549858607
     0.500000000  0.750000000  0.450535089
     0.750000000  0.000000000  0.450535089
     0.500000000  0.000000000  0.351605267
     0.750000000  0.750000000  0.351605267
     0.499910216  0.750845655  0.651282283
     0.750127192  0.999910415  0.651062982
     0.499988513  0.999825680  0.549826079
     0.749987876  0.750064282  0.549877255
     0.500000000  0.250000000  0.450535089
     0.750000000  0.500000000  0.450535089
     0.500000000  0.500000000  0.351605267
     0.750000000  0.250000000  0.351605267
     0.499985243  0.249093791  0.650645830
     0.750813028  0.500082222  0.650835349
     0.499974736  0.500084682  0.550243536
     0.750104413  0.249925398  0.549847355

  ion indices of the primitive-cell ions
   primitive index   ion index
                 1           1
                 2           2
                 3           3
                 4           4
                 5           5
                 6           6
                 7           7
                 8           8
                 9           9
                10          10
                11          11
                12          12
                13          13
                14          14
                15          15
                16          16
                17          17
                18          18
                19          19
                20          20
                21          21
                22          22
                23          23
                24          24
                25          25
                26          26
                27          27
                28          28
                29          29
                30          30
                31          31
                32          32
                33          33
                34          34
                35          35
                36          36
                37          37
                38          38
                39          39
                40          40
                41          41
                42          42
                43          43
                44          44
                45          45
                46          46
                47          47
                48          48
                49          49
                50          50
                51          51
                52          52
                53          53
                54          54
                55          55
                56          56
                57          57
                58          58
                59          59
                60          60
                61          61
                62          62
                63          63
                64          64
                65          65
                66          66
                67          67

----------------------------------------------------------------------------------------



 KPOINTS: pymatgen v2020.8.13 with grid density = 

Automatic generation of k-mesh.
 Grid dimensions read from file:
 generate k-points for:    2    2    1

 Generating k-lattice:

  Cartesian coordinates                     Fractional coordinates (reciprocal lattice)
     0.059234796  0.000000000  0.000000000     0.500000000  0.000000000  0.000000000
     0.000000000  0.059234796  0.000000000     0.000000000  0.500000000  0.000000000
     0.000000000  0.000000000  0.046880702     0.000000000  0.000000000  1.000000000

  Length of vectors
     0.059234796  0.059234796  0.046880702

  Shift w.r.t. Gamma in fractional coordinates (k-lattice)
     0.000000000  0.000000000  0.000000000

 
 Subroutine IBZKPT returns following result:
 ===========================================
 
 Found      4 irreducible k-points:
 
 Following reciprocal coordinates:
            Coordinates               Weight
  0.000000  0.000000  0.000000      1.000000
  0.500000  0.000000  0.000000      1.000000
  0.000000  0.500000  0.000000      1.000000
  0.500000  0.500000  0.000000      1.000000
 
 Following cartesian coordinates:
            Coordinates               Weight
  0.000000  0.000000  0.000000      1.000000
  0.059235  0.000000  0.000000      1.000000
  0.000000  0.059235  0.000000      1.000000
  0.059235  0.059235  0.000000      1.000000
 
 
 Subroutine IBZKPT_HF returns following result:
 ==============================================
 
 Found      4 k-points in 1st BZ
 the following      4 k-points will be used (e.g. in the exchange kernel)
 Following reciprocal coordinates:   # in IRBZ
  0.000000  0.000000  0.000000    0.25000000   1 t-inv F
  0.500000  0.000000  0.000000    0.25000000   2 t-inv F
  0.000000  0.500000  0.000000    0.25000000   3 t-inv F
  0.500000  0.500000  0.000000    0.25000000   4 t-inv F


--------------------------------------------------------------------------------------------------------




 Dimension of arrays:
   k-points           NKPTS =      4   k-points in BZ     NKDIM =      4   number of bands    NBANDS=    288
   number of dos      NEDOS =    301   number of ions     NIONS =     67
   non local maximal  LDIM  =      5   non local SUM 2l+1 LMDIM =     13
   total plane-waves  NPLWV = 882000
   max r-space proj   IRMAX =      1   max aug-charges    IRDMAX=  11635
   dimension x,y,z NGX =    70 NGY =   70 NGZ =  180
   dimension x,y,z NGXF=   140 NGYF=  140 NGZF=  360
   support grid    NGXF=   140 NGYF=  140 NGZF=  360
   ions per type =               2   1  32  32
   NGX,Y,Z   is equivalent  to a cutoff of  13.79, 13.79, 14.03 a.u.
   NGXF,Y,Z  is equivalent  to a cutoff of  27.57, 27.57, 28.06 a.u.

 SYSTEM =  MgO-rocksalt                            
 POSCAR =   N  O Mg  O                             

--------------------------------------------------------------------------------------------------------


  energy-cutoff  :      600.00
  volume of cell :     1519.82
      direct lattice vectors                 reciprocal lattice vectors
     8.440984654  0.000000000  0.000000000     0.118469591  0.000000000  0.000000000
     0.000000000  8.440984654  0.000000000     0.000000000  0.118469591  0.000000000
     0.000000000  0.000000000 21.330738491     0.000000000  0.000000000  0.046880702

  length of vectors
     8.440984654  8.440984654 21.330738491     0.118469591  0.118469591  0.046880702



 k-points in units of 2pi/SCALE and weight: pymatgen v2020.8.13 with grid density = 
   0.00000000  0.00000000  0.00000000       0.250
   0.05923480  0.00000000  0.00000000       0.250
   0.00000000  0.05923480  0.00000000       0.250
   0.05923480  0.05923480  0.00000000       0.250

 k-points in reciprocal lattice and weights: pymatgen v2020.8.13 with grid density = 
   0.00000000  0.00000000  0.00000000       0.250
   0.50000000  0.00000000  0.00000000       0.250
   0.00000000  0.50000000  0.00000000       0.250
   0.50000000  0.50000000  0.00000000       0.250

 position of ions in fractional coordinates (direct lattice) 
   0.49339813  0.51940400  0.76610878
   0.47113895  0.59420519  0.80996055
   0.44754802  0.67329174  0.85577047
   0.00000000  0.75000000  0.35160527
   0.25000000  0.00000000  0.35160527
   0.00000000  0.00000000  0.45053509
   0.25000000  0.75000000  0.45053509
   0.99995435  0.74994391  0.55003334
   0.25005922  0.00008362  0.55004933
   0.99997461  0.00007878  0.64877637
   0.24980011  0.75010458  0.64836980
   0.00000000  0.25000000  0.35160527
   0.25000000  0.50000000  0.35160527
   0.00000000  0.50000000  0.45053509
   0.25000000  0.25000000  0.45053509
   0.99999264  0.25007127  0.55008138
   0.25046660  0.49993642  0.55028580
   0.99991059  0.49994411  0.64859535
   0.25007126  0.24997279  0.64866322
   0.50000000  0.75000000  0.35160527
   0.75000000  0.00000000  0.35160527
   0.50000000  0.00000000  0.45053509
   0.75000000  0.75000000  0.45053509
   0.50001917  0.74951378  0.55029452
   0.74993119  0.00004580  0.55006780
   0.50000063  0.00028414  0.64859947
   0.75010558  0.74998031  0.64851392
   0.50000000  0.25000000  0.35160527
   0.75000000  0.50000000  0.35160527
   0.50000000  0.50000000  0.45053509
   0.75000000  0.25000000  0.45053509
   0.50001492  0.25039417  0.55030877
   0.74955376  0.49994239  0.55029593
   0.50018185  0.49931236  0.65096545
   0.74994331  0.24999422  0.64868196
   0.00000000  0.75000000  0.45053509
   0.25000000  0.00000000  0.45053509
   0.00000000  0.00000000  0.35160527
   0.25000000  0.75000000  0.35160527
   0.00001220  0.75013093  0.65105200
   0.24985045  0.99992041  0.65104423
   0.00000207  0.99997073  0.54987910
   0.24998890  0.75004820  0.54986430
   0.00000000  0.25000000  0.45053509
   0.25000000  0.50000000  0.45053509
   0.00000000  0.50000000  0.35160527
   0.25000000  0.25000000  0.35160527
   0.00002180  0.24988881  0.65105389
   0.24918323  0.50015206  0.65100332
   0.00004497  0.50004209  0.54982357
   0.24990152  0.24996911  0.54985861
   0.50000000  0.75000000  0.45053509
   0.75000000  0.00000000  0.45053509
   0.50000000  0.00000000  0.35160527
   0.75000000  0.75000000  0.35160527
   0.49991022  0.75084566  0.65128228
   0.75012719  0.99991042  0.65106298
   0.49998851  0.99982568  0.54982608
   0.74998788  0.75006428  0.54987725
   0.50000000  0.25000000  0.45053509
   0.75000000  0.50000000  0.45053509
   0.50000000  0.50000000  0.35160527
   0.75000000  0.25000000  0.35160527
   0.49998524  0.24909379  0.65064583
   0.75081303  0.50008222  0.65083535
   0.49997474  0.50008468  0.55024354
   0.75010441  0.24992540  0.54984736

 position of ions in cartesian coordinates  (Angst):
   4.16476605  4.38428121 16.34166602
   3.97687664  5.01567685 17.27705666
   3.77774596  5.68324522 18.25421621
   0.00000000  6.33073849  7.50000000
   2.11024616  0.00000000  7.50000000
   0.00000000  0.00000000  9.61024616
   2.11024616  6.33073849  9.61024616
   8.44059929  6.33026504 11.73261728
   2.11074601  0.00070585 11.73295836
   8.44077037  0.00066497 13.83887907
   2.10855889  6.33162125 13.83020658
   0.00000000  2.11024616  7.50000000
   2.11024616  4.22049233  7.50000000
   0.00000000  4.22049233  9.61024616
   2.11024616  2.11024616  9.61024616
   8.44092255  2.11084773 11.73364199
   2.11418471  4.21995568 11.73800259
   8.44022996  4.22002054 13.83501787
   2.11084764  2.11001649 13.83646546
   4.22049233  6.33073849  7.50000000
   6.33073849  0.00000000  7.50000000
   4.22049233  0.00000000  9.61024616
   6.33073849  6.33073849  9.61024616
   4.22065414  6.32663433 11.73818858
   6.33015771  0.00038663 11.73335245
   4.22049769  0.00239840 13.83510567
   6.33162971  6.33057225 13.83328073
   4.22049233  2.11024616  7.50000000
   6.33073849  4.22049233  7.50000000
   4.22049233  4.22049233  9.61024616
   6.33073849  2.11024616  9.61024616
   4.22061825  2.11357333 11.73849236
   6.32697183  4.22000602 11.73821849
   4.22202730  4.21468800 13.88557373
   6.33025996  2.11019738 13.83686536
   0.00000000  6.33073849  9.61024616
   2.11024616  0.00000000  9.61024616
   0.00000000  0.00000000  7.50000000
   2.11024616  6.33073849  7.50000000
   0.00010298  6.33184364 13.88741994
   2.10898379  8.44031282 13.88725419
   0.00001748  8.44073759 11.72932734
   2.11015247  6.33114532 11.72901158
   0.00000000  2.11024616  9.61024616
   2.11024616  4.22049233  9.61024616
   0.00000000  4.22049233  7.50000000
   2.11024616  2.11024616  7.50000000
   0.00018400  2.10930763 13.88746024
   2.10335185  4.22177590 13.88638164
   0.00037956  4.22084759 11.72814275
   2.10941492  2.10998543 11.72889016
   4.22049233  6.33073849  9.61024616
   6.33073849  0.00000000  9.61024616
   4.22049233  0.00000000  7.50000000
   6.33073849  6.33073849  7.50000000
   4.21973446  6.33787666 13.89233205
   6.33181212  8.44022847 13.88765421
   4.22039536  8.43951322 11.72819632
   6.33063615  6.33128109 11.72928792
   4.22049233  2.11024616  9.61024616
   6.33073849  4.22049233  9.61024616
   4.22049233  4.22049233  7.50000000
   6.33073849  2.11024616  7.50000000
   4.22036776  2.10259687 13.87875605
   6.33760125  4.22118636 13.88279863
   4.22027908  4.22120712 11.73710097
   6.33161984  2.10961645 11.72865014



--------------------------------------------------------------------------------------------------------

--------------------------------------- Iteration      FINAL  ---------------------------------------


--------------------OUTCAR has been truncated-------------------------


--------------------OUTCAR has been truncated-------------------------


--------------------OUTCAR has been truncated-------------------------


--------------------OUTCAR has been truncated-------------------------


--------------------OUTCAR has been truncated-------------------------


--------------------OUTCAR has been truncated-------------------------


--------------------OUTCAR has been truncated-------------------------


--------------------OUTCAR has been truncated-------------------------


--------------------OUTCAR has been truncated-------------------------


--------------------OUTCAR has been truncated-------------------------



 VOLUME and BASIS-vectors are now :
 -----------------------------------------------------------------------------
  energy-cutoff  :      600.00
  volume of cell :     1519.82
      direct lattice vectors                 reciprocal lattice vectors
     8.440984654  0.000000000  0.000000000     0.118469591  0.000000000  0.000000000
     0.000000000  8.440984654  0.000000000     0.000000000  0.118469591  0.000000000
     0.000000000  0.000000000 21.330738491     0.000000000  0.000000000  0.046880702

  length of vectors
     8.440984654  8.440984654 21.330738491     0.118469591  0.118469591  0.046880702


 FORCES acting on ions:
    Electron-Ion                     Ewald-Force                    Non-Local-Force
 -----------------------------------------------------------------------------------------------
   -.482E+02 0.162E+03 -.108E+04   0.563E+02 -.189E+03 0.104E+04   -.765E+01 0.257E+02 0.376E+02
   -.445E+01 0.147E+02 -.106E+04   0.429E+01 -.141E+02 0.106E+04   0.306E+00 -.111E+01 -.124E+01
   0.502E+02 -.168E+03 -.125E+04   -.612E+02 0.205E+03 0.130E+04   0.960E+01 -.322E+02 -.470E+02
   0.542E-01 -.160E+00 0.208E+04   -.545E-01 0.157E+00 -.207E+04   0.170E-03 0.147E-02 -.676E+01
   0.214E+00 -.143E+00 0.208E+04   -.211E+00 0.143E+00 -.207E+04   -.173E-02 -.444E-03 -.676E+01
   0.155E+00 -.412E+00 0.726E+03   -.159E+00 0.422E+00 -.726E+03   0.217E-02 -.640E-02 0.480E+00
   0.777E+00 -.597E+00 0.728E+03   -.748E+00 0.575E+00 -.729E+03   -.179E-01 0.135E-01 0.486E+00
   0.805E+00 -.349E+01 -.616E+03   -.816E+00 0.346E+01 0.616E+03   0.930E-02 0.238E-01 -.798E-01
   0.421E+01 -.206E+01 -.617E+03   -.418E+01 0.209E+01 0.617E+03   -.222E-01 -.223E-01 -.909E-01
   0.222E+01 -.562E+01 -.197E+04   -.223E+01 0.564E+01 0.197E+04   0.361E-02 -.193E-01 0.572E+01
   0.300E+02 -.240E+02 -.193E+04   -.301E+02 0.240E+02 0.192E+04   0.788E-01 -.439E-01 0.579E+01
   0.492E-01 0.160E+00 0.208E+04   -.494E-01 -.157E+00 -.207E+04   0.908E-04 -.149E-02 -.677E+01
   0.225E+00 0.143E+00 0.208E+04   -.220E+00 -.144E+00 -.207E+04   -.308E-02 0.401E-03 -.678E+01
   0.182E+00 0.414E+00 0.727E+03   -.180E+00 -.424E+00 -.728E+03   -.107E-02 0.600E-02 0.436E+00
   0.676E+00 0.592E+00 0.727E+03   -.662E+00 -.569E+00 -.728E+03   -.825E-02 -.143E-01 0.469E+00
   0.577E+00 0.346E+01 -.620E+03   -.581E+00 -.344E+01 0.620E+03   0.379E-02 -.230E-01 -.103E+00
   0.616E+01 0.216E+01 -.609E+03   -.603E+01 -.219E+01 0.609E+03   -.117E+00 0.224E-01 -.233E+00
   0.356E+01 0.602E+01 -.196E+04   -.359E+01 -.605E+01 0.195E+04   0.274E-01 0.196E-01 0.573E+01
   0.220E+02 0.219E+02 -.195E+04   -.220E+02 -.220E+02 0.195E+04   -.150E-03 0.434E-01 0.578E+01
   -.545E-01 -.171E+00 0.208E+04   0.547E-01 0.166E+00 -.207E+04   -.119E-03 0.290E-02 -.678E+01
   -.214E+00 -.138E+00 0.208E+04   0.211E+00 0.138E+00 -.207E+04   0.173E-02 -.365E-03 -.677E+01
   -.157E+00 -.511E+00 0.728E+03   0.160E+00 0.503E+00 -.728E+03   -.192E-02 0.504E-02 0.438E+00
   -.775E+00 -.570E+00 0.728E+03   0.744E+00 0.552E+00 -.728E+03   0.187E-01 0.111E-01 0.486E+00
   -.857E+00 -.541E+01 -.607E+03   0.867E+00 0.528E+01 0.607E+03   -.882E-02 0.113E+00 -.126E+00
   -.419E+01 -.183E+01 -.618E+03   0.416E+01 0.185E+01 0.618E+03   0.221E-01 -.167E-01 -.933E-01
   -.249E+01 -.115E+02 -.195E+04   0.249E+01 0.116E+02 0.194E+04   -.316E-02 -.103E+00 0.573E+01
   -.289E+02 -.218E+02 -.194E+04   0.290E+02 0.218E+02 0.193E+04   -.759E-01 -.177E-01 0.578E+01
   -.493E-01 0.170E+00 0.208E+04   0.495E-01 -.166E+00 -.207E+04   -.103E-03 -.273E-02 -.678E+01
   -.225E+00 0.138E+00 0.208E+04   0.220E+00 -.139E+00 -.207E+04   0.305E-02 0.365E-03 -.678E+01
   -.183E+00 0.510E+00 0.728E+03   0.183E+00 -.508E+00 -.729E+03   0.419E-03 -.222E-02 0.528E+00
   -.675E+00 0.566E+00 0.727E+03   0.661E+00 -.547E+00 -.728E+03   0.808E-02 -.110E-01 0.462E+00
   -.602E+00 0.535E+01 -.610E+03   0.607E+00 -.521E+01 0.611E+03   -.368E-02 -.115E+00 -.387E+00
   -.613E+01 0.191E+01 -.610E+03   0.599E+01 -.193E+01 0.610E+03   0.118E+00 0.170E-01 -.305E+00
   -.589E+01 0.181E+02 -.187E+04   0.594E+01 -.182E+02 0.186E+04   -.373E-01 0.141E+00 0.499E+01
   -.216E+02 0.203E+02 -.196E+04   0.216E+02 -.203E+02 0.195E+04   -.178E-03 0.203E-01 0.577E+01
   0.124E+00 -.473E+00 0.545E+03   -.123E+00 0.461E+00 -.545E+03   -.130E-02 0.144E-01 -.762E-01
   0.584E+00 -.313E+00 0.545E+03   -.572E+00 0.314E+00 -.545E+03   -.142E-01 -.147E-02 -.845E-01
   0.377E-01 -.101E+00 0.156E+04   -.382E-01 0.102E+00 -.157E+04   0.539E-03 -.180E-02 0.303E+01
   0.169E+00 -.124E+00 0.156E+04   -.164E+00 0.120E+00 -.157E+04   -.551E-02 0.449E-02 0.303E+01
   0.297E+01 -.908E+01 -.149E+04   -.298E+01 0.905E+01 0.150E+04   0.811E-02 0.341E-01 -.445E+01
   0.116E+02 -.751E+01 -.149E+04   -.116E+02 0.752E+01 0.150E+04   -.386E-01 -.132E-01 -.445E+01
   0.470E+00 -.125E+01 -.461E+03   -.472E+00 0.126E+01 0.461E+03   0.152E-02 -.930E-02 0.242E+00
   0.403E+01 -.334E+01 -.451E+03   -.402E+01 0.333E+01 0.451E+03   -.483E-02 0.129E-01 0.387E+00
   0.104E+00 0.473E+00 0.544E+03   -.105E+00 -.462E+00 -.544E+03   0.181E-02 -.134E-01 -.997E-01
   0.667E+00 0.318E+00 0.546E+03   -.687E+00 -.321E+00 -.545E+03   0.222E-01 0.355E-02 -.139E+00
   0.403E-01 0.101E+00 0.156E+04   -.403E-01 -.102E+00 -.157E+04   0.508E-04 0.182E-02 0.303E+01
   0.158E+00 0.124E+00 0.156E+04   -.155E+00 -.120E+00 -.157E+04   -.360E-02 -.439E-02 0.303E+01
   0.175E+01 0.876E+01 -.150E+04   -.175E+01 -.872E+01 0.150E+04   -.431E-03 -.378E-01 -.445E+01
   0.322E+02 0.917E+01 -.146E+04   -.320E+02 -.919E+01 0.146E+04   -.177E+00 0.831E-02 -.440E+01
   0.552E+00 0.127E+01 -.455E+03   -.556E+00 -.128E+01 0.455E+03   0.335E-02 0.670E-02 0.295E+00
   0.358E+01 0.326E+01 -.455E+03   -.355E+01 -.325E+01 0.455E+03   -.222E-01 -.159E-01 0.299E+00
   -.128E+00 -.558E+00 0.546E+03   0.129E+00 0.580E+00 -.546E+03   -.720E-03 -.245E-01 -.142E+00
   -.583E+00 -.293E+00 0.545E+03   0.572E+00 0.296E+00 -.545E+03   0.137E-01 -.452E-02 -.920E-01
   -.378E-01 -.111E+00 0.156E+04   0.382E-01 0.111E+00 -.157E+04   -.555E-03 -.580E-04 0.303E+01
   -.169E+00 -.121E+00 0.156E+04   0.164E+00 0.118E+00 -.157E+04   0.544E-02 0.392E-02 0.303E+01
   -.395E+01 -.311E+02 -.144E+04   0.396E+01 0.309E+02 0.145E+04   -.352E-02 0.209E+00 -.434E+01
   -.114E+02 -.622E+01 -.150E+04   0.113E+02 0.623E+01 0.150E+04   0.389E-01 -.572E-02 -.445E+01
   -.484E+00 -.163E+01 -.454E+03   0.486E+00 0.165E+01 0.454E+03   -.142E-02 -.162E-01 0.298E+00
   -.399E+01 -.323E+01 -.453E+03   0.399E+01 0.321E+01 0.453E+03   0.558E-02 0.179E-01 0.350E+00
   -.104E+00 0.546E+00 0.545E+03   0.105E+00 -.562E+00 -.545E+03   -.137E-02 0.175E-01 -.140E+00
   -.664E+00 0.294E+00 0.545E+03   0.682E+00 -.297E+00 -.545E+03   -.205E-01 0.429E-02 -.139E+00
   -.405E-01 0.112E+00 0.156E+04   0.405E-01 -.112E+00 -.157E+04   0.132E-04 -.191E-03 0.302E+01
   -.158E+00 0.121E+00 0.156E+04   0.155E+00 -.118E+00 -.157E+04   0.360E-02 -.391E-02 0.303E+01
   -.210E+01 0.268E+02 -.147E+04   0.210E+01 -.266E+02 0.147E+04   -.181E-02 -.137E+00 -.444E+01
   -.306E+02 0.746E+01 -.146E+04   0.305E+02 -.747E+01 0.147E+04   0.155E+00 0.754E-02 -.442E+01
   -.592E+00 0.172E+01 -.452E+03   0.598E+00 -.174E+01 0.452E+03   -.603E-02 0.232E-01 -.209E+00
   -.356E+01 0.317E+01 -.456E+03   0.354E+01 -.315E+01 0.455E+03   0.217E-01 -.198E-01 0.291E+00
 -----------------------------------------------------------------------------------------------
   -.304E+01 0.102E+02 0.341E+02   -.135E-12 -.178E-12 0.375E-11   0.222E+01 -.748E+01 -.273E+02


 POSITION                                       TOTAL-FORCE (eV/Angst)
 -----------------------------------------------------------------------------------
      4.16477      4.38428     16.34167        -0.427149      1.442039      2.201685
      3.97688      5.01568     17.27706         0.182886     -0.612718     -0.998833
      3.77775      5.68325     18.25422         0.246754     -0.826261     -1.182738
      0.00000      6.33074      7.50000        -0.000063     -0.000680      0.584080
      2.11025      0.00000      7.50000         0.000802      0.000210      0.584773
      0.00000      0.00000      9.61025        -0.000995      0.002951      0.051695
      2.11025      6.33074      9.61025         0.008121     -0.006337      0.054426
      8.44060      6.33027     11.73262        -0.000263     -0.003083      0.015830
      2.11075      0.00071     11.73296         0.002212      0.001206      0.015229
      8.44077      0.00066     13.83888         0.000377     -0.000967     -0.201685
      2.10856      6.33162     13.83021        -0.009369      0.007350     -0.205689
      0.00000      2.11025      7.50000        -0.000054      0.000673      0.586052
      2.11025      4.22049      7.50000         0.001185     -0.000143      0.587681
      0.00000      4.22049      9.61025         0.000374     -0.002677      0.066262
      2.11025      2.11025      9.61025         0.004562      0.006964      0.057050
      8.44092      2.11085     11.73364        -0.000442      0.002331      0.013897
      2.11418      4.21996     11.73800         0.003044     -0.001542      0.011620
      8.44023      4.22002     13.83502         0.001093     -0.000050     -0.198325
      2.11085      2.11002     13.83647        -0.007164     -0.005794     -0.203554
      4.22049      6.33074      7.50000         0.000047     -0.001082      0.587638
      6.33074      0.00000      7.50000        -0.000806      0.000174      0.585338
      4.22049      0.00000      9.61025         0.000854     -0.001891      0.066074
      6.33074      6.33074      9.61025        -0.008646     -0.005552      0.055186
      4.22065      6.32663     11.73819         0.000313     -0.003446      0.009828
      6.33016      0.00039     11.73335        -0.002149      0.001360      0.014529
      4.22050      0.00240     13.83511        -0.000271     -0.002209     -0.197122
      6.33163      6.33057     13.83328         0.008797      0.007017     -0.205244
      4.22049      2.11025      7.50000         0.000042      0.001040      0.587618
      6.33074      4.22049      7.50000        -0.001143     -0.000147      0.587721
      4.22049      4.22049      9.61025         0.000078      0.000105      0.073897
      6.33074      2.11025      9.61025        -0.004455      0.005572      0.058179
      4.22062      2.11357     11.73849         0.000200      0.004371      0.009004
      6.32697      4.22001     11.73822        -0.003454     -0.001449      0.010791
      4.22203      4.21469     13.88557         0.001386     -0.006086     -0.234758
      6.33026      2.11020     13.83687         0.006383     -0.005250     -0.202723
      0.00000      6.33074      9.61025        -0.000282      0.004994      0.064850
      2.11025      0.00000      9.61025        -0.004915     -0.000856      0.063510
      0.00000      0.00000      7.50000         0.000185     -0.000609     -0.411690
      2.11025      6.33074      7.50000        -0.001895      0.001554     -0.412728
      0.00010      6.33184     13.88742        -0.000500      0.001959     -0.131497
      2.10898      8.44031     13.88725        -0.001859      0.000804     -0.132472
      0.00002      8.44074     11.72933         0.000246     -0.001374      0.014536
      2.11015      6.33115     11.72901        -0.001200      0.002162      0.020990
      0.00000      2.11025      9.61025         0.000660     -0.004692      0.061358
      2.11025      4.22049      9.61025         0.006259      0.001512      0.068950
      0.00000      4.22049      7.50000         0.000021      0.000633     -0.413361
      2.11025      2.11025      7.50000        -0.001229     -0.001501     -0.413619
      0.00018      2.10931     13.88746        -0.000396     -0.002800     -0.132403
      2.10335      4.22178     13.88638        -0.004599     -0.001078     -0.122733
      0.00038      4.22085     11.72814        -0.000094      0.000690      0.016405
      2.10941      2.10999     11.72889        -0.002311     -0.002773      0.021710
      4.22049      6.33074      9.61025        -0.000328     -0.006970      0.068555
      6.33074      0.00000      9.61025         0.004745     -0.001780      0.062731
      4.22049      0.00000      7.50000        -0.000195     -0.000006     -0.413275
      6.33074      6.33074      7.50000         0.001871      0.001357     -0.413028
      4.21973      6.33788     13.89233         0.000724      0.006867     -0.124793
      6.33181      8.44023     13.88765         0.001851      0.000624     -0.132426
      4.22040      8.43951     11.72820        -0.000187     -0.000631      0.017217
      6.33064      6.33128     11.72929         0.001264      0.002451      0.021113
      4.22049      2.11025      9.61025        -0.000533      0.004884      0.071320
      6.33074      4.22049      9.61025        -0.005745      0.001732      0.070020
      4.22049      4.22049      7.50000         0.000006     -0.000062     -0.415493
      6.33074      2.11025      7.50000         0.001229     -0.001338     -0.413885
      4.22037      2.10260     13.87876        -0.000071     -0.001154     -0.116514
      6.33760      4.22119     13.88280         0.002634     -0.000299     -0.119883
      4.22028      4.22121     11.73710        -0.000650      0.002586      0.008899
      6.33162      2.10962     11.72865         0.002203     -0.002889      0.022224
 -----------------------------------------------------------------------------------
    total drift:                               -0.000065     -0.000638     -0.001791


--------------------------------------------------------------------------------------------------------



  FREE ENERGIE OF THE ION-ELECTRON SYSTEM (eV)
  ---------------------------------------------------
  free  energy   TOTEN  =      -500.33595377 eV

  energy  without entropy=     -500.33595377  energy(sigma->0) =     -500.33595377



--------------------------------------------------------------------------------------------------------


    POTLOK:  cpu time      0.3764: real time      0.3765


--------------------------------------------------------------------------------------------------------


     LOOP+:  cpu time   3625.0713: real time   3625.9372
    4ORBIT:  cpu time      0.0000: real time      0.0000

 total amount of memory used by VASP MPI-rank0   186904. kBytes
=======================================================================

   base      :      30000. kBytes
   nonl-proj :      17597. kBytes
   fftplans  :       7774. kBytes
   grid      :       8190. kBytes
   one-center:         73. kBytes
   HF        :        101. kBytes
   nonlr-proj:       6950. kBytes
   wavefun   :       3759. kBytes
   fock_wrk  :     112460. kBytes

  
  
 General timing and accounting informations for this job:
 ========================================================
  
                  Total CPU time used (sec):     3678.870
                            User time (sec):     3669.264
                          System time (sec):        9.606
                         Elapsed time (sec):     3699.819
  
                   Maximum memory used (kb):      425312.
                   Average memory used (kb):          N/A
  
                          Minor page faults:       391739
                          Major page faults:           54
                 Voluntary context switches:        20270
