 vasp.6.3.0 20Jan22 (build Apr  1 2022 16:44:48) complex                         
 executed on        HPECrayEX_GCC date 2022.11.13  02:24:34
 running 1024 mpi-ranks, with    1 threads/rank
 distrk:  each k-point on 1024 cores,    1 groups
 distr:  one band on NCORE=   8 cores,  128 groups


--------------------------------------------------------------------------------------------------------


 INCAR:
   SYSTEM = MgO-rocksalt
   ISMEAR = 0
   SIGMA = 0.05
   EDIFF = 1E-6
   ALGO = ALL
   ISTART = 0
   IBRION = -1
   NSW = 0
   ISYM = 0
   DIPOL = 0.5 0.5 0.5
   IDIPOL = 3
   LDIPOL = .TRUE.
   LHFCALC = .TRUE.
   GGA = PE
   IVDW = 13
   VDW_S8 = 1.2007
   VDW_A1 = 0.4009
   VDW_A2 = 5.0293
   ENCUT = 600
   PREC = Accurate
   LASPH = .TRUE.
   LREAL = .FALSE.
   ISPIN = 1
   NELM = 200
   NELMIN = 8
   NCORE = 8
   KPAR = 1
   LWAVE = .FALSE.
   LCHARG = .FALSE.

 POTCAR:    PAW_PBE C 08Apr2002                   
 POTCAR:    PAW_PBE O 08Apr2002                   
 POTCAR:    PAW_PBE Mg_pv 13Apr2007               
 POTCAR:    PAW_PBE O 08Apr2002                   
 POTCAR:    PAW_PBE C 08Apr2002                   
   SHA256 =  253f7b50bb8d59471dbedb8285d89021f4a42ed1a2c5d38a03a736e69125dd95 C/POTCAR              
   COPYR  = (c) Copyright 08Apr2002 Georg Kresse                                                    
   COPYR  = This file is part of the software VASP. Any use, copying, and all other rights are regul
   COPYR  = If you do not have a valid VASP license, you may not use, copy or distribute this file. 
   VRHFIN =C: s2p2                                                                                  
   LEXCH  = PE                                                                                      
   EATOM  =   147.1560 eV,   10.8157 Ry                                                             
                                                                                                    
   TITEL  = PAW_PBE C 08Apr2002                                                                     
   LULTRA =        F    use ultrasoft PP ?                                                          
   IUNSCR =        1    unscreen: 0-lin 1-nonlin 2-no                                               
   RPACOR =    1.200    partial core radius                                                         
   POMASS =   12.011; ZVAL   =    4.000    mass and valenz                                          
   RCORE  =    1.500    outmost cutoff radius                                                       
   RWIGS  =    1.630; RWIGS  =    0.863    wigner-seitz radius (au A)                               
   ENMAX  =  400.000; ENMIN  =  300.000 eV                                                          
   ICORE  =        2    local potential                                                             
   LCOR   =        T    correct aug charges                                                         
   LPAW   =        T    paw PP                                                                      
   EAUG   =  644.873                                                                                
   DEXC   =    0.000                                                                                
   RMAX   =    1.529    core radius for proj-oper                                                   
   RAUG   =    1.300    factor for augmentation sphere                                              
   RDEP   =    1.501    radius for radial grids                                                     
   RDEPT  =    1.300    core radius for aug-charge                                                  
                                                                                                    
   Atomic configuration                                                                             
    4 entries                                                                                       
     n  l   j            E        occ.                                                              
     1  0  0.50      -273.3789   2.0000                                                             
     2  0  0.50       -13.7508   2.0000                                                             
     2  1  0.50        -5.2854   2.0000                                                             
     3  2  1.50        -5.4423   0.0000                                                             
   Description                                                                                      
     l       E           TYP  RCUT    TYP  RCUT                                                     
     0    -13.7508458     23  1.200                                                                 
     0     -8.2022199     23  1.200                                                                 
     1     -5.2854383     23  1.500                                                                 
     1     34.0145650     23  1.500                                                                 
     2     -5.4423304      7  1.500                                                                 
  local pseudopotential read in
  partial core-charges read in
  partial kinetic energy density read in
  atomic valenz-charges read in
  non local Contribution for L=           0  read in
    real space projection operators read in
  non local Contribution for L=           0  read in
    real space projection operators read in
  non local Contribution for L=           1  read in
    real space projection operators read in
  non local Contribution for L=           1  read in
    real space projection operators read in
    PAW grid and wavefunctions read in

   number of l-projection  operators is LMAX  =           4
   number of lm-projection operators is LMMAX =           8

 POTCAR:    PAW_PBE O 08Apr2002                   
   SHA256 =  818f92134a0a090dccd8ba1447fa70422a3b330e708bb4f08108d8ae51209ddf O/POTCAR              
   COPYR  = (c) Copyright 08Apr2002 Georg Kresse                                                    
   COPYR  = This file is part of the software VASP. Any use, copying, and all other rights are regul
   COPYR  = If you do not have a valid VASP license, you may not use, copy or distribute this file. 
   VRHFIN =O: s2p4                                                                                  
   LEXCH  = PE                                                                                      
   EATOM  =   432.3788 eV,   31.7789 Ry                                                             
                                                                                                    
   TITEL  = PAW_PBE O 08Apr2002                                                                     
   LULTRA =        F    use ultrasoft PP ?                                                          
   IUNSCR =        1    unscreen: 0-lin 1-nonlin 2-no                                               
   RPACOR =    1.200    partial core radius                                                         
   POMASS =   16.000; ZVAL   =    6.000    mass and valenz                                          
   RCORE  =    1.520    outmost cutoff radius                                                       
   RWIGS  =    1.550; RWIGS  =    0.820    wigner-seitz radius (au A)                               
   ENMAX  =  400.000; ENMIN  =  300.000 eV                                                          
   ICORE  =        2    local potential                                                             
   LCOR   =        T    correct aug charges                                                         
   LPAW   =        T    paw PP                                                                      
   EAUG   =  605.392                                                                                
   DEXC   =    0.000                                                                                
   RMAX   =    1.553    core radius for proj-oper                                                   
   RAUG   =    1.300    factor for augmentation sphere                                              
   RDEP   =    1.550    radius for radial grids                                                     
   RDEPT  =    1.329    core radius for aug-charge                                                  
                                                                                                    
   Atomic configuration                                                                             
    4 entries                                                                                       
     n  l   j            E        occ.                                                              
     1  0  0.50      -514.6923   2.0000                                                             
     2  0  0.50       -23.9615   2.0000                                                             
     2  1  0.50        -9.0305   4.0000                                                             
     3  2  1.50        -9.5241   0.0000                                                             
   Description                                                                                      
     l       E           TYP  RCUT    TYP  RCUT                                                     
     0    -23.9615318     23  1.200                                                                 
     0     -9.5240782     23  1.200                                                                 
     1     -9.0304911     23  1.520                                                                 
     1      8.1634956     23  1.520                                                                 
     2     -9.5240782      7  1.500                                                                 
  local pseudopotential read in
  partial core-charges read in
  partial kinetic energy density read in
  kinetic energy density of atom read in
  atomic valenz-charges read in
  non local Contribution for L=           0  read in
    real space projection operators read in
  non local Contribution for L=           0  read in
    real space projection operators read in
  non local Contribution for L=           1  read in
    real space projection operators read in
  non local Contribution for L=           1  read in
    real space projection operators read in
    PAW grid and wavefunctions read in

   number of l-projection  operators is LMAX  =           4
   number of lm-projection operators is LMMAX =           8

 POTCAR:    PAW_PBE Mg_pv 13Apr2007               
   SHA256 =  f474ac0dd33840b9ae76c01d57fea79fdf77cdfbb07d5ade72c65f83c709b62b Mg_pv/POTCAR          
   COPYR  = (c) Copyright 13Apr2007 Georg Kresse                                                    
   COPYR  = This file is part of the software VASP. Any use, copying, and all other rights are regul
   COPYR  = If you do not have a valid VASP license, you may not use, copy or distribute this file. 
   VRHFIN =Mg: p6s2                                                                                 
   LEXCH  = PE                                                                                      
   EATOM  =  1056.7344 eV,   77.6678 Ry                                                             
                                                                                                    
   TITEL  = PAW_PBE Mg_pv 13Apr2007                                                                 
   LULTRA =        F    use ultrasoft PP ?                                                          
   IUNSCR =        1    unscreen: 0-lin 1-nonlin 2-no                                               
   RPACOR =    1.500    partial core radius                                                         
   POMASS =   24.305; ZVAL   =    8.000    mass and valenz                                          
   RCORE  =    2.000    outmost cutoff radius                                                       
   RWIGS  =    2.000; RWIGS  =    1.058    wigner-seitz radius (au A)                               
   ENMAX  =  403.929; ENMIN  =  302.947 eV                                                          
   RCLOC  =    1.506    cutoff for local pot                                                        
   LCOR   =        T    correct aug charges                                                         
   LPAW   =        T    paw PP                                                                      
   EAUG   =  758.780                                                                                
   DEXC   =    0.000                                                                                
   RMAX   =    2.045    core radius for proj-oper                                                   
   RAUG   =    1.300    factor for augmentation sphere                                              
   RDEP   =    2.025    radius for radial grids                                                     
   RDEPT  =    1.557    core radius for aug-charge                                                  
                                                                                                    
   Atomic configuration                                                                             
    5 entries                                                                                       
     n  l   j            E        occ.                                                              
     1  0  0.50     -1259.6230   2.0000                                                             
     2  0  0.50       -79.8442   2.0000                                                             
     2  1  1.50       -46.6121   6.0000                                                             
     3  0  0.50        -4.7055   2.0000                                                             
     3  2  1.50        -1.3606   0.0000                                                             
   Description                                                                                      
     l       E           TYP  RCUT    TYP  RCUT                                                     
     1    -46.6121073     23  1.600                                                                 
     1      2.7211652     23  1.600                                                                 
     0     -4.7054661     23  2.000                                                                 
     0     61.2262170     23  2.000                                                                 
     2     -1.3605826     23  2.000                                                                 
  local pseudopotential read in
  partial core-charges read in
  partial kinetic energy density read in
  atomic valenz-charges read in
  non local Contribution for L=           1  read in
    real space projection operators read in
  non local Contribution for L=           1  read in
    real space projection operators read in
  non local Contribution for L=           0  read in
    real space projection operators read in
  non local Contribution for L=           0  read in
    real space projection operators read in
  non local Contribution for L=           2  read in
    real space projection operators read in
    PAW grid and wavefunctions read in

   number of l-projection  operators is LMAX  =           5
   number of lm-projection operators is LMMAX =          13

 POTCAR:    PAW_PBE O 08Apr2002                   
   SHA256 =  818f92134a0a090dccd8ba1447fa70422a3b330e708bb4f08108d8ae51209ddf O/POTCAR              
   COPYR  = (c) Copyright 08Apr2002 Georg Kresse                                                    
   COPYR  = This file is part of the software VASP. Any use, copying, and all other rights are regul
   COPYR  = If you do not have a valid VASP license, you may not use, copy or distribute this file. 
   VRHFIN =O: s2p4                                                                                  
   LEXCH  = PE                                                                                      
   EATOM  =   432.3788 eV,   31.7789 Ry                                                             
                                                                                                    
   TITEL  = PAW_PBE O 08Apr2002                                                                     
   LULTRA =        F    use ultrasoft PP ?                                                          
   IUNSCR =        1    unscreen: 0-lin 1-nonlin 2-no                                               
   RPACOR =    1.200    partial core radius                                                         
   POMASS =   16.000; ZVAL   =    6.000    mass and valenz                                          
   RCORE  =    1.520    outmost cutoff radius                                                       
   RWIGS  =    1.550; RWIGS  =    0.820    wigner-seitz radius (au A)                               
   ENMAX  =  400.000; ENMIN  =  300.000 eV                                                          
   ICORE  =        2    local potential                                                             
   LCOR   =        T    correct aug charges                                                         
   LPAW   =        T    paw PP                                                                      
   EAUG   =  605.392                                                                                
   DEXC   =    0.000                                                                                
   RMAX   =    1.553    core radius for proj-oper                                                   
   RAUG   =    1.300    factor for augmentation sphere                                              
   RDEP   =    1.550    radius for radial grids                                                     
   RDEPT  =    1.329    core radius for aug-charge                                                  
                                                                                                    
   Atomic configuration                                                                             
    4 entries                                                                                       
     n  l   j            E        occ.                                                              
     1  0  0.50      -514.6923   2.0000                                                             
     2  0  0.50       -23.9615   2.0000                                                             
     2  1  0.50        -9.0305   4.0000                                                             
     3  2  1.50        -9.5241   0.0000                                                             
   Description                                                                                      
     l       E           TYP  RCUT    TYP  RCUT                                                     
     0    -23.9615318     23  1.200                                                                 
     0     -9.5240782     23  1.200                                                                 
     1     -9.0304911     23  1.520                                                                 
     1      8.1634956     23  1.520                                                                 
     2     -9.5240782      7  1.500                                                                 
  local pseudopotential read in
  partial core-charges read in
  partial kinetic energy density read in
  kinetic energy density of atom read in
  atomic valenz-charges read in
  non local Contribution for L=           0  read in
    real space projection operators read in
  non local Contribution for L=           0  read in
    real space projection operators read in
  non local Contribution for L=           1  read in
    real space projection operators read in
  non local Contribution for L=           1  read in
    real space projection operators read in
    PAW grid and wavefunctions read in

   number of l-projection  operators is LMAX  =           4
   number of lm-projection operators is LMMAX =           8

 -----------------------------------------------------------------------------
|                                                                             |
|               ----> ADVICE to this user running VASP <----                  |
|                                                                             |
|     You have a (more or less) 'large supercell' and for larger cells it     |
|     might be more efficient to use real-space projection operators.         |
|     Therefore, try LREAL= Auto in the INCAR file.                           |
|     Mind: For very accurate calculation, you might also keep the            |
|     reciprocal projection scheme (i.e. LREAL=.FALSE.).                      |
|                                                                             |
 -----------------------------------------------------------------------------

  PAW_PBE C 08Apr2002                   :
 energy of atom  1       EATOM= -147.1560
 kinetic energy error for atom=    0.0057 (will be added to EATOM!!)
  PAW_PBE O 08Apr2002                   :
 energy of atom  2       EATOM= -432.3788
 kinetic energy error for atom=    0.0168 (will be added to EATOM!!)
  PAW_PBE Mg_pv 13Apr2007               :
 energy of atom  3       EATOM=-1056.7344
 kinetic energy error for atom=    0.0221 (will be added to EATOM!!)
  PAW_PBE O 08Apr2002                   :
 energy of atom  4       EATOM= -432.3788
 kinetic energy error for atom=    0.0168 (will be added to EATOM!!)


 POSCAR:  C  O Mg  O
  positions in direct lattice
  No initial velocities read in
 -----------------------------------------------------------------------------
|                                                                             |
|           W    W    AA    RRRRR   N    N  II  N    N   GGGG   !!!           |
|           W    W   A  A   R    R  NN   N  II  NN   N  G    G  !!!           |
|           W    W  A    A  R    R  N N  N  II  N N  N  G       !!!           |
|           W WW W  AAAAAA  RRRRR   N  N N  II  N  N N  G  GGG   !            |
|           WW  WW  A    A  R   R   N   NN  II  N   NN  G    G                |
|           W    W  A    A  R    R  N    N  II  N    N   GGGG   !!!           |
|                                                                             |
|     Specifying the vdW parameters                                           |
|     VDW_S8 = 1.201                                                          |
|     VDW_A1 = 0.401                                                          |
|     VDW_A2 = 5.029                                                          |
|     in the INCAR file will overwrite the defaults for pbe0. Please make     |
|     sure that is what you intended.                                         |
|                                                                             |
 -----------------------------------------------------------------------------

 exchange correlation table for  LEXCH =        8
   RHO(1)=    0.500       N(1)  =     2000
   RHO(2)=  100.500       N(2)  =     4000



--------------------------------------------------------------------------------------------------------


 ion  position               nearest neighbor table
   1  0.625  0.625  0.771-   3 1.18   2 1.18
   2  0.527  0.527  0.773-   1 1.18
   3  0.723  0.723  0.773-   1 1.18
   4  0.250  0.000  0.351-  36 2.12  38 2.12  39 2.12  46 2.12  55 2.12
   5  0.500  0.250  0.351-  37 2.12  38 2.12  39 2.12  47 2.12  54 2.12
   6  0.250  0.250  0.450-  38 2.12  37 2.12  36 2.12  44 2.12  53 2.12  42 2.12
   7  0.500  0.000  0.450-  39 2.12  37 2.12  36 2.12  45 2.12  52 2.12  43 2.12
   8  0.250  1.000  0.550-  43 2.12  50 2.12  42 2.12  59 2.12  36 2.13  40 2.15
   9  0.500  0.250  0.550-  58 2.12  42 2.12  51 2.12  43 2.12  37 2.13  41 2.14
  10  0.250  0.250  0.648-  42 2.11  40 2.12  57 2.12  48 2.12  41 2.12
  11  0.500  0.000  0.648-  43 2.10  41 2.11  40 2.12  56 2.12  49 2.12
  12  0.250  0.500  0.351-  44 2.12  38 2.12  46 2.12  47 2.12  63 2.12
  13  0.500  0.750  0.351-  45 2.12  39 2.12  46 2.12  47 2.12  62 2.12
  14  0.250  0.750  0.450-  46 2.12  44 2.12  45 2.12  36 2.12  61 2.12  50 2.12
  15  0.500  0.500  0.450-  47 2.12  44 2.12  45 2.12  37 2.12  60 2.12  51 2.13
  16  0.250  0.500  0.550-  50 2.12  42 2.12  51 2.12  67 2.12  44 2.13  48 2.14
  17  0.500  0.750  0.550-  51 2.11  66 2.11  50 2.12  43 2.12  45 2.13  49 2.16
  18  0.250  0.750  0.648-  50 2.10  65 2.11  40 2.12  48 2.12  49 2.12
  19  0.498  0.498  0.649-  41 2.11  48 2.11  51 2.11  64 2.13  49 2.13
  20  0.750  0.000  0.351-  52 2.12  39 2.12  54 2.12  55 2.12  62 2.12
  21  0.000  0.250  0.351-  53 2.12  38 2.12  54 2.12  55 2.12  63 2.12
  22  0.750  0.250  0.450-  54 2.12  52 2.12  53 2.12  37 2.12  60 2.12  58 2.12
  23  0.000  0.000  0.450-  55 2.12  52 2.12  53 2.12  36 2.12  61 2.12  59 2.12
  24  0.750  0.000  0.550-  43 2.12  59 2.12  66 2.12  58 2.12  52 2.13  56 2.14
  25  1.000  0.250  0.550-  67 2.12  58 2.12  42 2.12  59 2.12  53 2.13  57 2.15
  26  0.750  0.250  0.648-  58 2.10  56 2.11  57 2.12  41 2.12  64 2.12
  27  0.000  0.000  0.648-  59 2.11  57 2.12  40 2.12  65 2.12  56 2.12
  28  0.750  0.500  0.351-  60 2.12  54 2.12  47 2.12  62 2.12  63 2.12
  29  0.000  0.750  0.351-  61 2.12  55 2.12  46 2.12  62 2.12  63 2.12
  30  0.750  0.750  0.450-  62 2.12  52 2.12  60 2.12  61 2.12  45 2.12  66 2.13
  31  0.000  0.500  0.450-  63 2.12  53 2.12  60 2.12  61 2.12  44 2.12  67 2.12
  32  0.750  0.500  0.550-  51 2.11  66 2.11  58 2.12  67 2.12  60 2.13  64 2.16
  33  0.000  0.750  0.550-  67 2.12  59 2.12  66 2.12  50 2.12  61 2.13  65 2.14
  34  0.752  0.752  0.649-  56 2.11  65 2.11  66 2.11  49 2.13  64 2.13
  35  0.000  0.500  0.648-  67 2.10  48 2.11  57 2.12  65 2.12  64 2.12
  36  0.250  0.000  0.450-   4 2.12   6 2.12   7 2.12  14 2.12  23 2.12   8 2.13
  37  0.500  0.250  0.450-   5 2.12   6 2.12   7 2.12  15 2.12  22 2.12   9 2.13
  38  0.250  0.250  0.351-   6 2.12   5 2.12   4 2.12  12 2.12  21 2.12
  39  0.500  0.000  0.351-   7 2.12   5 2.12   4 2.12  13 2.12  20 2.12
  40  0.250  1.000  0.651-  10 2.12  27 2.12  18 2.12  11 2.12   8 2.15
  41  0.500  0.249  0.650-  19 2.11  11 2.11  10 2.12  26 2.12   9 2.14
  42  0.250  0.250  0.550-  10 2.11   8 2.12  25 2.12  16 2.12   9 2.12   6 2.12
  43  0.500  1.000  0.550-  11 2.10  17 2.12   8 2.12  24 2.12   9 2.12   7 2.12
  44  0.250  0.500  0.450-  12 2.12   6 2.12  14 2.12  15 2.12  31 2.12  16 2.13
  45  0.500  0.750  0.450-  13 2.12   7 2.12  14 2.12  15 2.12  30 2.12  17 2.13
  46  0.250  0.750  0.351-  14 2.12  12 2.12  13 2.12   4 2.12  29 2.12
  47  0.500  0.500  0.351-  15 2.12  12 2.12  13 2.12   5 2.12  28 2.12
  48  0.249  0.500  0.650-  19 2.11  35 2.11  10 2.12  18 2.12  16 2.14
  49  0.500  0.750  0.652-  11 2.12  18 2.12  19 2.13  34 2.13  17 2.16
  50  0.250  0.750  0.550-  18 2.10  17 2.12   8 2.12  16 2.12  33 2.12  14 2.12
  51  0.500  0.500  0.550-  19 2.11  17 2.11  32 2.11  16 2.12   9 2.12  15 2.13
  52  0.750  0.000  0.450-  20 2.12   7 2.12  22 2.12  23 2.12  30 2.12  24 2.13
  53  0.000  0.250  0.450-  21 2.12   6 2.12  22 2.12  23 2.12  31 2.12  25 2.13
  54  0.750  0.250  0.351-  22 2.12  20 2.12  21 2.12   5 2.12  28 2.12
  55  0.000  0.000  0.351-  23 2.12  20 2.12  21 2.12   4 2.12  29 2.12
  56  0.750  0.001  0.650-  34 2.11  26 2.11  27 2.12  11 2.12  24 2.14
  57  1.000  0.250  0.651-  10 2.12  27 2.12  26 2.12  35 2.12  25 2.15
  58  0.750  0.250  0.550-  26 2.10  32 2.12  25 2.12   9 2.12  24 2.12  22 2.12
  59  0.000  0.000  0.550-  27 2.11  25 2.12   8 2.12  24 2.12  33 2.12  23 2.12
  60  0.750  0.500  0.450-  28 2.12  22 2.12  15 2.12  30 2.12  31 2.12  32 2.13
  61  0.000  0.750  0.450-  29 2.12  23 2.12  14 2.12  30 2.12  31 2.12  33 2.13
  62  0.750  0.750  0.351-  30 2.12  20 2.12  28 2.12  29 2.12  13 2.12
  63  0.000  0.500  0.351-  31 2.12  21 2.12  28 2.12  29 2.12  12 2.12
  64  0.750  0.500  0.652-  35 2.12  26 2.12  19 2.13  34 2.13  32 2.16
  65  0.001  0.750  0.650-  34 2.11  18 2.11  27 2.12  35 2.12  33 2.14
  66  0.750  0.750  0.550-  34 2.11  17 2.11  32 2.11  24 2.12  33 2.12  30 2.13
  67  1.000  0.500  0.550-  35 2.10  32 2.12  25 2.12  33 2.12  16 2.12  31 2.12


IMPORTANT INFORMATION: All symmetrisations will be switched off!
NOSYMM: (Re-)initialisation of all symmetry stuff for point group C_1.


----------------------------------------------------------------------------------------

                                     Primitive cell                                     

  volume of cell :    1530.6606

  direct lattice vectors                    reciprocal lattice vectors
     8.467142631  0.000000000  0.000000000     0.118103597  0.000000000  0.000000000
     0.000000000  8.467142631  0.000000000     0.000000000  0.118103597  0.000000000
     0.000000000  0.000000000 21.350356973     0.000000000  0.000000000  0.046837624

  length of vectors
     8.467142631  8.467142631 21.350356973     0.118103597  0.118103597  0.046837624

  position of ions in fractional coordinates (direct lattice)
     0.625000781  0.625000788  0.771474314
     0.526655283  0.526655309  0.772804739
     0.723344168  0.723344152  0.772805082
     0.250000000  0.000000000  0.351282183
     0.500000000  0.250000000  0.351282183
     0.250000000  0.250000000  0.450427394
     0.500000000  0.000000000  0.450427394
     0.250078438  0.999921519  0.550068769
     0.499955822  0.249907048  0.550110864
     0.249726458  0.249726458  0.648370669
     0.500077443  0.000346500  0.648346683
     0.250000000  0.500000000  0.351282183
     0.500000000  0.750000000  0.351282183
     0.250000000  0.750000000  0.450427394
     0.500000000  0.500000000  0.450427394
     0.249907049  0.499955821  0.550110863
     0.500313412  0.749686464  0.550371124
     0.249653379  0.749922486  0.648346707
     0.497959788  0.497959785  0.648975368
     0.750000000  0.000000000  0.351282183
     0.000000000  0.250000000  0.351282183
     0.750000000  0.250000000  0.450427394
     0.000000000  0.000000000  0.450427394
     0.750044075  0.000092961  0.550110806
     0.999921518  0.250078438  0.550068769
     0.749922487  0.249653373  0.648346705
     0.000273420  0.000273420  0.648370578
     0.750000000  0.500000000  0.351282183
     0.000000000  0.750000000  0.351282183
     0.750000000  0.750000000  0.450427394
     0.000000000  0.500000000  0.450427394
     0.749686464  0.500313410  0.550371124
     0.000092962  0.750044074  0.550110807
     0.752040199  0.752040199  0.648975102
     0.000346497  0.500077440  0.648346684
     0.250000000  0.000000000  0.450427394
     0.500000000  0.250000000  0.450427394
     0.250000000  0.250000000  0.351282183
     0.500000000  0.000000000  0.351282183
     0.250067555  0.999932327  0.650665711
     0.499768035  0.249268357  0.650289571
     0.249915206  0.249915206  0.549693468
     0.500035371  0.999605497  0.549784276
     0.250000000  0.500000000  0.450427394
     0.500000000  0.750000000  0.450427394
     0.250000000  0.750000000  0.351282183
     0.500000000  0.500000000  0.351282183
     0.249268357  0.499768033  0.650289571
     0.500171478  0.749828496  0.651640008
     0.250394469  0.749964535  0.549784275
     0.500052177  0.500052177  0.550031482
     0.750000000  0.000000000  0.450427394
     0.000000000  0.250000000  0.450427394
     0.750000000  0.250000000  0.351282183
     0.000000000  0.000000000  0.351282183
     0.750231901  0.000731537  0.650289464
     0.999932326  0.250067550  0.650665711
     0.749964536  0.250394465  0.549784274
     0.000084749  0.000084748  0.549693420
     0.750000000  0.500000000  0.450427394
     0.000000000  0.750000000  0.450427394
     0.750000000  0.750000000  0.351282183
     0.000000000  0.500000000  0.351282183
     0.749828500  0.500171477  0.651640006
     0.000731541  0.750231902  0.650289465
     0.749947744  0.749947745  0.550031413
     0.999605497  0.500035370  0.549784276

  ion indices of the primitive-cell ions
   primitive index   ion index
                 1           1
                 2           2
                 3           3
                 4           4
                 5           5
                 6           6
                 7           7
                 8           8
                 9           9
                10          10
                11          11
                12          12
                13          13
                14          14
                15          15
                16          16
                17          17
                18          18
                19          19
                20          20
                21          21
                22          22
                23          23
                24          24
                25          25
                26          26
                27          27
                28          28
                29          29
                30          30
                31          31
                32          32
                33          33
                34          34
                35          35
                36          36
                37          37
                38          38
                39          39
                40          40
                41          41
                42          42
                43          43
                44          44
                45          45
                46          46
                47          47
                48          48
                49          49
                50          50
                51          51
                52          52
                53          53
                54          54
                55          55
                56          56
                57          57
                58          58
                59          59
                60          60
                61          61
                62          62
                63          63
                64          64
                65          65
                66          66
                67          67

----------------------------------------------------------------------------------------



 KPOINTS: pymatgen v2020.8.13 with grid density = 

Automatic generation of k-mesh.
 Grid dimensions read from file:
 generate k-points for:    2    2    1

 Generating k-lattice:

  Cartesian coordinates                     Fractional coordinates (reciprocal lattice)
     0.059051798  0.000000000  0.000000000     0.500000000  0.000000000  0.000000000
     0.000000000  0.059051798  0.000000000     0.000000000  0.500000000  0.000000000
     0.000000000  0.000000000  0.046837624     0.000000000  0.000000000  1.000000000

  Length of vectors
     0.059051798  0.059051798  0.046837624

  Shift w.r.t. Gamma in fractional coordinates (k-lattice)
     0.000000000  0.000000000  0.000000000

 
 Subroutine IBZKPT returns following result:
 ===========================================
 
 Found      4 irreducible k-points:
 
 Following reciprocal coordinates:
            Coordinates               Weight
  0.000000  0.000000  0.000000      1.000000
  0.500000  0.000000  0.000000      1.000000
  0.000000  0.500000  0.000000      1.000000
  0.500000  0.500000  0.000000      1.000000
 
 Following cartesian coordinates:
            Coordinates               Weight
  0.000000  0.000000  0.000000      1.000000
  0.059052  0.000000  0.000000      1.000000
  0.000000  0.059052  0.000000      1.000000
  0.059052  0.059052  0.000000      1.000000
 
 
 Subroutine IBZKPT_HF returns following result:
 ==============================================
 
 Found      4 k-points in 1st BZ
 the following      4 k-points will be used (e.g. in the exchange kernel)
 Following reciprocal coordinates:   # in IRBZ
  0.000000  0.000000  0.000000    0.25000000   1 t-inv F
  0.500000  0.000000  0.000000    0.25000000   2 t-inv F
  0.000000  0.500000  0.000000    0.25000000   3 t-inv F
  0.500000  0.500000  0.000000    0.25000000   4 t-inv F


--------------------------------------------------------------------------------------------------------




 Dimension of arrays:
   k-points           NKPTS =      4   k-points in BZ     NKDIM =      4   number of bands    NBANDS=    384
   number of dos      NEDOS =    301   number of ions     NIONS =     67
   non local maximal  LDIM  =      5   non local SUM 2l+1 LMDIM =     13
   total plane-waves  NPLWV = 882000
   max r-space proj   IRMAX =      1   max aug-charges    IRDMAX=  11554
   dimension x,y,z NGX =    70 NGY =   70 NGZ =  180
   dimension x,y,z NGXF=   140 NGYF=  140 NGZF=  360
   support grid    NGXF=   140 NGYF=  140 NGZF=  360
   ions per type =               1   2  32  32
   NGX,Y,Z   is equivalent  to a cutoff of  13.74, 13.74, 14.02 a.u.
   NGXF,Y,Z  is equivalent  to a cutoff of  27.49, 27.49, 28.03 a.u.

 SYSTEM =  MgO-rocksalt                            
 POSCAR =   C  O Mg  O                             

--------------------------------------------------------------------------------------------------------


  energy-cutoff  :      600.00
  volume of cell :     1530.66
      direct lattice vectors                 reciprocal lattice vectors
     8.467142631  0.000000000  0.000000000     0.118103597  0.000000000  0.000000000
     0.000000000  8.467142631  0.000000000     0.000000000  0.118103597  0.000000000
     0.000000000  0.000000000 21.350356973     0.000000000  0.000000000  0.046837624

  length of vectors
     8.467142631  8.467142631 21.350356973     0.118103597  0.118103597  0.046837624



 k-points in units of 2pi/SCALE and weight: pymatgen v2020.8.13 with grid density = 
   0.00000000  0.00000000  0.00000000       0.250
   0.05905180  0.00000000  0.00000000       0.250
   0.00000000  0.05905180  0.00000000       0.250
   0.05905180  0.05905180  0.00000000       0.250

 k-points in reciprocal lattice and weights: pymatgen v2020.8.13 with grid density = 
   0.00000000  0.00000000  0.00000000       0.250
   0.50000000  0.00000000  0.00000000       0.250
   0.00000000  0.50000000  0.00000000       0.250
   0.50000000  0.50000000  0.00000000       0.250

 position of ions in fractional coordinates (direct lattice) 
   0.62500078  0.62500079  0.77147431
   0.52665528  0.52665531  0.77280474
   0.72334417  0.72334415  0.77280508
   0.25000000  0.00000000  0.35128218
   0.50000000  0.25000000  0.35128218
   0.25000000  0.25000000  0.45042739
   0.50000000  0.00000000  0.45042739
   0.25007844  0.99992152  0.55006877
   0.49995582  0.24990705  0.55011086
   0.24972646  0.24972646  0.64837067
   0.50007744  0.00034650  0.64834668
   0.25000000  0.50000000  0.35128218
   0.50000000  0.75000000  0.35128218
   0.25000000  0.75000000  0.45042739
   0.50000000  0.50000000  0.45042739
   0.24990705  0.49995582  0.55011086
   0.50031341  0.74968646  0.55037112
   0.24965338  0.74992249  0.64834671
   0.49795979  0.49795978  0.64897537
   0.75000000  0.00000000  0.35128218
   0.00000000  0.25000000  0.35128218
   0.75000000  0.25000000  0.45042739
   0.00000000  0.00000000  0.45042739
   0.75004407  0.00009296  0.55011081
   0.99992152  0.25007844  0.55006877
   0.74992249  0.24965337  0.64834670
   0.00027342  0.00027342  0.64837058
   0.75000000  0.50000000  0.35128218
   0.00000000  0.75000000  0.35128218
   0.75000000  0.75000000  0.45042739
   0.00000000  0.50000000  0.45042739
   0.74968646  0.50031341  0.55037112
   0.00009296  0.75004407  0.55011081
   0.75204020  0.75204020  0.64897510
   0.00034650  0.50007744  0.64834668
   0.25000000  0.00000000  0.45042739
   0.50000000  0.25000000  0.45042739
   0.25000000  0.25000000  0.35128218
   0.50000000  0.00000000  0.35128218
   0.25006755  0.99993233  0.65066571
   0.49976803  0.24926836  0.65028957
   0.24991521  0.24991521  0.54969347
   0.50003537  0.99960550  0.54978428
   0.25000000  0.50000000  0.45042739
   0.50000000  0.75000000  0.45042739
   0.25000000  0.75000000  0.35128218
   0.50000000  0.50000000  0.35128218
   0.24926836  0.49976803  0.65028957
   0.50017148  0.74982850  0.65164001
   0.25039447  0.74996453  0.54978428
   0.50005218  0.50005218  0.55003148
   0.75000000  0.00000000  0.45042739
   0.00000000  0.25000000  0.45042739
   0.75000000  0.25000000  0.35128218
   0.00000000  0.00000000  0.35128218
   0.75023190  0.00073154  0.65028946
   0.99993233  0.25006755  0.65066571
   0.74996454  0.25039446  0.54978427
   0.00008475  0.00008475  0.54969342
   0.75000000  0.50000000  0.45042739
   0.00000000  0.75000000  0.45042739
   0.75000000  0.75000000  0.35128218
   0.00000000  0.50000000  0.35128218
   0.74982850  0.50017148  0.65164001
   0.00073154  0.75023190  0.65028946
   0.74994774  0.74994775  0.55003141
   0.99960550  0.50003537  0.54978428

 position of ions in cartesian coordinates  (Angst):
   5.29197076  5.29197081 16.47125200
   4.45926540  4.45926562 16.49965704
   6.12465824  6.12465811 16.49966437
   2.11678566  0.00000000  7.50000000
   4.23357132  2.11678566  7.50000000
   2.11678566  2.11678566  9.61678566
   4.23357132  0.00000000  9.61678566
   2.11744981  8.46647812 11.74416457
   4.23319726  2.11599862 11.74506332
   2.11446954  2.11446954 13.84294523
   4.23422704  0.00293386 13.84243312
   2.11678566  4.23357132  7.50000000
   4.23357132  6.35035697  7.50000000
   2.11678566  6.35035697  9.61678566
   4.23357132  4.23357132  9.61678566
   2.11599862  4.23319725 11.74506331
   4.23622502  6.34770222 11.75061997
   2.11385077  6.34970065 13.84243363
   4.21629655  4.21629652 13.85585578
   6.35035697  0.00000000  7.50000000
   0.00000000  2.11678566  7.50000000
   6.35035697  2.11678566  9.61678566
   0.00000000  0.00000000  9.61678566
   6.35073016  0.00078711 11.74506207
   8.46647811  2.11744980 11.74416459
   6.34970066  2.11385072 13.84243359
   0.00231509  0.00231508 13.84294329
   6.35035697  4.23357132  7.50000000
   0.00000000  6.35035697  7.50000000
   6.35035697  6.35035697  9.61678566
   0.00000000  4.23357132  9.61678566
   6.34770222  4.23622500 11.75061996
   0.00078712  6.35073015 11.74506210
   6.36763163  6.36763163 13.85585010
   0.00293384  4.23422701 13.84243314
   2.11678566  0.00000000  9.61678566
   4.23357132  2.11678566  9.61678566
   2.11678566  2.11678566  7.50000000
   4.23357132  0.00000000  7.50000000
   2.11735765  8.46656963 13.89194519
   4.23160723  2.11059073 13.88391448
   2.11606770  2.11606770 11.73615177
   4.23387080  8.46380232 11.73809056
   2.11678566  4.23357132  9.61678566
   4.23357132  6.35035697  9.61678566
   2.11678566  6.35035697  7.50000000
   4.23357132  4.23357132  7.50000000
   2.11059073  4.23160722 13.88391449
   4.23502324  6.34890483 13.91274679
   2.12012568  6.35005668 11.73809053
   4.23401311  4.23401311 11.74336848
   6.35035697  0.00000000  9.61678566
   0.00000000  2.11678566  9.61678566
   6.35035697  2.11678566  7.50000000
   0.00000000  0.00000000  7.50000000
   6.35232052  0.00619403 13.88391220
   8.46656963  2.11735761 13.89194521
   6.35005669  2.12012565 11.73809051
   0.00071758  0.00071758 11.73615074
   6.35035697  4.23357132  9.61678566
   0.00000000  6.35035697  9.61678566
   6.35035697  6.35035697  7.50000000
   0.00000000  4.23357132  7.50000000
   6.34890486  4.23502323 13.91274674
   0.00619406  6.35232052 13.88391221
   6.34991451  6.34991452 11.74336701
   8.46380232  4.23387080 11.73809055



--------------------------------------------------------------------------------------------------------

--------------------------------------- Iteration      FINAL  ---------------------------------------


--------------------OUTCAR has been truncated-------------------------


--------------------OUTCAR has been truncated-------------------------


--------------------OUTCAR has been truncated-------------------------


--------------------OUTCAR has been truncated-------------------------


--------------------OUTCAR has been truncated-------------------------


--------------------OUTCAR has been truncated-------------------------


--------------------OUTCAR has been truncated-------------------------


--------------------OUTCAR has been truncated-------------------------


--------------------OUTCAR has been truncated-------------------------


--------------------OUTCAR has been truncated-------------------------



 VOLUME and BASIS-vectors are now :
 -----------------------------------------------------------------------------
  energy-cutoff  :      600.00
  volume of cell :     1530.66
      direct lattice vectors                 reciprocal lattice vectors
     8.467142631  0.000000000  0.000000000     0.118103597  0.000000000  0.000000000
     0.000000000  8.467142631  0.000000000     0.000000000  0.118103597  0.000000000
     0.000000000  0.000000000 21.350356973     0.000000000  0.000000000  0.046837624

  length of vectors
     8.467142631  8.467142631 21.350356973     0.118103597  0.118103597  0.046837624


 FORCES acting on ions:
    Electron-Ion                     Ewald-Force                    Non-Local-Force
 -----------------------------------------------------------------------------------------------
   0.582E-02 0.581E-02 -.102E+04   -.744E-02 -.744E-02 0.102E+04   0.917E-04 0.915E-04 0.299E+00
   0.188E+03 0.188E+03 -.155E+04   -.233E+03 -.233E+03 0.155E+04   0.397E+02 0.397E+02 -.250E+01
   -.188E+03 -.188E+03 -.155E+04   0.233E+03 0.233E+03 0.155E+04   -.397E+02 -.397E+02 -.250E+01
   0.163E+00 -.163E+00 0.208E+04   -.162E+00 0.162E+00 -.207E+04   -.612E-03 0.611E-03 -.676E+01
   0.163E+00 0.187E+00 0.208E+04   -.162E+00 -.186E+00 -.207E+04   -.419E-03 -.540E-03 -.675E+01
   0.802E+00 0.802E+00 0.736E+03   -.818E+00 -.818E+00 -.736E+03   0.103E-01 0.103E-01 0.394E+00
   0.823E+00 -.783E+00 0.737E+03   -.834E+00 0.731E+00 -.737E+03   0.709E-02 0.319E-01 0.427E+00
   0.353E+01 -.353E+01 -.605E+03   -.353E+01 0.353E+01 0.605E+03   -.598E-03 0.589E-03 -.211E+00
   0.362E+01 0.628E+01 -.594E+03   -.362E+01 -.626E+01 0.594E+03   -.645E-03 -.194E-01 -.406E+00
   0.188E+02 0.188E+02 -.196E+04   -.188E+02 -.188E+02 0.195E+04   0.294E-01 0.294E-01 0.584E+01
   0.204E+02 -.245E+02 -.194E+04   -.204E+02 0.248E+02 0.193E+04   0.220E-01 -.269E+00 0.583E+01
   0.187E+00 0.163E+00 0.208E+04   -.186E+00 -.162E+00 -.207E+04   -.541E-03 -.422E-03 -.675E+01
   0.191E+00 -.191E+00 0.208E+04   -.189E+00 0.189E+00 -.207E+04   -.129E-02 0.129E-02 -.676E+01
   0.783E+00 -.823E+00 0.737E+03   -.731E+00 0.834E+00 -.737E+03   -.319E-01 -.709E-02 0.427E+00
   0.799E+00 0.799E+00 0.738E+03   -.769E+00 -.769E+00 -.739E+03   -.196E-01 -.196E-01 0.505E+00
   0.628E+01 0.362E+01 -.594E+03   -.626E+01 -.362E+01 0.594E+03   -.194E-01 -.645E-03 -.406E+00
   0.645E+01 -.645E+01 -.589E+03   -.642E+01 0.642E+01 0.589E+03   -.285E-01 0.286E-01 -.209E-02
   0.245E+02 -.204E+02 -.194E+04   -.248E+02 0.204E+02 0.193E+04   0.269E+00 -.220E-01 0.583E+01
   0.341E+02 0.341E+02 -.184E+04   -.346E+02 -.346E+02 0.183E+04   0.446E+00 0.446E+00 0.553E+01
   -.163E+00 -.187E+00 0.208E+04   0.162E+00 0.186E+00 -.207E+04   0.418E-03 0.541E-03 -.675E+01
   -.163E+00 0.163E+00 0.208E+04   0.162E+00 -.162E+00 -.207E+04   0.611E-03 -.610E-03 -.676E+01
   -.823E+00 0.783E+00 0.737E+03   0.834E+00 -.731E+00 -.737E+03   -.709E-02 -.319E-01 0.427E+00
   -.802E+00 -.802E+00 0.736E+03   0.818E+00 0.818E+00 -.736E+03   -.103E-01 -.103E-01 0.394E+00
   -.362E+01 -.628E+01 -.594E+03   0.362E+01 0.626E+01 0.594E+03   0.657E-03 0.194E-01 -.406E+00
   -.353E+01 0.353E+01 -.605E+03   0.353E+01 -.353E+01 0.605E+03   0.588E-03 -.598E-03 -.211E+00
   -.204E+02 0.245E+02 -.194E+04   0.204E+02 -.248E+02 0.193E+04   -.220E-01 0.269E+00 0.583E+01
   -.188E+02 -.188E+02 -.196E+04   0.188E+02 0.188E+02 0.195E+04   -.294E-01 -.294E-01 0.584E+01
   -.191E+00 0.191E+00 0.208E+04   0.189E+00 -.189E+00 -.207E+04   0.129E-02 -.129E-02 -.676E+01
   -.187E+00 -.163E+00 0.208E+04   0.186E+00 0.162E+00 -.207E+04   0.540E-03 0.420E-03 -.675E+01
   -.799E+00 -.799E+00 0.738E+03   0.769E+00 0.769E+00 -.739E+03   0.196E-01 0.196E-01 0.505E+00
   -.783E+00 0.823E+00 0.737E+03   0.731E+00 -.834E+00 -.737E+03   0.319E-01 0.709E-02 0.427E+00
   -.645E+01 0.645E+01 -.589E+03   0.642E+01 -.642E+01 0.589E+03   0.286E-01 -.285E-01 -.209E-02
   -.628E+01 -.362E+01 -.594E+03   0.626E+01 0.362E+01 0.594E+03   0.194E-01 0.655E-03 -.406E+00
   -.341E+02 -.341E+02 -.184E+04   0.346E+02 0.346E+02 0.183E+04   -.446E+00 -.446E+00 0.554E+01
   -.245E+02 0.204E+02 -.194E+04   0.248E+02 -.204E+02 0.193E+04   -.269E+00 0.220E-01 0.583E+01
   0.503E+00 -.503E+00 0.551E+03   -.509E+00 0.509E+00 -.551E+03   0.662E-02 -.663E-02 -.103E+00
   0.500E+00 0.654E+00 0.552E+03   -.499E+00 -.652E+00 -.552E+03   -.853E-03 -.192E-02 -.802E-01
   0.134E+00 0.134E+00 0.156E+04   -.136E+00 -.136E+00 -.156E+04   0.159E-02 0.159E-02 0.303E+01
   0.135E+00 -.128E+00 0.156E+04   -.136E+00 0.125E+00 -.156E+04   0.178E-02 0.434E-02 0.303E+01
   0.954E+01 -.954E+01 -.149E+04   -.950E+01 0.950E+01 0.150E+04   -.374E-01 0.374E-01 -.456E+01
   0.108E+02 0.285E+02 -.146E+04   -.107E+02 -.285E+02 0.147E+04   -.338E-01 0.359E-01 -.465E+01
   0.354E+01 0.354E+01 -.446E+03   -.353E+01 -.353E+01 0.445E+03   -.829E-02 -.829E-02 0.298E+00
   0.363E+01 -.341E+01 -.441E+03   -.363E+01 0.343E+01 0.441E+03   -.713E-02 -.143E-01 0.359E+00
   0.654E+00 0.500E+00 0.552E+03   -.652E+00 -.499E+00 -.552E+03   -.192E-02 -.853E-03 -.802E-01
   0.711E+00 -.711E+00 0.553E+03   -.736E+00 0.736E+00 -.553E+03   0.291E-01 -.291E-01 -.153E+00
   0.128E+00 -.135E+00 0.156E+04   -.124E+00 0.136E+00 -.156E+04   -.434E-02 -.177E-02 0.303E+01
   0.131E+00 0.131E+00 0.156E+04   -.126E+00 -.126E+00 -.157E+04   -.549E-02 -.549E-02 0.303E+01
   0.285E+02 0.108E+02 -.146E+04   -.285E+02 -.107E+02 0.147E+04   0.359E-01 -.338E-01 -.465E+01
   0.356E+02 -.356E+02 -.142E+04   -.355E+02 0.355E+02 0.142E+04   -.594E-01 0.595E-01 -.415E+01
   0.341E+01 -.363E+01 -.441E+03   -.343E+01 0.363E+01 0.441E+03   0.143E-01 0.714E-02 0.359E+00
   0.361E+01 0.361E+01 -.433E+03   -.364E+01 -.364E+01 0.433E+03   0.277E-01 0.277E-01 0.273E+00
   -.500E+00 -.654E+00 0.552E+03   0.499E+00 0.652E+00 -.552E+03   0.848E-03 0.191E-02 -.802E-01
   -.503E+00 0.503E+00 0.551E+03   0.509E+00 -.509E+00 -.551E+03   -.663E-02 0.662E-02 -.103E+00
   -.135E+00 0.128E+00 0.156E+04   0.136E+00 -.124E+00 -.156E+04   -.177E-02 -.434E-02 0.303E+01
   -.134E+00 -.134E+00 0.156E+04   0.136E+00 0.136E+00 -.156E+04   -.159E-02 -.159E-02 0.303E+01
   -.108E+02 -.285E+02 -.146E+04   0.107E+02 0.285E+02 0.147E+04   0.339E-01 -.359E-01 -.465E+01
   -.954E+01 0.954E+01 -.149E+04   0.950E+01 -.950E+01 0.150E+04   0.374E-01 -.374E-01 -.456E+01
   -.363E+01 0.341E+01 -.441E+03   0.363E+01 -.343E+01 0.441E+03   0.714E-02 0.143E-01 0.359E+00
   -.354E+01 -.354E+01 -.446E+03   0.353E+01 0.353E+01 0.445E+03   0.829E-02 0.829E-02 0.298E+00
   -.711E+00 0.711E+00 0.553E+03   0.736E+00 -.736E+00 -.553E+03   -.291E-01 0.291E-01 -.153E+00
   -.654E+00 -.500E+00 0.552E+03   0.652E+00 0.499E+00 -.552E+03   0.192E-02 0.848E-03 -.802E-01
   -.131E+00 -.131E+00 0.156E+04   0.126E+00 0.126E+00 -.157E+04   0.549E-02 0.549E-02 0.303E+01
   -.128E+00 0.135E+00 0.156E+04   0.125E+00 -.136E+00 -.156E+04   0.434E-02 0.177E-02 0.303E+01
   -.356E+02 0.356E+02 -.142E+04   0.355E+02 -.355E+02 0.142E+04   0.595E-01 -.594E-01 -.415E+01
   -.285E+02 -.108E+02 -.146E+04   0.285E+02 0.107E+02 0.147E+04   -.359E-01 0.339E-01 -.465E+01
   -.361E+01 -.361E+01 -.433E+03   0.364E+01 0.364E+01 0.433E+03   -.277E-01 -.277E-01 0.273E+00
   -.341E+01 0.363E+01 -.441E+03   0.343E+01 -.363E+01 0.441E+03   -.143E-01 -.714E-02 0.359E+00
 -----------------------------------------------------------------------------------------------
   0.108E-02 0.107E-02 0.250E+02   0.167E-12 0.316E-12 -.284E-11   -.941E-03 -.934E-03 -.212E+02


 POSITION                                       TOTAL-FORCE (eV/Angst)
 -----------------------------------------------------------------------------------
      5.29197      5.29197     16.47125        -0.001511     -0.001511      0.117965
      4.45927      4.45927     16.49966         1.051552      1.051553     -0.105386
      6.12466      6.12466     16.49966        -1.050053     -1.050054     -0.105353
      2.11679      0.00000      7.50000         0.000235     -0.000236      0.630747
      4.23357      2.11679      7.50000         0.000201      0.000169      0.627804
      2.11679      2.11679      9.61679        -0.004111     -0.004112      0.039293
      4.23357      0.00000      9.61679        -0.002420     -0.014994      0.044033
      2.11745      8.46648     11.74416        -0.000717      0.000711     -0.024179
      4.23320      2.11600     11.74506        -0.000592      0.000977     -0.019815
      2.11447      2.11447     13.84295         0.003193      0.003191     -0.177249
      4.23423      0.00293     13.84243         0.002955      0.003928     -0.178420
      2.11679      4.23357      7.50000         0.000166      0.000201      0.627811
      4.23357      6.35036      7.50000         0.000448     -0.000449      0.632756
      2.11679      6.35036      9.61679         0.014994      0.002416      0.043995
      4.23357      4.23357      9.61679         0.006691      0.006693      0.047772
      2.11600      4.23320     11.74506         0.000973     -0.000592     -0.019816
      4.23623      6.34770     11.75062         0.000665     -0.000702     -0.025819
      2.11385      6.34970     13.84243        -0.003942     -0.002967     -0.178354
      4.21630      4.21630     13.85586        -0.014163     -0.014163     -0.171939
      6.35036      0.00000      7.50000        -0.000202     -0.000168      0.627800
      0.00000      2.11679      7.50000        -0.000236      0.000237      0.630747
      6.35036      2.11679      9.61679         0.002417      0.014994      0.043992
      0.00000      0.00000      9.61679         0.004111      0.004113      0.039330
      6.35073      0.00079     11.74506         0.000589     -0.000962     -0.019818
      8.46648      2.11745     11.74416         0.000710     -0.000720     -0.024181
      6.34970      2.11385     13.84243        -0.002963     -0.003941     -0.178360
      0.00232      0.00232     13.84294        -0.003191     -0.003190     -0.177289
      6.35036      4.23357      7.50000        -0.000446      0.000448      0.632754
      0.00000      6.35036      7.50000        -0.000167     -0.000203      0.627813
      6.35036      6.35036      9.61679        -0.006694     -0.006696      0.047728
      0.00000      4.23357      9.61679        -0.014994     -0.002418      0.044035
      6.34770      4.23622     11.75062        -0.000701      0.000667     -0.025821
      0.00079      6.35073     11.74506        -0.000960      0.000587     -0.019820
      6.36763      6.36763     13.85585         0.014191      0.014190     -0.171984
      0.00293      4.23423     13.84243         0.003930      0.002960     -0.178413
      2.11679      0.00000      9.61679         0.002331     -0.002334      0.044194
      4.23357      2.11679      9.61679         0.000102      0.000021      0.057621
      2.11679      2.11679      7.50000         0.000537      0.000536     -0.372412
      4.23357      0.00000      7.50000         0.000601      0.001495     -0.372869
      2.11736      8.46657     13.89195         0.000627     -0.000627     -0.150360
      4.23161      2.11059     13.88391         0.000227      0.000514     -0.157516
      2.11607      2.11607     11.73615        -0.001166     -0.001163      0.005121
      4.23387      8.46380     11.73809        -0.001079     -0.000748      0.006708
      2.11679      4.23357      9.61679         0.000014      0.000107      0.057616
      4.23357      6.35036      9.61679         0.009307     -0.009312      0.056933
      2.11679      6.35036      7.50000        -0.001497     -0.000604     -0.372817
      4.23357      4.23357      7.50000        -0.001943     -0.001942     -0.373431
      2.11059      4.23161     13.88391         0.000513      0.000229     -0.157519
      4.23502      6.34890     13.91275         0.003801     -0.003778     -0.134581
      2.12013      6.35006     11.73809         0.000767      0.001077      0.006741
      4.23401      4.23401     11.74337         0.001371      0.001374      0.004353
      6.35036      0.00000      9.61679        -0.000104     -0.000019      0.057621
      0.00000      2.11679      9.61679        -0.002333      0.002333      0.044193
      6.35036      2.11679      7.50000        -0.000600     -0.001496     -0.372821
      0.00000      0.00000      7.50000        -0.000539     -0.000539     -0.372457
      6.35232      0.00619     13.88391        -0.000216     -0.000539     -0.157472
      8.46657      2.11736     13.89195        -0.000628      0.000627     -0.150359
      6.35006      2.12013     11.73809         0.001077      0.000765      0.006738
      0.00072      0.00072     11.73615         0.001170      0.001168      0.005139
      6.35036      4.23357      9.61679        -0.009308      0.009310      0.056936
      0.00000      6.35036      9.61679        -0.000016     -0.000109      0.057613
      6.35036      6.35036      7.50000         0.001944      0.001943     -0.373386
      0.00000      4.23357      7.50000         0.001494      0.000603     -0.372862
      6.34890      4.23502     13.91275        -0.003779      0.003801     -0.134580
      0.00619      6.35232     13.88391        -0.000536     -0.000216     -0.157476
      6.34991      6.34991     11.74337        -0.001350     -0.001354      0.004321
      8.46380      4.23387     11.73809        -0.000750     -0.001078      0.006712
 -----------------------------------------------------------------------------------
    total drift:                                0.000003      0.000007      0.011566


--------------------------------------------------------------------------------------------------------



  FREE ENERGIE OF THE ION-ELECTRON SYSTEM (eV)
  ---------------------------------------------------
  free  energy   TOTEN  =      -501.43148007 eV

  energy  without entropy=     -501.43148007  energy(sigma->0) =     -501.43148007



--------------------------------------------------------------------------------------------------------


    POTLOK:  cpu time      0.5026: real time      0.5026


--------------------------------------------------------------------------------------------------------


     LOOP+:  cpu time   2611.8675: real time   2612.5418
    4ORBIT:  cpu time      0.0000: real time      0.0000

 total amount of memory used by VASP MPI-rank0   187489. kBytes
=======================================================================

   base      :      30000. kBytes
   nonl-proj :      17860. kBytes
   fftplans  :       7830. kBytes
   grid      :       8190. kBytes
   one-center:         73. kBytes
   HF        :        101. kBytes
   nonlr-proj:       6882. kBytes
   wavefun   :       3831. kBytes
   fock_wrk  :     112722. kBytes

  
  
 General timing and accounting informations for this job:
 ========================================================
  
                  Total CPU time used (sec):     2677.139
                            User time (sec):     2670.600
                          System time (sec):        6.539
                         Elapsed time (sec):     2703.316
  
                   Maximum memory used (kb):      438348.
                   Average memory used (kb):          N/A
  
                          Minor page faults:       237531
                          Major page faults:           52
                 Voluntary context switches:        25845
