 vasp.6.3.0 20Jan22 (build Aug 21 2024 11:13:42) complex                         
 executed on        HPECrayEX_GCC date 2024.11.26  22:13:17
 running  512 mpi-ranks, with    1 threads/rank
 distrk:  each k-point on  512 cores,    1 groups
 distr:  one band on NCORE=  16 cores,   32 groups


--------------------------------------------------------------------------------------------------------


 INCAR:
   SYSTEM = TiO2
   ISMEAR = 0
   SIGMA = 0.05
   EDIFF = 1E-4
   ALGO = ALL
   ISTART = 0
   IBRION = -1
   NSW = 0
   ISYM = 0
   ISIF = 2
   EDIFFG = -0.01
   DIPOL = 0.5 0.5 0.5
   IDIPOL = 3
   LDIPOL = .TRUE.
   GGA = PE
   IVDW = 21
   ENCUT = 600
   PREC = Accurate
   LASPH = .TRUE.
   LREAL = .FALSE.
   ISPIN = 1
   NELM = 200
   NELMIN = 8
   NCORE = 16
   KPAR = 1
   LWAVE = .FALSE.
   LCHARG = .FALSE.

 POTCAR:    PAW_PBE Ti_pv 07Sep2000               
 POTCAR:    PAW_PBE O 08Apr2002                   
 POTCAR:    PAW_PBE Ti_pv 07Sep2000               
   SHA256 =  f757a1b2c6d082f4c628fa3d987464a8763bf92e53844ac0500b0e2ddc9ce5c0 Ti_pv/POTCAR          
   COPYR  = (c) Copyright 07Sep2000 Georg Kresse                                                    
   COPYR  = This file is part of the software VASP. Any use, copying, and all other rights are regul
   COPYR  = If you do not have a valid VASP license, you may not use, copy or distribute this file. 
   VRHFIN =Ti: d3 s1                                                                                
   LEXCH  = PE                                                                                      
   EATOM  =  1042.5995 eV,   76.6289 Ry                                                             
                                                                                                    
   TITEL  = PAW_PBE Ti_pv 07Sep2000                                                                 
   LULTRA =        F    use ultrasoft PP ?                                                          
   IUNSCR =        1    unscreen: 0-lin 1-nonlin 2-no                                               
   RPACOR =    2.200    partial core radius                                                         
   POMASS =   47.880; ZVAL   =   10.000    mass and valenz                                          
   RCORE  =    2.500    outmost cutoff radius                                                       
   RWIGS  =    2.500; RWIGS  =    1.323    wigner-seitz radius (au A)                               
   ENMAX  =  222.335; ENMIN  =  166.751 eV                                                          
   RCLOC  =    1.701    cutoff for local pot                                                        
   LCOR   =        T    correct aug charges                                                         
   LPAW   =        T    paw PP                                                                      
   EAUG   =  482.848                                                                                
   DEXC   =    0.000                                                                                
   RMAX   =    2.564    core radius for proj-oper                                                   
   RAUG   =    1.300    factor for augmentation sphere                                              
   RDEP   =    2.538    radius for radial grids                                                     
   RDEPT  =    1.952    core radius for aug-charge                                                  
                                                                                                    
   Atomic configuration                                                                             
    8 entries                                                                                       
     n  l   j            E        occ.                                                              
     1  0  0.50     -4865.3608   2.0000                                                             
     2  0  0.50      -533.1368   2.0000                                                             
     2  1  1.50      -440.5031   6.0000                                                             
     3  0  0.50       -59.3186   2.0000                                                             
     3  1  1.50       -35.7012   6.0000                                                             
     3  2  2.50        -1.9157   3.0000                                                             
     4  0  0.50        -3.7291   1.0000                                                             
     4  3  2.50        -1.3606   0.0000                                                             
   Description                                                                                      
     l       E           TYP  RCUT    TYP  RCUT                                                     
     1    -35.7012140     23  2.300                                                                 
     1     -1.3605826     23  2.300                                                                 
     2     -1.9156996     23  2.500                                                                 
     2     -0.4063033     23  2.500                                                                 
     0     -3.7290856     23  2.500                                                                 
     0     20.4087390     23  2.500                                                                 
  local pseudopotential read in
  partial core-charges read in
  partial kinetic energy density read in
  atomic valenz-charges read in
  non local Contribution for L=           1  read in
    real space projection operators read in
  non local Contribution for L=           1  read in
    real space projection operators read in
  non local Contribution for L=           2  read in
    real space projection operators read in
  non local Contribution for L=           2  read in
    real space projection operators read in
  non local Contribution for L=           0  read in
    real space projection operators read in
  non local Contribution for L=           0  read in
    real space projection operators read in
    PAW grid and wavefunctions read in

   number of l-projection  operators is LMAX  =           6
   number of lm-projection operators is LMMAX =          18

 POTCAR:    PAW_PBE O 08Apr2002                   
   SHA256 =  818f92134a0a090dccd8ba1447fa70422a3b330e708bb4f08108d8ae51209ddf O/POTCAR              
   COPYR  = (c) Copyright 08Apr2002 Georg Kresse                                                    
   COPYR  = This file is part of the software VASP. Any use, copying, and all other rights are regul
   COPYR  = If you do not have a valid VASP license, you may not use, copy or distribute this file. 
   VRHFIN =O: s2p4                                                                                  
   LEXCH  = PE                                                                                      
   EATOM  =   432.3788 eV,   31.7789 Ry                                                             
                                                                                                    
   TITEL  = PAW_PBE O 08Apr2002                                                                     
   LULTRA =        F    use ultrasoft PP ?                                                          
   IUNSCR =        1    unscreen: 0-lin 1-nonlin 2-no                                               
   RPACOR =    1.200    partial core radius                                                         
   POMASS =   16.000; ZVAL   =    6.000    mass and valenz                                          
   RCORE  =    1.520    outmost cutoff radius                                                       
   RWIGS  =    1.550; RWIGS  =    0.820    wigner-seitz radius (au A)                               
   ENMAX  =  400.000; ENMIN  =  300.000 eV                                                          
   ICORE  =        2    local potential                                                             
   LCOR   =        T    correct aug charges                                                         
   LPAW   =        T    paw PP                                                                      
   EAUG   =  605.392                                                                                
   DEXC   =    0.000                                                                                
   RMAX   =    1.553    core radius for proj-oper                                                   
   RAUG   =    1.300    factor for augmentation sphere                                              
   RDEP   =    1.550    radius for radial grids                                                     
   RDEPT  =    1.329    core radius for aug-charge                                                  
                                                                                                    
   Atomic configuration                                                                             
    4 entries                                                                                       
     n  l   j            E        occ.                                                              
     1  0  0.50      -514.6923   2.0000                                                             
     2  0  0.50       -23.9615   2.0000                                                             
     2  1  0.50        -9.0305   4.0000                                                             
     3  2  1.50        -9.5241   0.0000                                                             
   Description                                                                                      
     l       E           TYP  RCUT    TYP  RCUT                                                     
     0    -23.9615318     23  1.200                                                                 
     0     -9.5240782     23  1.200                                                                 
     1     -9.0304911     23  1.520                                                                 
     1      8.1634956     23  1.520                                                                 
     2     -9.5240782      7  1.500                                                                 
  local pseudopotential read in
  partial core-charges read in
  partial kinetic energy density read in
  kinetic energy density of atom read in
  atomic valenz-charges read in
  non local Contribution for L=           0  read in
    real space projection operators read in
  non local Contribution for L=           0  read in
    real space projection operators read in
  non local Contribution for L=           1  read in
    real space projection operators read in
  non local Contribution for L=           1  read in
    real space projection operators read in
    PAW grid and wavefunctions read in

   number of l-projection  operators is LMAX  =           4
   number of lm-projection operators is LMMAX =           8

 -----------------------------------------------------------------------------
|                                                                             |
|               ----> ADVICE to this user running VASP <----                  |
|                                                                             |
|     You have a (more or less) 'large supercell' and for larger cells it     |
|     might be more efficient to use real-space projection operators.         |
|     Therefore, try LREAL= Auto in the INCAR file.                           |
|     Mind: For very accurate calculation, you might also keep the            |
|     reciprocal projection scheme (i.e. LREAL=.FALSE.).                      |
|                                                                             |
 -----------------------------------------------------------------------------

  PAW_PBE Ti_pv 07Sep2000               :
 energy of atom  1       EATOM=-1042.5995
 kinetic energy error for atom=    0.0007 (will be added to EATOM!!)
  PAW_PBE O 08Apr2002                   :
 energy of atom  2       EATOM= -432.3788
 kinetic energy error for atom=    0.0168 (will be added to EATOM!!)


 POSCAR: Ti  O
  positions in direct lattice
  No initial velocities read in
 exchange correlation table for  LEXCH =        8
   RHO(1)=    0.500       N(1)  =     2000
   RHO(2)=  100.500       N(2)  =     4000



--------------------------------------------------------------------------------------------------------


 ion  position               nearest neighbor table
   1  0.750  0.625  0.285-  81 1.98 141 1.98  82 1.98 142 1.98 163 2.02  84 2.02  11 3.00  31 3.00

   2  0.000  0.750  0.285-  83 1.98  84 1.98 103 1.98 104 1.98  85 2.02  32 3.00  12 3.00
   3  0.000  0.625  0.393-  85 1.98 145 1.98  86 1.98 146 1.98  87 2.02  88 2.02  13 3.00  33 3.00

   4  0.750  0.750  0.393- 168 1.98 188 1.98  87 1.98 107 1.98  89 2.02  82 2.02  14 3.00  34 3.00

   5  0.750  0.625  0.500-  89 1.98  90 1.98 149 1.98 150 1.98  92 2.02 171 2.02  15 3.00  35 3.00

   6  0.000  0.750  0.500-  91 1.98 111 1.98  92 1.98 112 1.98  86 2.02  93 2.05  16 3.00  36 3.00

   7  0.991  0.625  0.605-  95 1.87  93 1.92 153 1.92 154 2.05  94 2.05  96 2.13  37 3.00  17 3.00

   8  0.743  0.750  0.612-  97 1.88 176 1.93 196 1.93  95 2.07 115 2.07  90 2.17  18 3.00  38 3.00

   9  0.751  0.625  0.722-  98 1.85 158 1.85 100 2.07 179 2.08  97 2.13 157 2.13  19 2.99  39 3.00

  10  0.001  0.750  0.710-  94 1.83 119 1.97  99 1.97 120 1.97 100 1.98  20 2.99  40 3.00
  11  0.750  0.875  0.285-  81 1.98 101 1.98  82 1.98 102 1.98 183 2.02 104 2.02   1 3.00  21 3.00

  12  0.000  0.000  0.285- 103 1.98 104 1.98 123 1.98 124 1.98 105 2.02  22 3.00   2 3.00
  13  0.000  0.875  0.393-  85 1.98 105 1.98  86 1.98 106 1.98 107 2.02 108 2.02   3 3.00  23 3.00

  14  0.750  0.000  0.393- 188 1.98 208 1.98 107 1.98 127 1.98 109 2.02 102 2.02   4 3.00  24 3.00

  15  0.750  0.875  0.500-  89 1.98  90 1.98 109 1.98 110 1.98 112 2.02 191 2.02   5 3.00  25 3.00

  16  0.000  0.000  0.500- 111 1.98 131 1.98 112 1.98 132 1.98 106 2.02 113 2.05   6 3.00  26 3.00

  17  0.991  0.875  0.605- 115 1.87 113 1.92  93 1.92 114 2.05  94 2.05 116 2.13  27 3.00   7 3.00

  18  0.743  0.000  0.612- 117 1.88 216 1.93 196 1.93 115 2.07 135 2.07 110 2.17   8 3.00  28 3.00

  19  0.751  0.875  0.722- 118 1.85  98 1.85 120 2.07 199 2.07 117 2.13  97 2.13   9 2.99  29 3.00

  20  0.001  1.000  0.710- 114 1.83 139 1.97 119 1.97 120 1.98 140 1.98  10 2.99  30 2.99
  21  0.750  0.125  0.285- 101 1.98 121 1.98 102 1.98 122 1.98 203 2.02 124 2.02  11 3.00  31 3.00

  22  0.000  0.250  0.285- 123 1.98 124 1.98 143 1.98 144 1.98 125 2.02  32 3.00  12 3.00
  23  0.000  0.125  0.393- 105 1.98 125 1.98 106 1.98 126 1.98 127 2.02 128 2.02  13 3.00  33 3.00

  24  0.750  0.250  0.393- 208 1.98 228 1.98 127 1.98 147 1.98 129 2.02 122 2.02  14 3.00  34 3.00

  25  0.750  0.125  0.500- 109 1.98 110 1.98 129 1.98 130 1.98 132 2.02 211 2.02  15 3.00  35 3.00

  26  0.000  0.250  0.500- 131 1.98 151 1.98 132 1.98 152 1.98 126 2.02 133 2.05  16 3.00  36 3.00

  27  0.991  0.125  0.605- 135 1.87 133 1.92 113 1.92 134 2.05 114 2.05 136 2.13  17 3.00  37 3.00

  28  0.743  0.250  0.612- 137 1.89 236 1.93 216 1.93 155 2.07 135 2.07 130 2.17  38 3.00  18 3.00

  29  0.751  0.125  0.722- 118 1.85 138 1.85 140 2.07 219 2.07 117 2.13 137 2.13  39 2.99  19 3.00

  30  0.001  0.250  0.710- 134 1.83 139 1.97 159 1.97 140 1.97 160 1.98  20 2.99  40 3.00
  31  0.750  0.375  0.285- 121 1.98 141 1.98 122 1.98 142 1.98 223 2.02 144 2.02   1 3.00  21 3.00

  32  0.000  0.500  0.285-  83 1.98  84 1.98 143 1.98 144 1.98 145 2.02  22 3.00   2 3.00
  33  0.000  0.375  0.393- 125 1.98 145 1.98 126 1.98 146 1.98 147 2.02 148 2.02   3 3.00  23 3.00

  34  0.750  0.500  0.393- 168 1.98 228 1.98  87 1.98 147 1.98 142 2.02 149 2.02   4 3.00  24 3.00

  35  0.750  0.375  0.500- 129 1.98 130 1.98 149 1.98 150 1.98 152 2.02 231 2.02   5 3.00  25 3.00

  36  0.000  0.500  0.500-  91 1.98 151 1.98  92 1.98 152 1.98 146 2.02 153 2.05   6 3.00  26 3.00

  37  0.991  0.375  0.605- 155 1.87 133 1.92 153 1.92 154 2.05 134 2.05 156 2.13   7 3.00  27 3.00

  38  0.743  0.500  0.612- 157 1.88 176 1.93 236 1.93 155 2.07  95 2.07 150 2.17  28 3.00   8 3.00

  39  0.751  0.375  0.722- 138 1.85 158 1.85 160 2.07 239 2.08 137 2.13 157 2.13  29 2.99   9 3.00

  40  0.001  0.500  0.710- 154 1.83 159 1.97  99 1.97 160 1.97 100 1.97  30 3.00  10 3.00
  41  0.250  0.625  0.285- 161 1.98 221 1.98 162 1.98 222 1.98 164 2.02  83 2.02  51 3.00  71 3.00

  42  0.500  0.750  0.285- 163 1.98 164 1.98 183 1.98 184 1.98 165 2.02  72 3.00  52 3.00
  43  0.500  0.625  0.393- 165 1.98 225 1.98 166 1.98 226 1.98 167 2.02 168 2.02  53 3.00  73 3.00

  44  0.250  0.750  0.393- 167 1.98 187 1.98  88 1.98 108 1.98 169 2.02 162 2.02  54 3.00  74 3.00

  45  0.250  0.625  0.500- 169 1.98 170 1.98 229 1.98 230 1.98 172 2.02  91 2.02  55 3.00  75 3.00

  46  0.500  0.750  0.500- 171 1.98 172 1.98 191 1.98 192 1.98 166 2.02 173 2.05  56 3.00  76 3.00

  47  0.491  0.625  0.605- 175 1.87 233 1.92 173 1.92 174 2.05 234 2.05 176 2.13  77 2.99  57 3.00

  48  0.243  0.750  0.612- 177 1.88 116 1.93  96 1.93 175 2.07 195 2.07 170 2.17  58 3.00  78 3.00

  49  0.251  0.625  0.722- 178 1.85 238 1.85 180 2.07  99 2.07 177 2.13 237 2.13  59 2.99  79 3.00

  50  0.501  0.750  0.710- 174 1.83 179 1.97 180 1.97 199 1.97 200 1.98  80 2.99  60 3.00
  51  0.250  0.875  0.285- 161 1.98 181 1.98 162 1.98 182 1.98 184 2.02 103 2.02  41 3.00  61 3.00

  52  0.500  0.000  0.285- 183 1.98 184 1.98 203 1.98 204 1.98 185 2.02  62 3.00  42 3.00
  53  0.500  0.875  0.393- 165 1.98 185 1.98 166 1.98 186 1.98 187 2.02 188 2.02  43 3.00  63 3.00

  54  0.250  0.000  0.393- 187 1.98 207 1.98 108 1.98 128 1.98 189 2.02 182 2.02  44 3.00  64 3.00

  55  0.250  0.875  0.500- 169 1.98 170 1.98 189 1.98 190 1.98 192 2.02 111 2.02  45 3.00  65 3.00

  56  0.500  0.000  0.500- 191 1.98 192 1.98 211 1.98 212 1.98 186 2.02 193 2.05  46 3.00  66 3.00

  57  0.491  0.875  0.605- 195 1.87 173 1.92 193 1.92 174 2.05 194 2.05 196 2.13  47 3.00  67 3.00

  58  0.243  1.000  0.612- 197 1.88 116 1.93 136 1.93 195 2.07 215 2.07 190 2.17  48 3.00  68 3.00

  59  0.251  0.875  0.722- 198 1.85 178 1.85 200 2.07 119 2.08 177 2.13 197 2.13  49 2.99  69 3.00

  60  0.501  0.000  0.710- 194 1.83 199 1.97 219 1.97 220 1.98 200 1.98  70 3.00  50 3.00
  61  0.250  0.125  0.285- 181 1.98 201 1.98 182 1.98 202 1.98 204 2.02 123 2.02  51 3.00  71 3.00

  62  0.500  0.250  0.285- 203 1.98 204 1.98 223 1.98 224 1.98 205 2.02  72 3.00  52 3.00
  63  0.500  0.125  0.393- 185 1.98 205 1.98 186 1.98 206 1.98 207 2.02 208 2.02  53 3.00  73 3.00

  64  0.250  0.250  0.393- 207 1.98 227 1.98 128 1.98 148 1.98 209 2.02 202 2.02  54 3.00  74 3.00

  65  0.250  0.125  0.500- 189 1.98 190 1.98 209 1.98 210 1.98 212 2.02 131 2.02  55 3.00  75 3.00

  66  0.500  0.250  0.500- 211 1.98 212 1.98 231 1.98 232 1.98 206 2.02 213 2.05  56 3.00  76 3.00

  67  0.491  0.125  0.605- 215 1.87 213 1.92 193 1.92 214 2.05 194 2.05 216 2.13  77 3.00  57 3.00

  68  0.243  0.250  0.612- 217 1.88 136 1.93 156 1.93 215 2.07 235 2.07 210 2.17  58 3.00  78 3.00

  69  0.251  0.125  0.722- 198 1.85 218 1.85 220 2.07 139 2.08 197 2.13 217 2.13  79 2.99  59 3.00

  70  0.501  0.250  0.710- 214 1.83 239 1.97 240 1.97 219 1.97 220 1.98  80 2.99  60 3.00
  71  0.250  0.375  0.285- 201 1.98 221 1.98 202 1.98 222 1.98 224 2.02 143 2.02  41 3.00  61 3.00

  72  0.500  0.500  0.285- 163 1.98 164 1.98 223 1.98 224 1.98 225 2.02  62 3.00  42 3.00
  73  0.500  0.375  0.393- 205 1.98 225 1.98 206 1.98 226 1.98 227 2.02 228 2.02  43 3.00  63 3.00

  74  0.250  0.500  0.393- 167 1.98 227 1.98  88 1.98 148 1.98 222 2.02 229 2.02  44 3.00  64 3.00

  75  0.250  0.375  0.500- 209 1.98 210 1.98 229 1.98 230 1.98 232 2.02 151 2.02  45 3.00  65 3.00

  76  0.500  0.500  0.500- 171 1.98 172 1.98 231 1.98 232 1.98 226 2.02 233 2.05  46 3.00  66 3.00

  77  0.491  0.375  0.605- 235 1.87 233 1.92 213 1.92 214 2.05 234 2.05 236 2.13  47 2.99  67 3.00

  78  0.243  0.500  0.612- 237 1.88  96 1.93 156 1.93 175 2.07 235 2.07 230 2.17  48 3.00  68 3.00

  79  0.251  0.375  0.722- 218 1.85 238 1.85 240 2.07 159 2.07 217 2.13 237 2.13  69 2.99  49 3.00

  80  0.501  0.500  0.710- 234 1.84 239 1.97 179 1.97 180 1.98 240 1.98  50 2.99  70 2.99
  81  0.750  0.750  0.243-   1 1.98  11 1.98
  82  0.750  0.750  0.327-   1 1.98  11 1.98   4 2.02
  83  0.098  0.625  0.285-   2 1.98  32 1.98  41 2.02
  84  0.902  0.625  0.285-   2 1.98  32 1.98   1 2.02
  85  0.000  0.750  0.351-   3 1.98  13 1.98   2 2.02
  86  0.000  0.750  0.434-   3 1.98  13 1.98   6 2.02
  87  0.848  0.625  0.393-   4 1.98  34 1.98   3 2.02
  88  0.152  0.625  0.393-  44 1.98  74 1.98   3 2.02
  89  0.750  0.750  0.458-   5 1.98  15 1.98   4 2.02
  90  0.750  0.750  0.542-   5 1.98  15 1.98   8 2.17
  91  0.098  0.625  0.500-   6 1.98  36 1.98  45 2.02
  92  0.902  0.625  0.500-   6 1.98  36 1.98   5 2.02
  93  0.000  0.750  0.566-  17 1.92   7 1.92   6 2.05
  94  0.000  0.750  0.651-  10 1.83  17 2.05   7 2.05
  95  0.850  0.625  0.608-   7 1.87   8 2.07  38 2.07
  96  0.151  0.625  0.608-  78 1.93  48 1.93   7 2.13
  97  0.750  0.750  0.673-   8 1.88   9 2.13  19 2.13
  98  0.751  0.750  0.758-   9 1.85  19 1.85
  99  0.094  0.625  0.721-  40 1.97  10 1.97  49 2.07
 100  0.907  0.625  0.721-  40 1.97  10 1.98   9 2.07
 101  0.750  0.000  0.243-  11 1.98  21 1.98
 102  0.750  0.000  0.327-  11 1.98  21 1.98  14 2.02
 103  0.098  0.875  0.285-   2 1.98  12 1.98  51 2.02
 104  0.902  0.875  0.285-   2 1.98  12 1.98  11 2.02
 105  0.000  0.000  0.351-  13 1.98  23 1.98  12 2.02
 106  0.000  0.000  0.434-  13 1.98  23 1.98  16 2.02
 107  0.848  0.875  0.393-   4 1.98  14 1.98  13 2.02
 108  0.152  0.875  0.393-  44 1.98  54 1.98  13 2.02
 109  0.750  0.000  0.458-  15 1.98  25 1.98  14 2.02
 110  0.750  0.000  0.542-  15 1.98  25 1.98  18 2.17
 111  0.098  0.875  0.500-   6 1.98  16 1.98  55 2.02
 112  0.902  0.875  0.500-   6 1.98  16 1.98  15 2.02
 113  0.000  1.000  0.566-  27 1.92  17 1.92  16 2.05
 114  0.000  1.000  0.651-  20 1.83  17 2.05  27 2.05
 115  0.850  0.875  0.608-  17 1.87  18 2.07   8 2.07
 116  0.151  0.875  0.608-  58 1.93  48 1.93  17 2.13
 117  0.750  1.000  0.673-  18 1.88  19 2.13  29 2.13
 118  0.751  0.000  0.758-  19 1.85  29 1.85
 119  0.094  0.875  0.721-  10 1.97  20 1.97  59 2.08
 120  0.907  0.875  0.721-  10 1.97  20 1.98  19 2.07
 121  0.750  0.250  0.243-  21 1.98  31 1.98
 122  0.750  0.250  0.327-  21 1.98  31 1.98  24 2.02
 123  0.098  0.125  0.285-  12 1.98  22 1.98  61 2.02
 124  0.902  0.125  0.285-  12 1.98  22 1.98  21 2.02
 125  0.000  0.250  0.351-  23 1.98  33 1.98  22 2.02
 126  0.000  0.250  0.434-  23 1.98  33 1.98  26 2.02
 127  0.848  0.125  0.393-  14 1.98  24 1.98  23 2.02
 128  0.152  0.125  0.393-  54 1.98  64 1.98  23 2.02
 129  0.750  0.250  0.458-  25 1.98  35 1.98  24 2.02
 130  0.750  0.250  0.542-  25 1.98  35 1.98  28 2.17
 131  0.098  0.125  0.500-  16 1.98  26 1.98  65 2.02
 132  0.902  0.125  0.500-  16 1.98  26 1.98  25 2.02
 133  0.000  0.250  0.566-  27 1.92  37 1.92  26 2.05
 134  0.000  0.250  0.651-  30 1.83  37 2.05  27 2.05
 135  0.850  0.125  0.608-  27 1.87  18 2.07  28 2.07
 136  0.151  0.125  0.608-  68 1.93  58 1.93  27 2.13
 137  0.750  0.250  0.673-  28 1.89  39 2.13  29 2.13
 138  0.751  0.250  0.758-  39 1.85  29 1.85
 139  0.094  0.125  0.721-  30 1.97  20 1.97  69 2.08
 140  0.907  0.125  0.721-  30 1.97  20 1.98  29 2.07
 141  0.750  0.500  0.243-   1 1.98  31 1.98
 142  0.750  0.500  0.327-   1 1.98  31 1.98  34 2.02
 143  0.098  0.375  0.285-  22 1.98  32 1.98  71 2.02
 144  0.902  0.375  0.285-  22 1.98  32 1.98  31 2.02
 145  0.000  0.500  0.351-   3 1.98  33 1.98  32 2.02
 146  0.000  0.500  0.434-   3 1.98  33 1.98  36 2.02
 147  0.848  0.375  0.393-  24 1.98  34 1.98  33 2.02
 148  0.152  0.375  0.393-  64 1.98  74 1.98  33 2.02
 149  0.750  0.500  0.458-   5 1.98  35 1.98  34 2.02
 150  0.750  0.500  0.542-   5 1.98  35 1.98  38 2.17
 151  0.098  0.375  0.500-  26 1.98  36 1.98  75 2.02
 152  0.902  0.375  0.500-  26 1.98  36 1.98  35 2.02
 153  0.000  0.500  0.566-   7 1.92  37 1.92  36 2.05
 154  0.000  0.500  0.651-  40 1.83  37 2.05   7 2.05
 155  0.850  0.375  0.608-  37 1.87  28 2.07  38 2.07
 156  0.151  0.375  0.608-  68 1.93  78 1.93  37 2.13
 157  0.751  0.500  0.673-  38 1.88   9 2.13  39 2.13
 158  0.750  0.500  0.757-  39 1.85   9 1.85
 159  0.094  0.375  0.721-  40 1.97  30 1.97  79 2.07
 160  0.907  0.375  0.721-  40 1.97  30 1.98  39 2.07
 161  0.250  0.750  0.243-  41 1.98  51 1.98
 162  0.250  0.750  0.327-  41 1.98  51 1.98  44 2.02
 163  0.598  0.625  0.285-  42 1.98  72 1.98   1 2.02
 164  0.402  0.625  0.285-  42 1.98  72 1.98  41 2.02
 165  0.500  0.750  0.351-  43 1.98  53 1.98  42 2.02
 166  0.500  0.750  0.434-  43 1.98  53 1.98  46 2.02
 167  0.348  0.625  0.393-  44 1.98  74 1.98  43 2.02
 168  0.652  0.625  0.393-   4 1.98  34 1.98  43 2.02
 169  0.250  0.750  0.458-  45 1.98  55 1.98  44 2.02
 170  0.250  0.750  0.542-  45 1.98  55 1.98  48 2.17
 171  0.598  0.625  0.500-  46 1.98  76 1.98   5 2.02
 172  0.402  0.625  0.500-  46 1.98  76 1.98  45 2.02
 173  0.500  0.750  0.566-  57 1.92  47 1.92  46 2.05
 174  0.500  0.750  0.650-  50 1.83  57 2.05  47 2.05
 175  0.350  0.625  0.608-  47 1.87  78 2.07  48 2.07
 176  0.651  0.625  0.609-   8 1.93  38 1.93  47 2.13
 177  0.250  0.750  0.673-  48 1.88  49 2.13  59 2.13
 178  0.251  0.750  0.758-  49 1.85  59 1.85
 179  0.595  0.625  0.720-  50 1.97  80 1.97   9 2.08
 180  0.407  0.625  0.721-  50 1.97  80 1.98  49 2.07
 181  0.250  0.000  0.243-  51 1.98  61 1.98
 182  0.250  0.000  0.327-  51 1.98  61 1.98  54 2.02
 183  0.598  0.875  0.285-  42 1.98  52 1.98  11 2.02
 184  0.402  0.875  0.285-  42 1.98  52 1.98  51 2.02
 185  0.500  0.000  0.351-  53 1.98  63 1.98  52 2.02
 186  0.500  0.000  0.434-  53 1.98  63 1.98  56 2.02
 187  0.348  0.875  0.393-  44 1.98  54 1.98  53 2.02
 188  0.652  0.875  0.393-   4 1.98  14 1.98  53 2.02
 189  0.250  0.000  0.458-  55 1.98  65 1.98  54 2.02
 190  0.250  0.000  0.542-  55 1.98  65 1.98  58 2.17
 191  0.598  0.875  0.500-  46 1.98  56 1.98  15 2.02
 192  0.402  0.875  0.500-  46 1.98  56 1.98  55 2.02
 193  0.500  0.000  0.566-  57 1.92  67 1.92  56 2.05
 194  0.500  0.000  0.650-  60 1.83  67 2.05  57 2.05
 195  0.350  0.875  0.608-  57 1.87  48 2.07  58 2.07
 196  0.651  0.875  0.608-   8 1.93  18 1.93  57 2.13
 197  0.250  1.000  0.673-  58 1.88  69 2.13  59 2.13
 198  0.251  0.000  0.758-  69 1.85  59 1.85
 199  0.594  0.875  0.721-  60 1.97  50 1.97  19 2.07
 200  0.407  0.875  0.721-  60 1.98  50 1.98  59 2.07
 201  0.250  0.250  0.243-  61 1.98  71 1.98
 202  0.250  0.250  0.327-  61 1.98  71 1.98  64 2.02
 203  0.598  0.125  0.285-  52 1.98  62 1.98  21 2.02
 204  0.402  0.125  0.285-  52 1.98  62 1.98  61 2.02
 205  0.500  0.250  0.351-  63 1.98  73 1.98  62 2.02
 206  0.500  0.250  0.434-  63 1.98  73 1.98  66 2.02
 207  0.348  0.125  0.393-  54 1.98  64 1.98  63 2.02
 208  0.652  0.125  0.393-  14 1.98  24 1.98  63 2.02
 209  0.250  0.250  0.458-  65 1.98  75 1.98  64 2.02
 210  0.250  0.250  0.542-  65 1.98  75 1.98  68 2.17
 211  0.598  0.125  0.500-  56 1.98  66 1.98  25 2.02
 212  0.402  0.125  0.500-  56 1.98  66 1.98  65 2.02
 213  0.500  0.250  0.566-  67 1.92  77 1.92  66 2.05
 214  0.500  0.250  0.650-  70 1.83  67 2.05  77 2.05
 215  0.350  0.125  0.608-  67 1.87  68 2.07  58 2.07
 216  0.651  0.125  0.608-  28 1.93  18 1.93  67 2.13
 217  0.250  0.250  0.673-  68 1.88  79 2.13  69 2.13
 218  0.251  0.250  0.758-  79 1.85  69 1.85
 219  0.594  0.125  0.721-  60 1.97  70 1.97  29 2.07
 220  0.407  0.125  0.721-  60 1.98  70 1.98  69 2.07
 221  0.250  0.500  0.243-  41 1.98  71 1.98
 222  0.250  0.500  0.327-  41 1.98  71 1.98  74 2.02
 223  0.598  0.375  0.285-  62 1.98  72 1.98  31 2.02
 224  0.402  0.375  0.285-  62 1.98  72 1.98  71 2.02
 225  0.500  0.500  0.351-  43 1.98  73 1.98  72 2.02
 226  0.500  0.500  0.434-  43 1.98  73 1.98  76 2.02
 227  0.348  0.375  0.393-  64 1.98  74 1.98  73 2.02
 228  0.652  0.375  0.393-  24 1.98  34 1.98  73 2.02
 229  0.250  0.500  0.458-  45 1.98  75 1.98  74 2.02
 230  0.250  0.500  0.542-  45 1.98  75 1.98  78 2.17
 231  0.598  0.375  0.500-  66 1.98  76 1.98  35 2.02
 232  0.402  0.375  0.500-  66 1.98  76 1.98  75 2.02
 233  0.500  0.500  0.566-  47 1.92  77 1.92  76 2.05
 234  0.500  0.500  0.651-  80 1.84  47 2.05  77 2.05
 235  0.350  0.375  0.608-  77 1.87  78 2.07  68 2.07
 236  0.651  0.375  0.609-  28 1.93  38 1.93  77 2.13
 237  0.250  0.500  0.673-  78 1.88  79 2.13  49 2.13
 238  0.251  0.500  0.757-  49 1.85  79 1.85
 239  0.595  0.375  0.720-  70 1.97  80 1.97  39 2.08
 240  0.407  0.375  0.721-  70 1.97  80 1.98  79 2.07


IMPORTANT INFORMATION: All symmetrisations will be switched off!
NOSYMM: (Re-)initialisation of all symmetry stuff for point group C_1.


----------------------------------------------------------------------------------------

                                     Primitive cell                                     

  volume of cell :    4896.0359

  direct lattice vectors                    reciprocal lattice vectors
    13.251808214  0.000000000  0.000000000     0.075461400  0.000000000  0.000000000
     0.000000000 11.981455428  0.000000000     0.000000000  0.083462314  0.000000000
     0.000000000  0.000000000 30.836130416     0.000000000  0.000000000  0.032429491

  length of vectors
    13.251808214 11.981455428 30.836130416     0.075461400  0.083462314  0.032429491

  position of ions in fractional coordinates (direct lattice)
     0.750000000  0.625000000  0.285125305
     0.000000000  0.750000000  0.285125305
     0.000000000  0.625000000  0.392562653
     0.750000000  0.750000000  0.392562653
     0.750000000  0.625000000  0.500000000
     0.000000000  0.750000000  0.500000000
     0.990932344  0.625002191  0.605209158
     0.743086550  0.749998349  0.612116716
     0.751148301  0.625051807  0.722306713
     0.000924413  0.750079674  0.709994613
     0.750000000  0.875000000  0.285125305
     0.000000000  0.000000000  0.285125305
     0.000000000  0.875000000  0.392562653
     0.750000000  0.000000000  0.392562653
     0.750000000  0.875000000  0.500000000
     0.000000000  0.000000000  0.500000000
     0.990878202  0.875007317  0.605232593
     0.743084779  0.000000903  0.612149048
     0.750908904  0.875006372  0.722398350
     0.000906260  0.999998555  0.709992264
     0.750000000  0.125000000  0.285125305
     0.000000000  0.250000000  0.285125305
     0.000000000  0.125000000  0.392562653
     0.750000000  0.250000000  0.392562653
     0.750000000  0.125000000  0.500000000
     0.000000000  0.250000000  0.500000000
     0.990916560  0.124992526  0.605223352
     0.743101567  0.250003959  0.612112826
     0.750888366  0.125002969  0.722393370
     0.000886714  0.249922458  0.709991538
     0.750000000  0.375000000  0.285125305
     0.000000000  0.500000000  0.285125305
     0.000000000  0.375000000  0.392562653
     0.750000000  0.500000000  0.392562653
     0.750000000  0.375000000  0.500000000
     0.000000000  0.500000000  0.500000000
     0.990945430  0.374998044  0.605215814
     0.743096869  0.499994210  0.612116449
     0.751106298  0.374966770  0.722310844
     0.000909408  0.499996627  0.709987013
     0.250000000  0.625000000  0.285125305
     0.500000000  0.750000000  0.285125305
     0.500000000  0.625000000  0.392562653
     0.250000000  0.750000000  0.392562653
     0.250000000  0.625000000  0.500000000
     0.500000000  0.750000000  0.500000000
     0.490870903  0.624902511  0.605334639
     0.243056090  0.750017780  0.612122656
     0.250918478  0.625042474  0.722309720
     0.500931531  0.749928255  0.709942426
     0.250000000  0.875000000  0.285125305
     0.500000000  0.000000000  0.285125305
     0.500000000  0.875000000  0.392562653
     0.250000000  0.000000000  0.392562653
     0.250000000  0.875000000  0.500000000
     0.500000000  0.000000000  0.500000000
     0.490896786  0.874947473  0.605168042
     0.243090232  0.999990643  0.612154563
     0.251152116  0.874985819  0.722409094
     0.500924026  0.000002651  0.709954657
     0.250000000  0.125000000  0.285125305
     0.500000000  0.250000000  0.285125305
     0.500000000  0.125000000  0.392562653
     0.250000000  0.250000000  0.392562653
     0.250000000  0.125000000  0.500000000
     0.500000000  0.250000000  0.500000000
     0.490891283  0.125054796  0.605174183
     0.243036694  0.249977290  0.612109086
     0.251123209  0.124996931  0.722400275
     0.500904457  0.250067563  0.709939139
     0.250000000  0.375000000  0.285125305
     0.500000000  0.500000000  0.285125305
     0.500000000  0.375000000  0.392562653
     0.250000000  0.500000000  0.392562653
     0.250000000  0.375000000  0.500000000
     0.500000000  0.500000000  0.500000000
     0.490879606  0.375092862  0.605323386
     0.243041271  0.500012584  0.612116556
     0.250885866  0.374941527  0.722290835
     0.500903301  0.500000973  0.710270258
     0.750000000  0.750000000  0.243221179
     0.750000000  0.750000000  0.327029432
     0.097508286  0.625000000  0.285125305
     0.902491714  0.625000000  0.285125305
     0.000000000  0.750000000  0.350658526
     0.000000000  0.750000000  0.434466779
     0.847508286  0.625000000  0.392562653
     0.152491714  0.625000000  0.392562653
     0.750000000  0.750000000  0.458095874
     0.750000000  0.750000000  0.541904126
     0.097508286  0.625000000  0.500000000
     0.902491714  0.625000000  0.500000000
     0.000065426  0.750042447  0.566391601
     0.000174376  0.750013058  0.650535967
     0.850121687  0.625027441  0.608006116
     0.151199284  0.625021175  0.608429793
     0.750466214  0.750038299  0.673161832
     0.750616007  0.749918334  0.757525382
     0.094397859  0.624976324  0.720748792
     0.907075871  0.624986183  0.720827627
     0.750000000  0.000000000  0.243221179
     0.750000000  0.000000000  0.327029432
     0.097508286  0.875000000  0.285125305
     0.902491714  0.875000000  0.285125305
     0.000000000  0.000000000  0.350658526
     0.000000000  0.000000000  0.434466779
     0.847508286  0.875000000  0.392562653
     0.152491714  0.875000000  0.392562653
     0.750000000  0.000000000  0.458095874
     0.750000000  0.000000000  0.541904126
     0.097508286  0.875000000  0.500000000
     0.902491714  0.875000000  0.500000000
     0.000051752  0.999990507  0.566400077
     0.000186451  0.999981775  0.650533689
     0.850057295  0.875064367  0.608040877
     0.151248167  0.875030050  0.608472077
     0.750196109  0.999988403  0.673201127
     0.750822074  0.000005261  0.757546305
     0.094430042  0.874985829  0.720710364
     0.907037475  0.874988472  0.720792848
     0.750000000  0.250000000  0.243221179
     0.750000000  0.250000000  0.327029432
     0.097508286  0.125000000  0.285125305
     0.902491714  0.125000000  0.285125305
     0.000000000  0.250000000  0.350658526
     0.000000000  0.250000000  0.434466779
     0.847508286  0.125000000  0.392562653
     0.152491714  0.125000000  0.392562653
     0.750000000  0.250000000  0.458095874
     0.750000000  0.250000000  0.541904126
     0.097508286  0.125000000  0.500000000
     0.902491714  0.125000000  0.500000000
     0.000070389  0.249970640  0.566390211
     0.000200956  0.250003884  0.650530507
     0.850078659  0.124935014  0.608044003
     0.151224269  0.124961431  0.608460920
     0.750449805  0.249975482  0.673161525
     0.750628904  0.250085782  0.757522851
     0.094418854  0.125016600  0.720708342
     0.907028173  0.125013409  0.720777029
     0.750000000  0.500000000  0.243221179
     0.750000000  0.500000000  0.327029432
     0.097508286  0.375000000  0.285125305
     0.902491714  0.375000000  0.285125305
     0.000000000  0.500000000  0.350658526
     0.000000000  0.500000000  0.434466779
     0.847508286  0.375000000  0.392562653
     0.152491714  0.375000000  0.392562653
     0.750000000  0.500000000  0.458095874
     0.750000000  0.500000000  0.541904126
     0.097508286  0.375000000  0.500000000
     0.902491714  0.375000000  0.500000000
     0.000078585  0.499995687  0.566371125
     0.000185975  0.499997404  0.650525333
     0.850113721  0.374979280  0.608000782
     0.151212840  0.374989152  0.608423927
     0.750654124  0.500005305  0.673135299
     0.750445233  0.500012287  0.757489740
     0.094387632  0.375014631  0.720747900
     0.907065508  0.375013445  0.720821509
     0.250000000  0.750000000  0.243221179
     0.250000000  0.750000000  0.327029432
     0.597508286  0.625000000  0.285125305
     0.402491714  0.625000000  0.285125305
     0.500000000  0.750000000  0.350658526
     0.500000000  0.750000000  0.434466779
     0.347508286  0.625000000  0.392562653
     0.652491714  0.625000000  0.392562653
     0.250000000  0.750000000  0.458095874
     0.250000000  0.750000000  0.541904126
     0.597508286  0.625000000  0.500000000
     0.402491714  0.625000000  0.500000000
     0.500038161  0.749858204  0.566394185
     0.500200066  0.750127271  0.650488283
     0.350013714  0.624996528  0.608086207
     0.651294001  0.624992074  0.608512837
     0.250106033  0.750050494  0.673167370
     0.250838294  0.749913645  0.757531096
     0.594549822  0.625245146  0.720441653
     0.406918048  0.625252140  0.720550996
     0.250000000  0.000000000  0.243221179
     0.250000000  0.000000000  0.327029432
     0.597508286  0.875000000  0.285125305
     0.402491714  0.875000000  0.285125305
     0.500000000  0.000000000  0.350658526
     0.500000000  0.000000000  0.434466779
     0.347508286  0.875000000  0.392562653
     0.652491714  0.875000000  0.392562653
     0.250000000  0.000000000  0.458095874
     0.250000000  0.000000000  0.541904126
     0.597508286  0.875000000  0.500000000
     0.402491714  0.875000000  0.500000000
     0.500075511  0.000002700  0.566351897
     0.500205556  0.000009034  0.650498965
     0.350057945  0.874983338  0.608038488
     0.651244891  0.874984758  0.608465663
     0.250347503  0.999991110  0.673188221
     0.250655307  0.000001821  0.757544563
     0.594440540  0.875060267  0.720717446
     0.407012068  0.875059586  0.720786696
     0.250000000  0.250000000  0.243221179
     0.250000000  0.250000000  0.327029432
     0.597508286  0.125000000  0.285125305
     0.402491714  0.125000000  0.285125305
     0.500000000  0.250000000  0.350658526
     0.500000000  0.250000000  0.434466779
     0.347508286  0.125000000  0.392562653
     0.652491714  0.125000000  0.392562653
     0.250000000  0.250000000  0.458095874
     0.250000000  0.250000000  0.541904126
     0.597508286  0.125000000  0.500000000
     0.402491714  0.125000000  0.500000000
     0.500039645  0.250130272  0.566388743
     0.500234599  0.249854341  0.650480197
     0.350040979  0.125017163  0.608030899
     0.651279224  0.125013494  0.608458137
     0.250082031  0.249938706  0.673154928
     0.250855143  0.250080979  0.757517975
     0.594438270  0.124948927  0.720719837
     0.407011462  0.124943360  0.720783933
     0.250000000  0.500000000  0.243221179
     0.250000000  0.500000000  0.327029432
     0.597508286  0.375000000  0.285125305
     0.402491714  0.375000000  0.285125305
     0.500000000  0.500000000  0.350658526
     0.500000000  0.500000000  0.434466779
     0.347508286  0.375000000  0.392562653
     0.652491714  0.375000000  0.392562653
     0.250000000  0.500000000  0.458095874
     0.250000000  0.500000000  0.541904126
     0.597508286  0.375000000  0.500000000
     0.402491714  0.375000000  0.500000000
     0.500046012  0.500010540  0.566460351
     0.500163320  0.500014539  0.650687871
     0.350027162  0.375002335  0.608086417
     0.651290292  0.374996262  0.608500671
     0.249918484  0.500015203  0.673143834
     0.251009770  0.499980033  0.757471361
     0.594522174  0.374761854  0.720469472
     0.406893976  0.374729164  0.720511087

  ion indices of the primitive-cell ions
   primitive index   ion index
                 1           1
                 2           2
                 3           3
                 4           4
                 5           5
                 6           6
                 7           7
                 8           8
                 9           9
                10          10
                11          11
                12          12
                13          13
                14          14
                15          15
                16          16
                17          17
                18          18
                19          19
                20          20
                21          21
                22          22
                23          23
                24          24
                25          25
                26          26
                27          27
                28          28
                29          29
                30          30
                31          31
                32          32
                33          33
                34          34
                35          35
                36          36
                37          37
                38          38
                39          39
                40          40
                41          41
                42          42
                43          43
                44          44
                45          45
                46          46
                47          47
                48          48
                49          49
                50          50
                51          51
                52          52
                53          53
                54          54
                55          55
                56          56
                57          57
                58          58
                59          59
                60          60
                61          61
                62          62
                63          63
                64          64
                65          65
                66          66
                67          67
                68          68
                69          69
                70          70
                71          71
                72          72
                73          73
                74          74
                75          75
                76          76
                77          77
                78          78
                79          79
                80          80
                81          81
                82          82
                83          83
                84          84
                85          85
                86          86
                87          87
                88          88
                89          89
                90          90
                91          91
                92          92
                93          93
                94          94
                95          95
                96          96
                97          97
                98          98
                99          99
               100         100
               101         101
               102         102
               103         103
               104         104
               105         105
               106         106
               107         107
               108         108
               109         109
               110         110
               111         111
               112         112
               113         113
               114         114
               115         115
               116         116
               117         117
               118         118
               119         119
               120         120
               121         121
               122         122
               123         123
               124         124
               125         125
               126         126
               127         127
               128         128
               129         129
               130         130
               131         131
               132         132
               133         133
               134         134
               135         135
               136         136
               137         137
               138         138
               139         139
               140         140
               141         141
               142         142
               143         143
               144         144
               145         145
               146         146
               147         147
               148         148
               149         149
               150         150
               151         151
               152         152
               153         153
               154         154
               155         155
               156         156
               157         157
               158         158
               159         159
               160         160
               161         161
               162         162
               163         163
               164         164
               165         165
               166         166
               167         167
               168         168
               169         169
               170         170
               171         171
               172         172
               173         173
               174         174
               175         175
               176         176
               177         177
               178         178
               179         179
               180         180
               181         181
               182         182
               183         183
               184         184
               185         185
               186         186
               187         187
               188         188
               189         189
               190         190
               191         191
               192         192
               193         193
               194         194
               195         195
               196         196
               197         197
               198         198
               199         199
               200         200
               201         201
               202         202
               203         203
               204         204
               205         205
               206         206
               207         207
               208         208
               209         209
               210         210
               211         211
               212         212
               213         213
               214         214
               215         215
               216         216
               217         217
               218         218
               219         219
               220         220
               221         221
               222         222
               223         223
               224         224
               225         225
               226         226
               227         227
               228         228
               229         229
               230         230
               231         231
               232         232
               233         233
               234         234
               235         235
               236         236
               237         237
               238         238
               239         239
               240         240

----------------------------------------------------------------------------------------



 KPOINTS: pymatgen v2020.8.13 with grid density = 

Automatic generation of k-mesh.
 Grid dimensions read from file:
 generate k-points for:    2    2    1

 Generating k-lattice:

  Cartesian coordinates                     Fractional coordinates (reciprocal lattice)
     0.037730700  0.000000000  0.000000000     0.500000000  0.000000000  0.000000000
     0.000000000  0.041731157  0.000000000     0.000000000  0.500000000  0.000000000
     0.000000000  0.000000000  0.032429491     0.000000000  0.000000000  1.000000000

  Length of vectors
     0.037730700  0.041731157  0.032429491

  Shift w.r.t. Gamma in fractional coordinates (k-lattice)
     0.000000000  0.000000000  0.000000000

 
 Subroutine IBZKPT returns following result:
 ===========================================
 
 Found      4 irreducible k-points:
 
 Following reciprocal coordinates:
            Coordinates               Weight
  0.000000  0.000000  0.000000      1.000000
  0.500000  0.000000  0.000000      1.000000
  0.000000  0.500000  0.000000      1.000000
  0.500000  0.500000  0.000000      1.000000
 
 Following cartesian coordinates:
            Coordinates               Weight
  0.000000  0.000000  0.000000      1.000000
  0.037731  0.000000  0.000000      1.000000
  0.000000  0.041731  0.000000      1.000000
  0.037731  0.041731  0.000000      1.000000
 


--------------------------------------------------------------------------------------------------------




 Dimension of arrays:
   k-points           NKPTS =      4   k-points in BZ     NKDIM =      4   number of bands    NBANDS=   1056
   number of dos      NEDOS =    301   number of ions     NIONS =    240
   non local maximal  LDIM  =      6   non local SUM 2l+1 LMDIM =     18
   total plane-waves  NPLWV = ******
   max r-space proj   IRMAX =      1   max aug-charges    IRDMAX=  20751
   dimension x,y,z NGX =   108 NGY =   96 NGZ =  250
   dimension x,y,z NGXF=   216 NGYF=  192 NGZF=  500
   support grid    NGXF=   216 NGYF=  192 NGZF=  500
   ions per type =              80 160
   NGX,Y,Z   is equivalent  to a cutoff of  13.55, 13.32, 13.48 a.u.
   NGXF,Y,Z  is equivalent  to a cutoff of  27.10, 26.64, 26.96 a.u.

 SYSTEM =  TiO2                                    
 POSCAR =  Ti  O                                   

--------------------------------------------------------------------------------------------------------


  energy-cutoff  :      600.00
  volume of cell :     4896.04
      direct lattice vectors                 reciprocal lattice vectors
    13.251808214  0.000000000  0.000000000     0.075461400  0.000000000  0.000000000
     0.000000000 11.981455428  0.000000000     0.000000000  0.083462314  0.000000000
     0.000000000  0.000000000 30.836130416     0.000000000  0.000000000  0.032429491

  length of vectors
    13.251808214 11.981455428 30.836130416     0.075461400  0.083462314  0.032429491



 k-points in units of 2pi/SCALE and weight: pymatgen v2020.8.13 with grid density = 
   0.00000000  0.00000000  0.00000000       0.250
   0.03773070  0.00000000  0.00000000       0.250
   0.00000000  0.04173116  0.00000000       0.250
   0.03773070  0.04173116  0.00000000       0.250

 k-points in reciprocal lattice and weights: pymatgen v2020.8.13 with grid density = 
   0.00000000  0.00000000  0.00000000       0.250
   0.50000000  0.00000000  0.00000000       0.250
   0.00000000  0.50000000  0.00000000       0.250
   0.50000000  0.50000000  0.00000000       0.250

 position of ions in fractional coordinates (direct lattice) 
   0.75000000  0.62500000  0.28512531
   0.00000000  0.75000000  0.28512531
   0.00000000  0.62500000  0.39256265
   0.75000000  0.75000000  0.39256265
   0.75000000  0.62500000  0.50000000
   0.00000000  0.75000000  0.50000000
   0.99093234  0.62500219  0.60520916
   0.74308655  0.74999835  0.61211672
   0.75114830  0.62505181  0.72230671
   0.00092441  0.75007967  0.70999461
   0.75000000  0.87500000  0.28512531
   0.00000000  0.00000000  0.28512531
   0.00000000  0.87500000  0.39256265
   0.75000000  0.00000000  0.39256265
   0.75000000  0.87500000  0.50000000
   0.00000000  0.00000000  0.50000000
   0.99087820  0.87500732  0.60523259
   0.74308478  0.00000090  0.61214905
   0.75090890  0.87500637  0.72239835
   0.00090626  0.99999856  0.70999226
   0.75000000  0.12500000  0.28512531
   0.00000000  0.25000000  0.28512531
   0.00000000  0.12500000  0.39256265
   0.75000000  0.25000000  0.39256265
   0.75000000  0.12500000  0.50000000
   0.00000000  0.25000000  0.50000000
   0.99091656  0.12499253  0.60522335
   0.74310157  0.25000396  0.61211283
   0.75088837  0.12500297  0.72239337
   0.00088671  0.24992246  0.70999154
   0.75000000  0.37500000  0.28512531
   0.00000000  0.50000000  0.28512531
   0.00000000  0.37500000  0.39256265
   0.75000000  0.50000000  0.39256265
   0.75000000  0.37500000  0.50000000
   0.00000000  0.50000000  0.50000000
   0.99094543  0.37499804  0.60521581
   0.74309687  0.49999421  0.61211645
   0.75110630  0.37496677  0.72231084
   0.00090941  0.49999663  0.70998701
   0.25000000  0.62500000  0.28512531
   0.50000000  0.75000000  0.28512531
   0.50000000  0.62500000  0.39256265
   0.25000000  0.75000000  0.39256265
   0.25000000  0.62500000  0.50000000
   0.50000000  0.75000000  0.50000000
   0.49087090  0.62490251  0.60533464
   0.24305609  0.75001778  0.61212266
   0.25091848  0.62504247  0.72230972
   0.50093153  0.74992826  0.70994243
   0.25000000  0.87500000  0.28512531
   0.50000000  0.00000000  0.28512531
   0.50000000  0.87500000  0.39256265
   0.25000000  0.00000000  0.39256265
   0.25000000  0.87500000  0.50000000
   0.50000000  0.00000000  0.50000000
   0.49089679  0.87494747  0.60516804
   0.24309023  0.99999064  0.61215456
   0.25115212  0.87498582  0.72240909
   0.50092403  0.00000265  0.70995466
   0.25000000  0.12500000  0.28512531
   0.50000000  0.25000000  0.28512531
   0.50000000  0.12500000  0.39256265
   0.25000000  0.25000000  0.39256265
   0.25000000  0.12500000  0.50000000
   0.50000000  0.25000000  0.50000000
   0.49089128  0.12505480  0.60517418
   0.24303669  0.24997729  0.61210909
   0.25112321  0.12499693  0.72240027
   0.50090446  0.25006756  0.70993914
   0.25000000  0.37500000  0.28512531
   0.50000000  0.50000000  0.28512531
   0.50000000  0.37500000  0.39256265
   0.25000000  0.50000000  0.39256265
   0.25000000  0.37500000  0.50000000
   0.50000000  0.50000000  0.50000000
   0.49087961  0.37509286  0.60532339
   0.24304127  0.50001258  0.61211656
   0.25088587  0.37494153  0.72229084
   0.50090330  0.50000097  0.71027026
   0.75000000  0.75000000  0.24322118
   0.75000000  0.75000000  0.32702943
   0.09750829  0.62500000  0.28512531
   0.90249171  0.62500000  0.28512531
   0.00000000  0.75000000  0.35065853
   0.00000000  0.75000000  0.43446678
   0.84750829  0.62500000  0.39256265
   0.15249171  0.62500000  0.39256265
   0.75000000  0.75000000  0.45809587
   0.75000000  0.75000000  0.54190413
   0.09750829  0.62500000  0.50000000
   0.90249171  0.62500000  0.50000000
   0.00006543  0.75004245  0.56639160
   0.00017438  0.75001306  0.65053597
   0.85012169  0.62502744  0.60800612
   0.15119928  0.62502117  0.60842979
   0.75046621  0.75003830  0.67316183
   0.75061601  0.74991833  0.75752538
   0.09439786  0.62497632  0.72074879
   0.90707587  0.62498618  0.72082763
   0.75000000  0.00000000  0.24322118
   0.75000000  0.00000000  0.32702943
   0.09750829  0.87500000  0.28512531
   0.90249171  0.87500000  0.28512531
   0.00000000  0.00000000  0.35065853
   0.00000000  0.00000000  0.43446678
   0.84750829  0.87500000  0.39256265
   0.15249171  0.87500000  0.39256265
   0.75000000  0.00000000  0.45809587
   0.75000000  0.00000000  0.54190413
   0.09750829  0.87500000  0.50000000
   0.90249171  0.87500000  0.50000000
   0.00005175  0.99999051  0.56640008
   0.00018645  0.99998178  0.65053369
   0.85005729  0.87506437  0.60804088
   0.15124817  0.87503005  0.60847208
   0.75019611  0.99998840  0.67320113
   0.75082207  0.00000526  0.75754631
   0.09443004  0.87498583  0.72071036
   0.90703747  0.87498847  0.72079285
   0.75000000  0.25000000  0.24322118
   0.75000000  0.25000000  0.32702943
   0.09750829  0.12500000  0.28512531
   0.90249171  0.12500000  0.28512531
   0.00000000  0.25000000  0.35065853
   0.00000000  0.25000000  0.43446678
   0.84750829  0.12500000  0.39256265
   0.15249171  0.12500000  0.39256265
   0.75000000  0.25000000  0.45809587
   0.75000000  0.25000000  0.54190413
   0.09750829  0.12500000  0.50000000
   0.90249171  0.12500000  0.50000000
   0.00007039  0.24997064  0.56639021
   0.00020096  0.25000388  0.65053051
   0.85007866  0.12493501  0.60804400
   0.15122427  0.12496143  0.60846092
   0.75044980  0.24997548  0.67316152
   0.75062890  0.25008578  0.75752285
   0.09441885  0.12501660  0.72070834
   0.90702817  0.12501341  0.72077703
   0.75000000  0.50000000  0.24322118
   0.75000000  0.50000000  0.32702943
   0.09750829  0.37500000  0.28512531
   0.90249171  0.37500000  0.28512531
   0.00000000  0.50000000  0.35065853
   0.00000000  0.50000000  0.43446678
   0.84750829  0.37500000  0.39256265
   0.15249171  0.37500000  0.39256265
   0.75000000  0.50000000  0.45809587
   0.75000000  0.50000000  0.54190413
   0.09750829  0.37500000  0.50000000
   0.90249171  0.37500000  0.50000000
   0.00007858  0.49999569  0.56637112
   0.00018598  0.49999740  0.65052533
   0.85011372  0.37497928  0.60800078
   0.15121284  0.37498915  0.60842393
   0.75065412  0.50000530  0.67313530
   0.75044523  0.50001229  0.75748974
   0.09438763  0.37501463  0.72074790
   0.90706551  0.37501344  0.72082151
   0.25000000  0.75000000  0.24322118
   0.25000000  0.75000000  0.32702943
   0.59750829  0.62500000  0.28512531
   0.40249171  0.62500000  0.28512531
   0.50000000  0.75000000  0.35065853
   0.50000000  0.75000000  0.43446678
   0.34750829  0.62500000  0.39256265
   0.65249171  0.62500000  0.39256265
   0.25000000  0.75000000  0.45809587
   0.25000000  0.75000000  0.54190413
   0.59750829  0.62500000  0.50000000
   0.40249171  0.62500000  0.50000000
   0.50003816  0.74985820  0.56639419
   0.50020007  0.75012727  0.65048828
   0.35001371  0.62499653  0.60808621
   0.65129400  0.62499207  0.60851284
   0.25010603  0.75005049  0.67316737
   0.25083829  0.74991365  0.75753110
   0.59454982  0.62524515  0.72044165
   0.40691805  0.62525214  0.72055100
   0.25000000  0.00000000  0.24322118
   0.25000000  0.00000000  0.32702943
   0.59750829  0.87500000  0.28512531
   0.40249171  0.87500000  0.28512531
   0.50000000  0.00000000  0.35065853
   0.50000000  0.00000000  0.43446678
   0.34750829  0.87500000  0.39256265
   0.65249171  0.87500000  0.39256265
   0.25000000  0.00000000  0.45809587
   0.25000000  0.00000000  0.54190413
   0.59750829  0.87500000  0.50000000
   0.40249171  0.87500000  0.50000000
   0.50007551  0.00000270  0.56635190
   0.50020556  0.00000903  0.65049897
   0.35005795  0.87498334  0.60803849
   0.65124489  0.87498476  0.60846566
   0.25034750  0.99999111  0.67318822
   0.25065531  0.00000182  0.75754456
   0.59444054  0.87506027  0.72071745
   0.40701207  0.87505959  0.72078670
   0.25000000  0.25000000  0.24322118
   0.25000000  0.25000000  0.32702943
   0.59750829  0.12500000  0.28512531
   0.40249171  0.12500000  0.28512531
   0.50000000  0.25000000  0.35065853
   0.50000000  0.25000000  0.43446678
   0.34750829  0.12500000  0.39256265
   0.65249171  0.12500000  0.39256265
   0.25000000  0.25000000  0.45809587
   0.25000000  0.25000000  0.54190413
   0.59750829  0.12500000  0.50000000
   0.40249171  0.12500000  0.50000000
   0.50003965  0.25013027  0.56638874
   0.50023460  0.24985434  0.65048020
   0.35004098  0.12501716  0.60803090
   0.65127922  0.12501349  0.60845814
   0.25008203  0.24993871  0.67315493
   0.25085514  0.25008098  0.75751798
   0.59443827  0.12494893  0.72071984
   0.40701146  0.12494336  0.72078393
   0.25000000  0.50000000  0.24322118
   0.25000000  0.50000000  0.32702943
   0.59750829  0.37500000  0.28512531
   0.40249171  0.37500000  0.28512531
   0.50000000  0.50000000  0.35065853
   0.50000000  0.50000000  0.43446678
   0.34750829  0.37500000  0.39256265
   0.65249171  0.37500000  0.39256265
   0.25000000  0.50000000  0.45809587
   0.25000000  0.50000000  0.54190413
   0.59750829  0.37500000  0.50000000
   0.40249171  0.37500000  0.50000000
   0.50004601  0.50001054  0.56646035
   0.50016332  0.50001454  0.65068787
   0.35002716  0.37500234  0.60808642
   0.65129029  0.37499626  0.60850067
   0.24991848  0.50001520  0.67314383
   0.25100977  0.49998003  0.75747136
   0.59452217  0.37476185  0.72046947
   0.40689398  0.37472916  0.72051109

 position of ions in cartesian coordinates  (Angst):
   9.93885616  7.48840964  8.79216110
   0.00000000  8.98609157  8.79216110
   0.00000000  7.48840964 12.10511315
   9.93885616  8.98609157 12.10511315
   9.93885616  7.48840964 15.41806521
   0.00000000  8.98609157 15.41806521
  13.13164537  7.48843589 18.66230852
   9.84724044  8.98607180 18.87531089
   9.95407322  7.48903036 22.27314400
   0.01225014  8.98704618 21.89348649
   9.93885616 10.48377350  8.79216110
   0.00000000  0.00000000  8.79216110
   0.00000000 10.48377350 12.10511315
   9.93885616  0.00000000 12.10511315
   9.93885616 10.48377350 15.41806521
   0.00000000  0.00000000 15.41806521
  13.13092789 10.48386116 18.66303116
   9.84721698  0.00001082 18.87630787
   9.95090079 10.48384985 22.27596974
   0.01200959 11.98143812 21.89341404
   9.93885616  1.49768193  8.79216110
   0.00000000  2.99536386  8.79216110
   0.00000000  1.49768193 12.10511315
   9.93885616  2.99536386 12.10511315
   9.93885616  1.49768193 15.41806521
   0.00000000  2.99536386 15.41806521
  13.13143621  1.49759238 18.66274622
   9.84743945  2.99541129 18.87519092
   9.95062861  1.49771750 22.27581618
   0.01175056  2.99443479 21.89339167
   9.93885616  4.49304579  8.79216110
   0.00000000  5.99072771  8.79216110
   0.00000000  4.49304579 12.10511315
   9.93885616  5.99072771 12.10511315
   9.93885616  4.49304579 15.41806521
   0.00000000  5.99072771 15.41806521
  13.13181879  4.49302235 18.66251378
   9.84737719  5.99065834 18.87530265
   9.95351661  4.49264765 22.27327138
   0.01205130  5.99068731 21.89325214
   3.31295205  7.48840964  8.79216110
   6.62590411  8.98609157  8.79216110
   6.62590411  7.48840964 12.10511315
   3.31295205  8.98609157 12.10511315
   3.31295205  7.48840964 15.41806521
   6.62590411  8.98609157 15.41806521
   6.50492707  7.48724159 18.66617789
   3.22093268  8.98630461 18.87549406
   3.32512354  7.48891854 22.27323672
   6.63824858  8.98523197 21.89187724
   3.31295205 10.48377350  8.79216110
   6.62590411  0.00000000  8.79216110
   6.62590411 10.48377350 12.10511315
   3.31295205  0.00000000 12.10511315
   3.31295205 10.48377350 15.41806521
   6.62590411  0.00000000 15.41806521
   6.50527006 10.48314415 18.66104066
   3.22138513 11.98134332 18.87647793
   3.32821967 10.48360359 22.27630105
   6.63814912  0.00003176 21.89225440
   3.31295205  1.49768193  8.79216110
   6.62590411  2.99536386  8.79216110
   6.62590411  1.49768193 12.10511315
   3.31295205  2.99536386 12.10511315
   3.31295205  1.49768193 15.41806521
   6.62590411  2.99536386 15.41806521
   6.50519714  1.49833846 18.66123004
   3.22067566  2.99509176 18.87507562
   3.32783661  1.49764516 22.27602908
   6.63788980  2.99617336 21.89177587
   3.31295205  4.49304579  8.79216110
   6.62590411  5.99072771  8.79216110
   6.62590411  4.49304579 12.10511315
   3.31295205  5.99072771 12.10511315
   3.31295205  4.49304579 15.41806521
   6.62590411  5.99072771 15.41806521
   6.50504240  4.49415841 18.66583088
   3.22073631  5.99087849 18.87530596
   3.32469137  4.49234519 22.27265439
   6.63787448  5.99073937 21.90198629
   9.93885616  8.98609157  7.50000000
   9.93885616  8.98609157 10.08432220
   1.29216110  7.48840964  8.79216110
  11.95964711  7.48840964  8.79216110
   0.00000000  8.98609157 10.81295205
   0.00000000  8.98609157 13.39727426
  11.23101726  7.48840964 12.10511315
   2.02079095  7.48840964 12.10511315
   9.93885616  8.98609157 14.12590411
   9.93885616  8.98609157 16.71022631
   1.29216110  7.48840964 15.41806521
  11.95964711  7.48840964 15.41806521
   0.00086702  8.98660015 17.46532527
   0.00231080  8.98624803 20.06001193
  11.26564955  7.48873843 18.74855588
   2.00366391  7.48866334 18.76162045
   9.94503433  8.98655045 20.75770603
   9.94701937  8.98511309 23.35915148
   1.25094232  7.48812597 22.22510373
  12.02039548  7.48824409 22.22753472
   9.93885616  0.00000000  7.50000000
   9.93885616  0.00000000 10.08432220
   1.29216110 10.48377350  8.79216110
  11.95964711 10.48377350  8.79216110
   0.00000000  0.00000000 10.81295205
   0.00000000  0.00000000 13.39727426
  11.23101726 10.48377350 12.10511315
   2.02079095 10.48377350 12.10511315
   9.93885616  0.00000000 14.12590411
   9.93885616  0.00000000 16.71022631
   1.29216110 10.48377350 15.41806521
  11.95964711 10.48377350 15.41806521
   0.00068581 11.98134169 17.46558663
   0.00247081 11.98123707 20.05994168
  11.26479624 10.48454471 18.74962779
   2.00431170 10.48413355 18.76292432
   9.94145496 11.98131648 20.75891775
   9.94975013  0.00006303 23.35979667
   1.25136880 10.48360370 22.22391876
  12.01988666 10.48363537 22.22646227
   9.93885616  2.99536386  7.50000000
   9.93885616  2.99536386 10.08432220
   1.29216110  1.49768193  8.79216110
  11.95964711  1.49768193  8.79216110
   0.00000000  2.99536386 10.81295205
   0.00000000  2.99536386 13.39727426
  11.23101726  1.49768193 12.10511315
   2.02079095  1.49768193 12.10511315
   9.93885616  2.99536386 14.12590411
   9.93885616  2.99536386 16.71022631
   1.29216110  1.49768193 15.41806521
  11.95964711  1.49768193 15.41806521
   0.00093278  2.99501208 17.46528240
   0.00266302  2.99541040 20.05984356
  11.26507935  1.49690331 18.74972417
   2.00399501  1.49721981 18.76258029
   9.94481689  2.99507009 20.75769656
   9.94719027  2.99639165 23.35907342
   1.25122055  1.49788082 22.22385644
  12.01976340  1.49784259 22.22597447
   9.93885616  5.99072771  7.50000000
   9.93885616  5.99072771 10.08432220
   1.29216110  4.49304579  8.79216110
  11.95964711  4.49304579  8.79216110
   0.00000000  5.99072771 10.81295205
   0.00000000  5.99072771 13.39727426
  11.23101726  4.49304579 12.10511315
   2.02079095  4.49304579 12.10511315
   9.93885616  5.99072771 14.12590411
   9.93885616  5.99072771 16.71022631
   1.29216110  4.49304579 15.41806521
  11.95964711  4.49304579 15.41806521
   0.00104139  5.99067604 17.46469387
   0.00246451  5.99069661 20.05968399
  11.26554399  4.49279753 18.74839139
   2.00384356  4.49291581 18.76143955
   9.94752449  5.99079127 20.75688786
   9.94475630  5.99087493 23.35805240
   1.25080679  4.49322108 22.22507624
  12.02025815  4.49320687 22.22734605
   3.31295205  8.98609157  7.50000000
   3.31295205  8.98609157 10.08432220
   7.91806521  7.48840964  8.79216110
   5.33374301  7.48840964  8.79216110
   6.62590411  8.98609157 10.81295205
   6.62590411  8.98609157 13.39727426
   4.60511315  7.48840964 12.10511315
   8.64669506  7.48840964 12.10511315
   3.31295205  8.98609157 14.12590411
   3.31295205  8.98609157 16.71022631
   7.91806521  7.48840964 15.41806521
   5.33374301  7.48840964 15.41806521
   6.62640982  8.98439265 17.46540497
   6.62855535  8.98761646 20.05854154
   4.63831461  7.48836804 18.75102558
   8.63082320  7.48831468 18.76418121
   3.31435718  8.98669656 20.75787682
   3.32406096  8.98505692 23.35932766
   7.87886022  7.49134685 22.21563276
   5.39239993  7.49143065 22.21900447
   3.31295205  0.00000000  7.50000000
   3.31295205  0.00000000 10.08432220
   7.91806521 10.48377350  8.79216110
   5.33374301 10.48377350  8.79216110
   6.62590411  0.00000000 10.81295205
   6.62590411  0.00000000 13.39727426
   4.60511315 10.48377350 12.10511315
   8.64669506 10.48377350 12.10511315
   3.31295205  0.00000000 14.12590411
   3.31295205  0.00000000 16.71022631
   7.91806521 10.48377350 15.41806521
   5.33374301 10.48377350 15.41806521
   6.62690476  0.00003235 17.46410095
   6.62862810  0.00010824 20.05887093
   4.63890075 10.48357386 18.74955413
   8.63017240 10.48359088 18.76272655
   3.31755710 11.98134891 20.75851977
   3.32163606  0.00002182 23.35974295
   7.87741203 10.48449558 22.22413717
   5.39364587 10.48448742 22.22627255
   3.31295205  2.99536386  7.50000000
   3.31295205  2.99536386 10.08432220
   7.91806521  1.49768193  8.79216110
   5.33374301  1.49768193  8.79216110
   6.62590411  2.99536386 10.81295205
   6.62590411  2.99536386 13.39727426
   4.60511315  1.49768193 12.10511315
   8.64669506  1.49768193 12.10511315
   3.31295205  2.99536386 14.12590411
   3.31295205  2.99536386 16.71022631
   7.91806521  1.49768193 15.41806521
   5.33374301  1.49768193 15.41806521
   6.62642948  2.99692471 17.46523715
   6.62901297  2.99361865 20.05829219
   4.63867592  1.49788756 18.74932009
   8.63062737  1.49784361 18.76249446
   3.31403911  2.99462947 20.75749314
   3.32428424  2.99633411 23.35892308
   7.87738194  1.49707000 22.22421087
   5.39363783  1.49700329 22.22618737
   3.31295205  5.99072771  7.50000000
   3.31295205  5.99072771 10.08432220
   7.91806521  4.49304579  8.79216110
   5.33374301  4.49304579  8.79216110
   6.62590411  5.99072771 10.81295205
   6.62590411  5.99072771 13.39727426
   4.60511315  4.49304579 12.10511315
   8.64669506  4.49304579 12.10511315
   3.31295205  5.99072771 14.12590411
   3.31295205  5.99072771 16.71022631
   7.91806521  4.49304579 15.41806521
   5.33374301  4.49304579 15.41806521
   6.62651385  5.99085400 17.46744526
   6.62806839  5.99090191 20.06469605
   4.63849282  4.49307376 18.75103207
   8.63077404  4.49300100 18.76380604
   3.31187182  5.99090986 20.75715107
   3.32633334  5.99048848 23.35748569
   7.87849382  4.49019245 22.21649059
   5.39208093  4.48980077 22.21777386



--------------------------------------------------------------------------------------------------------

--------------------------------------- Iteration      FINAL  ---------------------------------------


--------------------OUTCAR has been truncated-------------------------


--------------------OUTCAR has been truncated-------------------------


--------------------OUTCAR has been truncated-------------------------


--------------------OUTCAR has been truncated-------------------------


--------------------OUTCAR has been truncated-------------------------


--------------------OUTCAR has been truncated-------------------------


--------------------OUTCAR has been truncated-------------------------


--------------------OUTCAR has been truncated-------------------------


--------------------OUTCAR has been truncated-------------------------


--------------------OUTCAR has been truncated-------------------------


  Hirshfeld charges:
            ion         q(e)     
   ------------------------------
      1     Ti          0.676
      2     Ti          0.837
      3     Ti          0.738
      4     Ti          0.727
      5     Ti          0.720
      6     Ti          0.737
      7     Ti          0.737
      8     Ti          0.721
      9     Ti          0.722
     10     Ti          0.791
     11     Ti          0.676
     12     Ti          0.837
     13     Ti          0.738
     14     Ti          0.727
     15     Ti          0.720
     16     Ti          0.737
     17     Ti          0.737
     18     Ti          0.721
     19     Ti          0.723
     20     Ti          0.791
     21     Ti          0.676
     22     Ti          0.837
     23     Ti          0.738
     24     Ti          0.727
     25     Ti          0.720
     26     Ti          0.737
     27     Ti          0.737
     28     Ti          0.721
     29     Ti          0.723
     30     Ti          0.791
     31     Ti          0.676
     32     Ti          0.837
     33     Ti          0.738
     34     Ti          0.727
     35     Ti          0.720
     36     Ti          0.737
     37     Ti          0.737
     38     Ti          0.721
     39     Ti          0.722
     40     Ti          0.792
     41     Ti          0.676
     42     Ti          0.837
     43     Ti          0.738
     44     Ti          0.727
     45     Ti          0.720
     46     Ti          0.737
     47     Ti          0.737
     48     Ti          0.721
     49     Ti          0.722
     50     Ti          0.791
     51     Ti          0.676
     52     Ti          0.837
     53     Ti          0.738
     54     Ti          0.727
     55     Ti          0.720
     56     Ti          0.737
     57     Ti          0.737
     58     Ti          0.721
     59     Ti          0.723
     60     Ti          0.791
     61     Ti          0.676
     62     Ti          0.837
     63     Ti          0.738
     64     Ti          0.727
     65     Ti          0.720
     66     Ti          0.737
     67     Ti          0.737
     68     Ti          0.721
     69     Ti          0.723
     70     Ti          0.791
     71     Ti          0.676
     72     Ti          0.837
     73     Ti          0.738
     74     Ti          0.727
     75     Ti          0.720
     76     Ti          0.737
     77     Ti          0.737
     78     Ti          0.721
     79     Ti          0.722
     80     Ti          0.794
     81     O          -0.403
     82     O          -0.387
     83     O          -0.369
     84     O          -0.369
     85     O          -0.350
     86     O          -0.360
     87     O          -0.368
     88     O          -0.368
     89     O          -0.373
     90     O          -0.374
     91     O          -0.365
     92     O          -0.366
     93     O          -0.356
     94     O          -0.356
     95     O          -0.361
     96     O          -0.367
     97     O          -0.375
     98     O          -0.367
     99     O          -0.387
    100     O          -0.387
    101     O          -0.403
    102     O          -0.387
    103     O          -0.369
    104     O          -0.369
    105     O          -0.350
    106     O          -0.360
    107     O          -0.368
    108     O          -0.368
    109     O          -0.373
    110     O          -0.374
    111     O          -0.365
    112     O          -0.366
    113     O          -0.356
    114     O          -0.356
    115     O          -0.361
    116     O          -0.367
    117     O          -0.375
    118     O          -0.367
    119     O          -0.387
    120     O          -0.387
    121     O          -0.403
    122     O          -0.387
    123     O          -0.369
    124     O          -0.369
    125     O          -0.350
    126     O          -0.360
    127     O          -0.368
    128     O          -0.368
    129     O          -0.373
    130     O          -0.374
    131     O          -0.365
    132     O          -0.366
    133     O          -0.356
    134     O          -0.356
    135     O          -0.361
    136     O          -0.367
    137     O          -0.375
    138     O          -0.367
    139     O          -0.387
    140     O          -0.387
    141     O          -0.403
    142     O          -0.387
    143     O          -0.369
    144     O          -0.369
    145     O          -0.350
    146     O          -0.360
    147     O          -0.368
    148     O          -0.368
    149     O          -0.373
    150     O          -0.374
    151     O          -0.365
    152     O          -0.366
    153     O          -0.356
    154     O          -0.356
    155     O          -0.361
    156     O          -0.367
    157     O          -0.375
    158     O          -0.368
    159     O          -0.387
    160     O          -0.387
    161     O          -0.403
    162     O          -0.387
    163     O          -0.369
    164     O          -0.369
    165     O          -0.350
    166     O          -0.360
    167     O          -0.368
    168     O          -0.368
    169     O          -0.373
    170     O          -0.374
    171     O          -0.365
    172     O          -0.366
    173     O          -0.356
    174     O          -0.355
    175     O          -0.361
    176     O          -0.367
    177     O          -0.375
    178     O          -0.367
    179     O          -0.386
    180     O          -0.387
    181     O          -0.403
    182     O          -0.387
    183     O          -0.369
    184     O          -0.369
    185     O          -0.350
    186     O          -0.360
    187     O          -0.368
    188     O          -0.368
    189     O          -0.373
    190     O          -0.374
    191     O          -0.365
    192     O          -0.366
    193     O          -0.356
    194     O          -0.356
    195     O          -0.361
    196     O          -0.367
    197     O          -0.375
    198     O          -0.367
    199     O          -0.387
    200     O          -0.387
    201     O          -0.403
    202     O          -0.387
    203     O          -0.369
    204     O          -0.369
    205     O          -0.350
    206     O          -0.360
    207     O          -0.368
    208     O          -0.368
    209     O          -0.373
    210     O          -0.374
    211     O          -0.365
    212     O          -0.366
    213     O          -0.356
    214     O          -0.355
    215     O          -0.361
    216     O          -0.367
    217     O          -0.375
    218     O          -0.367
    219     O          -0.387
    220     O          -0.387
    221     O          -0.403
    222     O          -0.387
    223     O          -0.369
    224     O          -0.369
    225     O          -0.350
    226     O          -0.360
    227     O          -0.368
    228     O          -0.368
    229     O          -0.373
    230     O          -0.374
    231     O          -0.365
    232     O          -0.366
    233     O          -0.356
    234     O          -0.355
    235     O          -0.361
    236     O          -0.367
    237     O          -0.375
    238     O          -0.368
    239     O          -0.386
    240     O          -0.387

  Hirshfeld-I charges:
            ion         q(e)        dq(e)    
   ------------------------------------------
      1     Ti          2.038     -0.196E-04
      2     Ti          2.041     -0.429E-04
      3     Ti          2.110     -0.216E-04
      4     Ti          2.118     -0.116E-04
      5     Ti          2.102     -0.226E-04
      6     Ti          2.107     -0.132E-04
      7     Ti          2.116     -0.874E-05
      8     Ti          2.089     -0.186E-04
      9     Ti          2.037     -0.242E-04
     10     Ti          2.074     -0.402E-04
     11     Ti          2.038     -0.196E-04
     12     Ti          2.041     -0.429E-04
     13     Ti          2.110     -0.216E-04
     14     Ti          2.118     -0.116E-04
     15     Ti          2.102     -0.226E-04
     16     Ti          2.107     -0.132E-04
     17     Ti          2.116     -0.870E-05
     18     Ti          2.089     -0.187E-04
     19     Ti          2.036     -0.241E-04
     20     Ti          2.074     -0.402E-04
     21     Ti          2.038     -0.196E-04
     22     Ti          2.041     -0.429E-04
     23     Ti          2.110     -0.216E-04
     24     Ti          2.118     -0.116E-04
     25     Ti          2.102     -0.226E-04
     26     Ti          2.107     -0.132E-04
     27     Ti          2.116     -0.871E-05
     28     Ti          2.089     -0.186E-04
     29     Ti          2.036     -0.241E-04
     30     Ti          2.074     -0.402E-04
     31     Ti          2.038     -0.196E-04
     32     Ti          2.041     -0.429E-04
     33     Ti          2.110     -0.216E-04
     34     Ti          2.118     -0.116E-04
     35     Ti          2.102     -0.226E-04
     36     Ti          2.107     -0.132E-04
     37     Ti          2.116     -0.872E-05
     38     Ti          2.089     -0.185E-04
     39     Ti          2.037     -0.242E-04
     40     Ti          2.075     -0.402E-04
     41     Ti          2.038     -0.196E-04
     42     Ti          2.041     -0.429E-04
     43     Ti          2.110     -0.216E-04
[...]
      9.95063      1.49772     22.27582         0.008401     -0.000567     -0.048621
      0.01175      2.99443     21.89339        -0.004441      0.000522     -0.332445
      9.93886      4.49305      8.79216         0.000087      0.000012     -3.191954
      0.00000      5.99073      8.79216        -0.000025      0.000019      3.101105
      0.00000      4.49305     12.10511         0.000772      0.000329      0.490698
      9.93886      5.99073     12.10511        -0.000380      0.000040     -0.668988
      9.93886      4.49305     15.41807        -0.018087     -0.000197      0.677059
      0.00000      5.99073     15.41807         0.025763     -0.000041     -0.692934
     13.13182      4.49302     18.66251        -0.093913      0.000408     -0.018673
      9.84738      5.99066     18.87530        -0.019300      0.000046      0.095096
      9.95352      4.49265     22.27327         0.022844      0.010296     -0.034147
      0.01205      5.99069     21.89325        -0.005044      0.000591     -0.331003
      3.31295      7.48841      8.79216        -0.000124      0.000022     -3.191666
      6.62590      8.98609      8.79216        -0.000035      0.000139      3.100943
      6.62590      7.48841     12.10511         0.000521      0.001597      0.489399
      3.31295      8.98609     12.10511        -0.000948      0.000236     -0.668286
      3.31295      7.48841     15.41807        -0.019896      0.000921      0.677887
      6.62590      8.98609     15.41807         0.025184     -0.000439     -0.689203
      6.50493      7.48724     18.66618        -0.089854      0.010629     -0.032120
      3.22093      8.98630     18.87549        -0.036601      0.002436      0.094446
      3.32512      7.48892     22.27324        -0.021829     -0.012120     -0.033025
      6.63825      8.98523     21.89188        -0.005883      0.039380     -0.350196
      3.31295     10.48377      8.79216        -0.000138      0.000022     -3.191680
      6.62590      0.00000      8.79216        -0.000072     -0.000027      3.101191
      6.62590     10.48377     12.10511         0.000552      0.000826      0.490719
      3.31295      0.00000     12.10511        -0.000707     -0.000031     -0.668153
      3.31295     10.48377     15.41807        -0.019696      0.003493      0.680722
      6.62590      0.00000     15.41807         0.025724      0.000210     -0.696326
      6.50527     10.48314     18.66104        -0.088280      0.004938     -0.020238
      3.22139     11.98134     18.87648        -0.030668     -0.000023      0.098495
      3.32822     10.48360     22.27630        -0.007179      0.002309     -0.052937
      6.63815      0.00003     21.89225        -0.007405     -0.000541     -0.336911
      3.31295      1.49768      8.79216        -0.000147     -0.000044     -3.191626
      6.62590      2.99536      8.79216         0.000009     -0.000030      3.100751
      6.62590      1.49768     12.10511         0.000543     -0.000778      0.490755
      3.31295      2.99536     12.10511        -0.000851     -0.000212     -0.668509
      3.31295      1.49768     15.41807        -0.019432     -0.004869      0.679818
      6.62590      2.99536     15.41807         0.025340     -0.000056     -0.689672
      6.50520      1.49834     18.66123        -0.090908     -0.005342     -0.020995
      3.22068      2.99509     18.87508        -0.033670     -0.001018      0.095179
      3.32784      1.49765     22.27603        -0.006819     -0.001249     -0.052222
      6.63789      2.99617     21.89178        -0.007085     -0.038919     -0.351576
      3.31295      4.49305      8.79216        -0.000170      0.000019     -3.191679
      6.62590      5.99073      8.79216        -0.000075     -0.000042      3.100916
      6.62590      4.49305     12.10511         0.000501     -0.001707      0.489435
      3.31295      5.99073     12.10511        -0.001065      0.000020     -0.668707
      3.31295      4.49305     15.41807        -0.019910      0.000436      0.676992
      6.62590      5.99073     15.41807         0.024970      0.000288     -0.691020
      6.50504      4.49416     18.66583        -0.091650     -0.010142     -0.031118
      3.22074      5.99088     18.87531        -0.037885     -0.001285      0.091961
      3.32469      4.49235     22.27265        -0.020429      0.010894     -0.031018
      6.63787      5.99074     21.90199        -0.006361      0.000163     -0.492731
      9.93886      8.98609      7.50000        -0.000012     -0.000015      2.319725
      9.93886      8.98609     10.08432         0.000205     -0.000093      1.534118
      1.29216      7.48841      8.79216        -1.799164      0.000015     -0.754093
     11.95965      7.48841      8.79216         1.799205      0.000014     -0.754116
      0.00000      8.98609     10.81295        -0.000006      0.000055     -1.123771
      0.00000      8.98609     13.39727        -0.001014      0.000138     -0.203735
     11.23102      7.48841     12.10511         0.308673     -0.000075      0.053544
      2.02079      7.48841     12.10511        -0.307931     -0.000094      0.053304
      9.93886      8.98609     14.12590         0.005791     -0.000978     -0.020712
      9.93886      8.98609     16.71023        -0.006169     -0.000758     -0.208391
      1.29216      7.48841     15.41807        -0.571710      0.000883      0.096585
     11.95965      7.48841     15.41807         0.570171      0.000794      0.097064
      0.00087      8.98660     17.46533        -0.034183     -0.000716      0.148786
      0.00231      8.98625     20.06001        -0.025796     -0.001419      0.027177
     11.26565      7.48874     18.74856         0.023101      0.000607      0.007333
      2.00366      7.48866     18.76162         0.177046      0.001353      0.021621
      9.94503      8.98655     20.75771        -0.017050     -0.000565     -0.085901
      9.94702      8.98511     23.35915         0.003198      0.004783     -0.463887
      1.25094      7.48813     22.22510        -0.130604      0.002035     -0.085651
     12.02040      7.48824     22.22753         0.121225      0.000921     -0.081733
      9.93886      0.00000      7.50000         0.000002     -0.000064      2.319745
      9.93886      0.00000     10.08432         0.000225     -0.000025      1.533933
      1.29216     10.48377      8.79216        -1.799192      0.000005     -0.754027
     11.95965     10.48377      8.79216         1.799213      0.000028     -0.754089
      0.00000      0.00000     10.81295         0.000012     -0.000010     -1.123698
      0.00000      0.00000     13.39727        -0.001024      0.000000     -0.203101
     11.23102     10.48377     12.10511         0.308789     -0.000098      0.053542
      2.02079     10.48377     12.10511        -0.308055     -0.000041      0.053301
      9.93886      0.00000     14.12590         0.005854      0.000007     -0.021216
      9.93886      0.00000     16.71023        -0.006517     -0.000272     -0.212991
      1.29216     10.48377     15.41807        -0.572752      0.000362      0.096614
     11.95965     10.48377     15.41807         0.570973      0.000229      0.096833
      0.00069     11.98134     17.46559        -0.032919      0.000570      0.145326
      0.00247     11.98124     20.05994        -0.025956      0.001393      0.029448
     11.26480     10.48454     18.74963         0.027400     -0.002847      0.007660
      2.00431     10.48413     18.76292         0.172846     -0.001415      0.019785
      9.94145     11.98132     20.75892        -0.010729      0.000763     -0.090962
      9.94975      0.00006     23.35980        -0.002346      0.000433     -0.457063
      1.25137     10.48360     22.22392        -0.136349      0.000699     -0.082736
     12.01989     10.48364     22.22646         0.127338      0.000394     -0.079794
      9.93886      2.99536      7.50000        -0.000049     -0.000015      2.319742
      9.93886      2.99536     10.08432         0.000167      0.000043      1.534141
      1.29216      1.49768      8.79216        -1.799149     -0.000043     -0.754025
     11.95965      1.49768      8.79216         1.799238     -0.000039     -0.754105
      0.00000      2.99536     10.81295        -0.000012     -0.000072     -1.123756
      0.00000      2.99536     13.39727        -0.000976     -0.000115     -0.203723
     11.23102      1.49768     12.10511         0.308789      0.000064      0.053548
      2.02079      1.49768     12.10511        -0.308045      0.000099      0.053330
      9.93886      2.99536     14.12590         0.005778      0.000958     -0.020563
      9.93886      2.99536     16.71023        -0.005796      0.000672     -0.209101
      1.29216      1.49768     15.41807        -0.572572     -0.000270      0.096873
     11.95965      1.49768     15.41807         0.571102     -0.000166      0.097108
      0.00093      2.99501     17.46528        -0.034232     -0.000500      0.148633
      0.00266      2.99541     20.05984        -0.027145      0.000072      0.028340
     11.26508      1.49690     18.74972         0.027207      0.002523      0.007835
      2.00400      1.49722     18.76258         0.174277      0.000843      0.020957
      9.94482      2.99507     20.75770        -0.017515      0.000438     -0.085776
      9.94719      2.99639     23.35907         0.002663     -0.004765     -0.463627
      1.25122      1.49788     22.22386        -0.135725     -0.001153     -0.082284
     12.01976      1.49784     22.22597         0.127006     -0.000451     -0.079040
      9.93886      5.99073      7.50000        -0.000009     -0.000028      2.319726
      9.93886      5.99073     10.08432         0.000194      0.000003      1.534167
      1.29216      4.49305      8.79216        -1.799100      0.000035     -0.754055
     11.95965      4.49305      8.79216         1.799211      0.000030     -0.754107
      0.00000      5.99073     10.81295         0.000007      0.000003     -1.123815
      0.00000      5.99073     13.39727        -0.000983     -0.000009     -0.204930
     11.23102      4.49305     12.10511         0.308666      0.000087      0.053526
      2.02079      4.49305     12.10511        -0.307929      0.000044      0.053332
      9.93886      5.99073     14.12590         0.005858     -0.000023     -0.020175
      9.93886      5.99073     16.71023        -0.006708      0.000286     -0.210134
      1.29216      4.49305     15.41807        -0.571415     -0.000960      0.096475
     11.95965      4.49305     15.41807         0.570135     -0.000873      0.096916
      0.00104      5.99068     17.46469        -0.034517      0.000669      0.155519
      0.00246      5.99070     20.05968        -0.025766      0.000205      0.028260
     11.26554      4.49280     18.74839         0.025779     -0.001003      0.008383
      2.00384      4.49292     18.76144         0.174593     -0.001110      0.021641
      9.94752      5.99079     20.75689        -0.023308     -0.001094     -0.085605
      9.94476      5.99087     23.35805         0.000551     -0.000977     -0.477452
      1.25081      4.49322     22.22508        -0.130057     -0.001617     -0.085676
     12.02026      4.49321     22.22735         0.121286     -0.000789     -0.081241
      3.31295      8.98609      7.50000         0.000030     -0.000029      2.319656
      3.31295      8.98609     10.08432         0.000241     -0.000042      1.533991
      7.91807      7.48841      8.79216        -1.799244     -0.000082     -0.754079
      5.33374      7.48841      8.79216         1.799313     -0.000069     -0.754068
      6.62590      8.98609     10.81295        -0.000004     -0.000375     -1.123500
      6.62590      8.98609     13.39727        -0.001033     -0.000759     -0.203696
      4.60511      7.48841     12.10511         0.309194     -0.000196      0.053571
      8.64670      7.48841     12.10511        -0.308392     -0.000159      0.053405
      3.31295      8.98609     14.12590         0.006015     -0.000922     -0.021242
      3.31295      8.98609     16.71023        -0.005291     -0.000659     -0.209605
      7.91807      7.48841     15.41807        -0.573020     -0.003601      0.097638
      5.33374      7.48841     15.41807         0.571784     -0.003799      0.097164
      6.62641      8.98439     17.46540        -0.034420      0.000335      0.157214
      6.62856      8.98762     20.05854        -0.026578     -0.002707      0.037105
      4.63831      7.48837     18.75103         0.034979     -0.002173      0.009211
      8.63082      7.48831     18.76418         0.165291     -0.000353      0.019755
      3.31436      8.98670     20.75788        -0.005949     -0.002703     -0.084519
      3.32406      8.98506     23.35933        -0.001304      0.004665     -0.462218
      7.87886      7.49135     22.21563        -0.161129     -0.032245     -0.041874
      5.39240      7.49143     22.21900         0.153127     -0.031420     -0.040632
      3.31295      0.00000      7.50000         0.000060      0.000016      2.319721
      3.31295      0.00000     10.08432         0.000231      0.000031      1.533930
      7.91807     10.48377      8.79216        -1.799184     -0.000078     -0.754064
      5.33374     10.48377      8.79216         1.799275     -0.000063     -0.754093
      6.62590      0.00000     10.81295        -0.000030      0.000032     -1.123848
      6.62590      0.00000     13.39727        -0.001002     -0.000024     -0.205982
      4.60511     10.48377     12.10511         0.308877     -0.000081      0.053491
      8.64670     10.48377     12.10511        -0.308063     -0.000122      0.053323
      3.31295      0.00000     14.12590         0.006018      0.000269     -0.021635
      3.31295      0.00000     16.71023        -0.005130     -0.000050     -0.213675
      7.91807     10.48377     15.41807        -0.572312     -0.002316      0.097027
      5.33374     10.48377     15.41807         0.571207     -0.001797      0.097346
      6.62690      0.00003     17.46410        -0.035184     -0.000243      0.157544
      6.62863      0.00011     20.05887        -0.027616     -0.000246      0.028844
      4.63890     10.48357     18.74955         0.028622     -0.000371      0.005739
      8.63017     10.48359     18.76273         0.173595     -0.001307      0.019162
      3.31756     11.98135     20.75852        -0.013247      0.000952     -0.087592
      3.32164      0.00002     23.35974         0.003244     -0.000130     -0.454615
      7.87741     10.48450     22.22414        -0.142398     -0.006917     -0.085889
      5.39365     10.48449     22.22627         0.135088     -0.006010     -0.082464
      3.31295      2.99536      7.50000         0.000064      0.000035      2.319660
      3.31295      2.99536     10.08432         0.000256      0.000001      1.534102
      7.91807      1.49768      8.79216        -1.799244      0.000076     -0.754091
      5.33374      1.49768      8.79216         1.799231      0.000076     -0.754103
      6.62590      2.99536     10.81295         0.000021      0.000388     -1.123507
      6.62590      2.99536     13.39727        -0.001045      0.000786     -0.204002
      4.60511      1.49768     12.10511         0.308840      0.000136      0.053487
      8.64670      1.49768     12.10511        -0.308045      0.000105      0.053331
      3.31295      2.99536     14.12590         0.006014      0.000911     -0.020876
      3.31295      2.99536     16.71023        -0.005576      0.000696     -0.209125
      7.91807      1.49768     15.41807        -0.572200      0.002117      0.096817
      5.33374      1.49768     15.41807         0.570833      0.001697      0.097129
      6.62643      2.99692     17.46524        -0.034571      0.000503      0.158522
      6.62901      2.99362     20.05829        -0.027577      0.004092      0.038666
      4.63868      1.49789     18.74932         0.032339      0.000517      0.006590
      8.63063      1.49784     18.76249         0.169577      0.000697      0.019697
      3.31404      2.99463     20.75749        -0.006434      0.002682     -0.084309
      3.32428      2.99633     23.35892        -0.002291     -0.004632     -0.462766
      7.87738      1.49707     22.22421        -0.141843      0.005852     -0.086022
      5.39364      1.49700     22.22619         0.134959      0.006312     -0.082894
      3.31295      5.99073      7.50000         0.000050     -0.000007      2.319723
      3.31295      5.99073     10.08432         0.000243     -0.000040      1.534068
      7.91807      4.49305      8.79216        -1.799289      0.000026     -0.754073
      5.33374      4.49305      8.79216         1.799300      0.000070     -0.754102
      6.62590      5.99073     10.81295        -0.000033     -0.000009     -1.123088
      6.62590      5.99073     13.39727        -0.000974      0.000004     -0.198359
      4.60511      4.49305     12.10511         0.309178      0.000122      0.053568
      8.64670      4.49305     12.10511        -0.308411      0.000181      0.053385
      3.31295      5.99073     14.12590         0.005898     -0.000277     -0.020639
      3.31295      5.99073     16.71023        -0.004555      0.000002     -0.210766
      7.91807      4.49305     15.41807        -0.572994      0.003804      0.097739
      5.33374      4.49305     15.41807         0.571517      0.003913      0.097364
      6.62651      5.99085     17.46745        -0.033412     -0.000858      0.152237
      6.62807      5.99090     20.06470        -0.026570     -0.001544      0.056306
      4.63849      4.49307     18.75103         0.034907      0.002143      0.009120
      8.63077      4.49300     18.76381         0.165823      0.002579      0.021429
      3.31187      5.99091     20.75715        -0.000651     -0.000606     -0.089359
      3.32633      5.99049     23.35749         0.001671      0.000597     -0.472486
      7.87849      4.49019     22.21649        -0.159238      0.032129     -0.043370
      5.39208      4.48980     22.21777         0.153840      0.032319     -0.038816
 -----------------------------------------------------------------------------------
    total drift:                               -0.000595      0.000227     -0.016575


--------------------------------------------------------------------------------------------------------



  FREE ENERGIE OF THE ION-ELECTRON SYSTEM (eV)
  ---------------------------------------------------
  free  energy   TOTEN  =     -2152.24368302 eV

  energy  without entropy=    -2152.24368302  energy(sigma->0) =    -2152.24368302



--------------------------------------------------------------------------------------------------------


    POTLOK:  cpu time      0.2811: real time      0.2811


--------------------------------------------------------------------------------------------------------


     LOOP+:  cpu time    863.6255: real time    864.0997
    4ORBIT:  cpu time      0.0000: real time      0.0000

 total amount of memory used by VASP MPI-rank0   167521. kBytes
=======================================================================

   base      :      30000. kBytes
   nonl-proj :      51118. kBytes
   fftplans  :       7952. kBytes
   grid      :      12122. kBytes
   one-center:        233. kBytes
   wavefun   :      66096. kBytes

  
  
 General timing and accounting informations for this job:
 ========================================================
  
                  Total CPU time used (sec):      947.897
                            User time (sec):      937.845
                          System time (sec):       10.051
                         Elapsed time (sec):      962.569
  
                   Maximum memory used (kb):      513488.
                   Average memory used (kb):          N/A
  
                          Minor page faults:       986031
                          Major page faults:          746
                 Voluntary context switches:        10960
