 vasp.6.3.0 20Jan22 (build Apr  1 2022 16:44:48) complex                         
 executed on        HPECrayEX_GCC date 2022.12.21  11:38:03
 running 1024 mpi-ranks, with    1 threads/rank
 distrk:  each k-point on 1024 cores,    1 groups
 distr:  one band on NCORE=   8 cores,  128 groups


--------------------------------------------------------------------------------------------------------


 INCAR:
   SYSTEM = MgO-rocksalt
   ISMEAR = 0
   SIGMA = 0.05
   EDIFF = 1E-7
   ALGO = ALL
   ISTART = 0
   IBRION = 2
   NSW = 1000
   ISYM = 0
   ISIF = 2
   EDIFFG = -0.02
   DIPOL = 0.5 0.5 0.5
   IDIPOL = 3
   LDIPOL = .TRUE.
   LHFCALC = .TRUE.
   GGA = PE
   IVDW = 13
   VDW_S8 = 1.2007
   VDW_A1 = 0.4009
   VDW_A2 = 5.0293
   ENCUT = 600
   PREC = Accurate
   LASPH = .TRUE.
   LREAL = .FALSE.
   ISPIN = 1
   NELM = 200
   NELMIN = 8
   NCORE = 8
   KPAR = 1
   LWAVE = .FALSE.
   LCHARG = .FALSE.

 POTCAR:    PAW_PBE N 08Apr2002                   
 POTCAR:    PAW_PBE O 08Apr2002                   
 POTCAR:    PAW_PBE Mg_pv 13Apr2007               
 POTCAR:    PAW_PBE O 08Apr2002                   
 POTCAR:    PAW_PBE N 08Apr2002                   
   SHA256 =  e053789ff3a61a86a1b75d8a110fcc91f86041011e7b0817c7c99e4e8a6349d7 N/POTCAR              
   COPYR  = (c) Copyright 08Apr2002 Georg Kresse                                                    
   COPYR  = This file is part of the software VASP. Any use, copying, and all other rights are regul
   COPYR  = If you do not have a valid VASP license, you may not use, copy or distribute this file. 
   VRHFIN =N: s2p3                                                                                  
   LEXCH  = PE                                                                                      
   EATOM  =   264.5486 eV,   19.4438 Ry                                                             
                                                                                                    
   TITEL  = PAW_PBE N 08Apr2002                                                                     
   LULTRA =        F    use ultrasoft PP ?                                                          
   IUNSCR =        1    unscreen: 0-lin 1-nonlin 2-no                                               
   RPACOR =    1.200    partial core radius                                                         
   POMASS =   14.001; ZVAL   =    5.000    mass and valenz                                          
   RCORE  =    1.500    outmost cutoff radius                                                       
   RWIGS  =    1.400; RWIGS  =    0.741    wigner-seitz radius (au A)                               
   ENMAX  =  400.000; ENMIN  =  300.000 eV                                                          
   ICORE  =        2    local potential                                                             
   LCOR   =        T    correct aug charges                                                         
   LPAW   =        T    paw PP                                                                      
   EAUG   =  627.112                                                                                
   DEXC   =    0.000                                                                                
   RMAX   =    1.529    core radius for proj-oper                                                   
   RAUG   =    1.300    factor for augmentation sphere                                              
   RDEP   =    1.514    radius for radial grids                                                     
   RDEPT  =    1.338    core radius for aug-charge                                                  
                                                                                                    
   Atomic configuration                                                                             
    4 entries                                                                                       
     n  l   j            E        occ.                                                              
     1  0  0.50      -384.7179   2.0000                                                             
     2  0  0.50       -18.5828   2.0000                                                             
     2  1  0.50        -7.0898   3.0000                                                             
     3  2  1.50        -6.8029   0.0000                                                             
   Description                                                                                      
     l       E           TYP  RCUT    TYP  RCUT                                                     
     0    -18.5828119     23  1.200                                                                 
     0    -13.5018863     23  1.200                                                                 
     1     -7.0897853     23  1.500                                                                 
     1      9.5240782     23  1.500                                                                 
     2     -6.8029130      7  1.500                                                                 
  local pseudopotential read in
  partial core-charges read in
  partial kinetic energy density read in
  atomic valenz-charges read in
  non local Contribution for L=           0  read in
    real space projection operators read in
  non local Contribution for L=           0  read in
    real space projection operators read in
  non local Contribution for L=           1  read in
    real space projection operators read in
  non local Contribution for L=           1  read in
    real space projection operators read in
    PAW grid and wavefunctions read in

   number of l-projection  operators is LMAX  =           4
   number of lm-projection operators is LMMAX =           8

 POTCAR:    PAW_PBE O 08Apr2002                   
   SHA256 =  818f92134a0a090dccd8ba1447fa70422a3b330e708bb4f08108d8ae51209ddf O/POTCAR              
   COPYR  = (c) Copyright 08Apr2002 Georg Kresse                                                    
   COPYR  = This file is part of the software VASP. Any use, copying, and all other rights are regul
   COPYR  = If you do not have a valid VASP license, you may not use, copy or distribute this file. 
   VRHFIN =O: s2p4                                                                                  
   LEXCH  = PE                                                                                      
   EATOM  =   432.3788 eV,   31.7789 Ry                                                             
                                                                                                    
   TITEL  = PAW_PBE O 08Apr2002                                                                     
   LULTRA =        F    use ultrasoft PP ?                                                          
   IUNSCR =        1    unscreen: 0-lin 1-nonlin 2-no                                               
   RPACOR =    1.200    partial core radius                                                         
   POMASS =   16.000; ZVAL   =    6.000    mass and valenz                                          
   RCORE  =    1.520    outmost cutoff radius                                                       
   RWIGS  =    1.550; RWIGS  =    0.820    wigner-seitz radius (au A)                               
   ENMAX  =  400.000; ENMIN  =  300.000 eV                                                          
   ICORE  =        2    local potential                                                             
   LCOR   =        T    correct aug charges                                                         
   LPAW   =        T    paw PP                                                                      
   EAUG   =  605.392                                                                                
   DEXC   =    0.000                                                                                
   RMAX   =    1.553    core radius for proj-oper                                                   
   RAUG   =    1.300    factor for augmentation sphere                                              
   RDEP   =    1.550    radius for radial grids                                                     
   RDEPT  =    1.329    core radius for aug-charge                                                  
                                                                                                    
   Atomic configuration                                                                             
    4 entries                                                                                       
     n  l   j            E        occ.                                                              
     1  0  0.50      -514.6923   2.0000                                                             
     2  0  0.50       -23.9615   2.0000                                                             
     2  1  0.50        -9.0305   4.0000                                                             
     3  2  1.50        -9.5241   0.0000                                                             
   Description                                                                                      
     l       E           TYP  RCUT    TYP  RCUT                                                     
     0    -23.9615318     23  1.200                                                                 
     0     -9.5240782     23  1.200                                                                 
     1     -9.0304911     23  1.520                                                                 
     1      8.1634956     23  1.520                                                                 
     2     -9.5240782      7  1.500                                                                 
  local pseudopotential read in
  partial core-charges read in
  partial kinetic energy density read in
  kinetic energy density of atom read in
  atomic valenz-charges read in
  non local Contribution for L=           0  read in
    real space projection operators read in
  non local Contribution for L=           0  read in
    real space projection operators read in
  non local Contribution for L=           1  read in
    real space projection operators read in
  non local Contribution for L=           1  read in
    real space projection operators read in
    PAW grid and wavefunctions read in

   number of l-projection  operators is LMAX  =           4
   number of lm-projection operators is LMMAX =           8

 POTCAR:    PAW_PBE Mg_pv 13Apr2007               
   SHA256 =  f474ac0dd33840b9ae76c01d57fea79fdf77cdfbb07d5ade72c65f83c709b62b Mg_pv/POTCAR          
   COPYR  = (c) Copyright 13Apr2007 Georg Kresse                                                    
   COPYR  = This file is part of the software VASP. Any use, copying, and all other rights are regul
   COPYR  = If you do not have a valid VASP license, you may not use, copy or distribute this file. 
   VRHFIN =Mg: p6s2                                                                                 
   LEXCH  = PE                                                                                      
   EATOM  =  1056.7344 eV,   77.6678 Ry                                                             
                                                                                                    
   TITEL  = PAW_PBE Mg_pv 13Apr2007                                                                 
   LULTRA =        F    use ultrasoft PP ?                                                          
   IUNSCR =        1    unscreen: 0-lin 1-nonlin 2-no                                               
   RPACOR =    1.500    partial core radius                                                         
   POMASS =   24.305; ZVAL   =    8.000    mass and valenz                                          
   RCORE  =    2.000    outmost cutoff radius                                                       
   RWIGS  =    2.000; RWIGS  =    1.058    wigner-seitz radius (au A)                               
   ENMAX  =  403.929; ENMIN  =  302.947 eV                                                          
   RCLOC  =    1.506    cutoff for local pot                                                        
   LCOR   =        T    correct aug charges                                                         
   LPAW   =        T    paw PP                                                                      
   EAUG   =  758.780                                                                                
   DEXC   =    0.000                                                                                
   RMAX   =    2.045    core radius for proj-oper                                                   
   RAUG   =    1.300    factor for augmentation sphere                                              
   RDEP   =    2.025    radius for radial grids                                                     
   RDEPT  =    1.557    core radius for aug-charge                                                  
                                                                                                    
   Atomic configuration                                                                             
    5 entries                                                                                       
     n  l   j            E        occ.                                                              
     1  0  0.50     -1259.6230   2.0000                                                             
     2  0  0.50       -79.8442   2.0000                                                             
     2  1  1.50       -46.6121   6.0000                                                             
     3  0  0.50        -4.7055   2.0000                                                             
     3  2  1.50        -1.3606   0.0000                                                             
   Description                                                                                      
     l       E           TYP  RCUT    TYP  RCUT                                                     
     1    -46.6121073     23  1.600                                                                 
     1      2.7211652     23  1.600                                                                 
     0     -4.7054661     23  2.000                                                                 
     0     61.2262170     23  2.000                                                                 
     2     -1.3605826     23  2.000                                                                 
  local pseudopotential read in
  partial core-charges read in
  partial kinetic energy density read in
  atomic valenz-charges read in
  non local Contribution for L=           1  read in
    real space projection operators read in
  non local Contribution for L=           1  read in
    real space projection operators read in
  non local Contribution for L=           0  read in
    real space projection operators read in
  non local Contribution for L=           0  read in
    real space projection operators read in
  non local Contribution for L=           2  read in
    real space projection operators read in
    PAW grid and wavefunctions read in

   number of l-projection  operators is LMAX  =           5
   number of lm-projection operators is LMMAX =          13

 POTCAR:    PAW_PBE O 08Apr2002                   
   SHA256 =  818f92134a0a090dccd8ba1447fa70422a3b330e708bb4f08108d8ae51209ddf O/POTCAR              
   COPYR  = (c) Copyright 08Apr2002 Georg Kresse                                                    
   COPYR  = This file is part of the software VASP. Any use, copying, and all other rights are regul
   COPYR  = If you do not have a valid VASP license, you may not use, copy or distribute this file. 
   VRHFIN =O: s2p4                                                                                  
   LEXCH  = PE                                                                                      
   EATOM  =   432.3788 eV,   31.7789 Ry                                                             
                                                                                                    
   TITEL  = PAW_PBE O 08Apr2002                                                                     
   LULTRA =        F    use ultrasoft PP ?                                                          
   IUNSCR =        1    unscreen: 0-lin 1-nonlin 2-no                                               
   RPACOR =    1.200    partial core radius                                                         
   POMASS =   16.000; ZVAL   =    6.000    mass and valenz                                          
   RCORE  =    1.520    outmost cutoff radius                                                       
   RWIGS  =    1.550; RWIGS  =    0.820    wigner-seitz radius (au A)                               
   ENMAX  =  400.000; ENMIN  =  300.000 eV                                                          
   ICORE  =        2    local potential                                                             
   LCOR   =        T    correct aug charges                                                         
   LPAW   =        T    paw PP                                                                      
   EAUG   =  605.392                                                                                
   DEXC   =    0.000                                                                                
   RMAX   =    1.553    core radius for proj-oper                                                   
   RAUG   =    1.300    factor for augmentation sphere                                              
   RDEP   =    1.550    radius for radial grids                                                     
   RDEPT  =    1.329    core radius for aug-charge                                                  
                                                                                                    
   Atomic configuration                                                                             
    4 entries                                                                                       
     n  l   j            E        occ.                                                              
     1  0  0.50      -514.6923   2.0000                                                             
     2  0  0.50       -23.9615   2.0000                                                             
     2  1  0.50        -9.0305   4.0000                                                             
     3  2  1.50        -9.5241   0.0000                                                             
   Description                                                                                      
     l       E           TYP  RCUT    TYP  RCUT                                                     
     0    -23.9615318     23  1.200                                                                 
     0     -9.5240782     23  1.200                                                                 
     1     -9.0304911     23  1.520                                                                 
     1      8.1634956     23  1.520                                                                 
     2     -9.5240782      7  1.500                                                                 
  local pseudopotential read in
  partial core-charges read in
  partial kinetic energy density read in
  kinetic energy density of atom read in
  atomic valenz-charges read in
  non local Contribution for L=           0  read in
    real space projection operators read in
  non local Contribution for L=           0  read in
    real space projection operators read in
  non local Contribution for L=           1  read in
    real space projection operators read in
  non local Contribution for L=           1  read in
    real space projection operators read in
    PAW grid and wavefunctions read in

   number of l-projection  operators is LMAX  =           4
   number of lm-projection operators is LMMAX =           8

 -----------------------------------------------------------------------------
|                                                                             |
|               ----> ADVICE to this user running VASP <----                  |
|                                                                             |
|     You have a (more or less) 'large supercell' and for larger cells it     |
|     might be more efficient to use real-space projection operators.         |
|     Therefore, try LREAL= Auto in the INCAR file.                           |
|     Mind: For very accurate calculation, you might also keep the            |
|     reciprocal projection scheme (i.e. LREAL=.FALSE.).                      |
|                                                                             |
 -----------------------------------------------------------------------------

  PAW_PBE N 08Apr2002                   :
 energy of atom  1       EATOM= -264.5486
 kinetic energy error for atom=    0.0103 (will be added to EATOM!!)
  PAW_PBE O 08Apr2002                   :
 energy of atom  2       EATOM= -432.3788
 kinetic energy error for atom=    0.0168 (will be added to EATOM!!)
  PAW_PBE Mg_pv 13Apr2007               :
 energy of atom  3       EATOM=-1056.7344
 kinetic energy error for atom=    0.0221 (will be added to EATOM!!)
  PAW_PBE O 08Apr2002                   :
 energy of atom  4       EATOM= -432.3788
 kinetic energy error for atom=    0.0168 (will be added to EATOM!!)


 POSCAR:  N  O Mg  O
  positions in direct lattice
  velocities in cartesian coordinates
 -----------------------------------------------------------------------------
|                                                                             |
|           W    W    AA    RRRRR   N    N  II  N    N   GGGG   !!!           |
|           W    W   A  A   R    R  NN   N  II  NN   N  G    G  !!!           |
|           W    W  A    A  R    R  N N  N  II  N N  N  G       !!!           |
|           W WW W  AAAAAA  RRRRR   N  N N  II  N  N N  G  GGG   !            |
|           WW  WW  A    A  R   R   N   NN  II  N   NN  G    G                |
|           W    W  A    A  R    R  N    N  II  N    N   GGGG   !!!           |
|                                                                             |
|     Specifying the vdW parameters                                           |
|     VDW_S8 = 1.201                                                          |
|     VDW_A1 = 0.401                                                          |
|     VDW_A2 = 5.029                                                          |
|     in the INCAR file will overwrite the defaults for pbe0. Please make     |
|     sure that is what you intended.                                         |
|                                                                             |
 -----------------------------------------------------------------------------

 exchange correlation table for  LEXCH =        8
   RHO(1)=    0.500       N(1)  =     2000
   RHO(2)=  100.500       N(2)  =     4000



--------------------------------------------------------------------------------------------------------


 ion  position               nearest neighbor table
   1  0.550  0.550  0.754-   3 1.16
   2  0.702  0.702  0.754-   4 1.16
   3  0.523  0.523  0.806-   1 1.16
   4  0.730  0.730  0.806-   2 1.16
   5  0.250  0.000  0.353-  39 2.09  40 2.09  47 2.09  56 2.09  37 2.09
   6  0.500  0.250  0.353-  39 2.09  40 2.09  48 2.09  55 2.09  38 2.09
   7  0.250  0.250  0.451-  37 2.09  38 2.09  45 2.09  54 2.09  39 2.09  43 2.09
   8  0.500  0.000  0.451-  37 2.09  38 2.09  46 2.09  53 2.09  40 2.09  44 2.09
   9  0.250  0.000  0.550-  60 2.09  44 2.09  43 2.09  51 2.09  37 2.10  41 2.12
  10  0.500  0.250  0.550-  52 2.09  43 2.09  59 2.09  44 2.09  38 2.10  42 2.12
  11  0.250  0.250  0.647-  43 2.08  41 2.08  58 2.08  49 2.09  42 2.09
  12  0.500  0.001  0.647-  42 2.07  44 2.08  50 2.08  41 2.09  57 2.09
  13  0.250  0.500  0.353-  39 2.09  47 2.09  48 2.09  64 2.09  45 2.09
  14  0.500  0.750  0.353-  40 2.09  47 2.09  48 2.09  63 2.09  46 2.09
  15  0.250  0.750  0.451-  37 2.09  45 2.09  46 2.09  62 2.09  47 2.09  51 2.09
  16  0.500  0.500  0.451-  38 2.09  45 2.09  46 2.09  61 2.09  48 2.09  52 2.10
  17  0.250  0.500  0.550-  52 2.09  43 2.09  51 2.09  68 2.09  45 2.10  49 2.12
  18  0.500  0.750  0.550-  52 2.08  67 2.08  51 2.09  44 2.09  46 2.10  50 2.13
  19  0.249  0.750  0.647-  66 2.07  51 2.08  50 2.08  41 2.09  49 2.09
  20  0.498  0.498  0.649-  49 2.08  42 2.08  52 2.11  65 2.12  50 2.12
  21  0.750  0.000  0.353-  40 2.09  55 2.09  56 2.09  63 2.09  53 2.09
  22  0.000  0.250  0.353-  39 2.09  55 2.09  56 2.09  64 2.09  54 2.09
  23  0.750  0.250  0.451-  38 2.09  53 2.09  54 2.09  61 2.09  55 2.09  59 2.09
  24  0.000  0.000  0.451-  37 2.09  53 2.09  54 2.09  62 2.09  56 2.09  60 2.09
  25  0.750  1.000  0.550-  67 2.09  60 2.09  44 2.09  59 2.09  53 2.10  57 2.12
  26  0.000  0.250  0.550-  60 2.09  68 2.09  43 2.09  59 2.09  54 2.10  58 2.12
  27  0.750  0.249  0.647-  57 2.07  59 2.08  65 2.08  58 2.09  42 2.09
  28  0.000  0.000  0.647-  60 2.08  58 2.08  41 2.08  66 2.09  57 2.09
  29  0.750  0.500  0.353-  48 2.09  55 2.09  63 2.09  64 2.09  61 2.09
  30  0.000  0.750  0.353-  47 2.09  56 2.09  63 2.09  64 2.09  62 2.09
  31  0.750  0.750  0.451-  46 2.09  53 2.09  61 2.09  62 2.09  63 2.09  67 2.10
  32  0.000  0.500  0.451-  45 2.09  54 2.09  61 2.09  62 2.09  64 2.09  68 2.09
  33  0.750  0.500  0.550-  52 2.08  67 2.08  59 2.09  68 2.09  61 2.10  65 2.13
  34  1.000  0.750  0.550-  67 2.09  60 2.09  68 2.09  51 2.09  62 2.10  66 2.12
  35  0.752  0.752  0.649-  57 2.08  66 2.08  67 2.11  50 2.12  65 2.12
  36  0.001  0.500  0.647-  49 2.07  68 2.08  65 2.08  58 2.09  66 2.09
  37  0.250  0.000  0.451-   7 2.09   8 2.09  15 2.09  24 2.09   5 2.09   9 2.10
  38  0.500  0.250  0.451-   7 2.09   8 2.09  16 2.09  23 2.09   6 2.09  10 2.10
  39  0.250  0.250  0.353-   5 2.09   6 2.09  13 2.09  22 2.09   7 2.09
  40  0.500  0.000  0.353-   5 2.09   6 2.09  14 2.09  21 2.09   8 2.09
  41  0.250  0.000  0.649-  28 2.08  11 2.08  12 2.09  19 2.09   9 2.12
  42  0.500  0.249  0.649-  12 2.07  20 2.08  11 2.09  27 2.09  10 2.12
  43  0.250  0.250  0.549-  11 2.08  26 2.09   9 2.09  10 2.09  17 2.09   7 2.09
  44  0.500  1.000  0.549-  12 2.08   9 2.09  25 2.09  18 2.09  10 2.09   8 2.09
  45  0.250  0.500  0.451-   7 2.09  15 2.09  16 2.09  32 2.09  13 2.09  17 2.10
  46  0.500  0.750  0.451-   8 2.09  15 2.09  16 2.09  31 2.09  14 2.09  18 2.10
  47  0.250  0.750  0.353-   5 2.09  13 2.09  14 2.09  30 2.09  15 2.09
  48  0.500  0.500  0.353-   6 2.09  13 2.09  14 2.09  29 2.09  16 2.09
  49  0.249  0.500  0.649-  36 2.07  20 2.08  11 2.09  19 2.09  17 2.12
  50  0.498  0.752  0.650-  12 2.08  19 2.08  20 2.12  35 2.12  18 2.13
  51  0.250  0.750  0.549-  19 2.08   9 2.09  17 2.09  18 2.09  34 2.09  15 2.09
  52  0.500  0.500  0.550-  18 2.08  33 2.08  17 2.09  10 2.09  16 2.10  20 2.11
  53  0.750  0.000  0.451-   8 2.09  23 2.09  24 2.09  31 2.09  21 2.09  25 2.10
  54  0.000  0.250  0.451-   7 2.09  23 2.09  24 2.09  32 2.09  22 2.09  26 2.10
  55  0.750  0.250  0.353-   6 2.09  21 2.09  22 2.09  29 2.09  23 2.09
  56  0.000  0.000  0.353-   5 2.09  21 2.09  22 2.09  30 2.09  24 2.09
  57  0.750  0.001  0.649-  27 2.07  35 2.08  28 2.09  12 2.09  25 2.12
  58  0.000  0.250  0.649-  28 2.08  11 2.08  36 2.09  27 2.09  26 2.12
  59  0.750  0.250  0.549-  27 2.08  26 2.09  10 2.09  33 2.09  25 2.09  23 2.09
  60  0.000  0.000  0.549-  28 2.08  26 2.09   9 2.09  34 2.09  25 2.09  24 2.09
  61  0.750  0.500  0.451-  16 2.09  23 2.09  31 2.09  32 2.09  29 2.09  33 2.10
  62  0.000  0.750  0.451-  15 2.09  24 2.09  31 2.09  32 2.09  30 2.09  34 2.10
  63  0.750  0.750  0.353-  14 2.09  21 2.09  29 2.09  30 2.09  31 2.09
  64  0.000  0.500  0.353-  13 2.09  22 2.09  29 2.09  30 2.09  32 2.09
  65  0.752  0.498  0.650-  36 2.08  27 2.08  20 2.12  35 2.12  33 2.13
  66  0.001  0.750  0.649-  19 2.07  35 2.08  28 2.09  36 2.09  34 2.12
  67  0.750  0.750  0.550-  18 2.08  33 2.08  34 2.09  25 2.09  31 2.10  35 2.11
  68  1.000  0.500  0.549-  36 2.08  26 2.09  34 2.09  33 2.09  17 2.09  32 2.09


IMPORTANT INFORMATION: All symmetrisations will be switched off!
NOSYMM: (Re-)initialisation of all symmetry stuff for point group C_1.


----------------------------------------------------------------------------------------

                                     Primitive cell                                     

  volume of cell :    1482.1129

  direct lattice vectors                    reciprocal lattice vectors
     8.349111827  0.000000000  0.000000000     0.119773219  0.000000000  0.000000000
     0.000000000  8.349111827  0.000000000     0.000000000  0.119773219  0.000000000
     0.000000000  0.000000000 21.261833870     0.000000000  0.000000000  0.047032632

  length of vectors
     8.349111827  8.349111827 21.261833870     0.119773219  0.119773219  0.047032632

  position of ions in fractional coordinates (direct lattice)
     0.549936708  0.549936772  0.753880774
     0.701703951  0.701703987  0.753661844
     0.522667930  0.522668142  0.806350074
     0.729679660  0.729679744  0.806007502
     0.250000000  0.000000000  0.352744737
     0.500000000  0.250000000  0.352744737
     0.250000000  0.250000000  0.450914912
     0.500000000  0.000000000  0.450914912
     0.250014731  0.000025218  0.549620577
     0.499987435  0.250257135  0.549770218
     0.249757913  0.249757892  0.647266550
     0.499747715  0.001023361  0.647054288
     0.250000000  0.500000000  0.352744737
     0.500000000  0.750000000  0.352744737
     0.250000000  0.750000000  0.450914912
     0.500000000  0.500000000  0.450914912
     0.250257112  0.499987533  0.549770190
     0.500323810  0.749700802  0.549829094
     0.249046081  0.750317527  0.647055533
     0.498355820  0.498355806  0.648996368
     0.750000000  0.000000000  0.352744737
     0.000000000  0.250000000  0.352744737
     0.750000000  0.250000000  0.450914912
     0.000000000  0.000000000  0.450914912
     0.750039187  0.999803541  0.549756024
     0.000025246  0.250014709  0.549620571
     0.750317508  0.249046114  0.647055557
     0.000313926  0.000313917  0.647257096
     0.750000000  0.500000000  0.352744737
     0.000000000  0.750000000  0.352744737
     0.750000000  0.750000000  0.450914912
     0.000000000  0.500000000  0.450914912
     0.749700778  0.500323757  0.549829083
     0.999803445  0.750039197  0.549755972
     0.751781777  0.751781804  0.648898738
     0.001023419  0.499747713  0.647054270
     0.250000000  0.000000000  0.450914912
     0.500000000  0.250000000  0.450914912
     0.250000000  0.250000000  0.352744737
     0.500000000  0.000000000  0.352744737
     0.249805553  0.000264767  0.649470288
     0.499861488  0.249007422  0.649311014
     0.250004749  0.250004808  0.549317763
     0.499990179  0.999815137  0.549351348
     0.250000000  0.500000000  0.450914912
     0.500000000  0.750000000  0.450914912
     0.250000000  0.750000000  0.352744737
     0.500000000  0.500000000  0.352744737
     0.249007493  0.499861442  0.649311032
     0.498414895  0.751710973  0.650042503
     0.250250233  0.750024652  0.549355164
     0.500214272  0.500214302  0.549906970
     0.750000000  0.000000000  0.450914912
     0.000000000  0.250000000  0.450914912
     0.750000000  0.250000000  0.352744737
     0.000000000  0.000000000  0.352744737
     0.750209923  0.001113953  0.649267916
     0.000264772  0.249805517  0.649470270
     0.750024664  0.250250282  0.549355161
     0.000047512  0.000047491  0.549309389
     0.750000000  0.500000000  0.450914912
     0.000000000  0.750000000  0.450914912
     0.750000000  0.750000000  0.352744737
     0.000000000  0.500000000  0.352744737
     0.751710982  0.498414921  0.650042487
     0.001113974  0.750209945  0.649267918
     0.749829181  0.749829220  0.549884109
     0.999815149  0.499990252  0.549351328

  ion indices of the primitive-cell ions
   primitive index   ion index
                 1           1
                 2           2
                 3           3
                 4           4
                 5           5
                 6           6
                 7           7
                 8           8
                 9           9
                10          10
                11          11
                12          12
                13          13
                14          14
                15          15
                16          16
                17          17
                18          18
                19          19
                20          20
                21          21
                22          22
                23          23
                24          24
                25          25
                26          26
                27          27
                28          28
                29          29
                30          30
                31          31
                32          32
                33          33
                34          34
                35          35
                36          36
                37          37
                38          38
                39          39
                40          40
                41          41
                42          42
                43          43
                44          44
                45          45
                46          46
                47          47
                48          48
                49          49
                50          50
                51          51
                52          52
                53          53
                54          54
                55          55
                56          56
                57          57
                58          58
                59          59
                60          60
                61          61
                62          62
                63          63
                64          64
                65          65
                66          66
                67          67
                68          68

----------------------------------------------------------------------------------------



 KPOINTS: pymatgen v2020.8.13 with grid density = 

Automatic generation of k-mesh.
 Grid dimensions read from file:
 generate k-points for:    2    2    1

 Generating k-lattice:

  Cartesian coordinates                     Fractional coordinates (reciprocal lattice)
     0.059886610  0.000000000  0.000000000     0.500000000  0.000000000  0.000000000
     0.000000000  0.059886610  0.000000000     0.000000000  0.500000000  0.000000000
     0.000000000  0.000000000  0.047032632     0.000000000  0.000000000  1.000000000

  Length of vectors
     0.059886610  0.059886610  0.047032632

  Shift w.r.t. Gamma in fractional coordinates (k-lattice)
     0.000000000  0.000000000  0.000000000

 
 Subroutine IBZKPT returns following result:
 ===========================================
 
 Found      4 irreducible k-points:
 
 Following reciprocal coordinates:
            Coordinates               Weight
  0.000000  0.000000  0.000000      1.000000
  0.500000  0.000000  0.000000      1.000000
  0.000000  0.500000  0.000000      1.000000
  0.500000  0.500000  0.000000      1.000000
 
 Following cartesian coordinates:
            Coordinates               Weight
  0.000000  0.000000  0.000000      1.000000
  0.059887  0.000000  0.000000      1.000000
  0.000000  0.059887  0.000000      1.000000
  0.059887  0.059887  0.000000      1.000000
 
 
 Subroutine IBZKPT_HF returns following result:
 ==============================================
 
 Found      4 k-points in 1st BZ
 the following      4 k-points will be used (e.g. in the exchange kernel)
 Following reciprocal coordinates:   # in IRBZ
  0.000000  0.000000  0.000000    0.25000000   1 t-inv F
  0.500000  0.000000  0.000000    0.25000000   2 t-inv F
  0.000000  0.500000  0.000000    0.25000000   3 t-inv F
  0.500000  0.500000  0.000000    0.25000000   4 t-inv F


--------------------------------------------------------------------------------------------------------




 Dimension of arrays:
   k-points           NKPTS =      4   k-points in BZ     NKDIM =      4   number of bands    NBANDS=    384
   number of dos      NEDOS =    301   number of ions     NIONS =     68
   non local maximal  LDIM  =      5   non local SUM 2l+1 LMDIM =     13
   total plane-waves  NPLWV = 882000
   max r-space proj   IRMAX =      1   max aug-charges    IRDMAX=  11926
   dimension x,y,z NGX =    70 NGY =   70 NGZ =  180
   dimension x,y,z NGXF=   140 NGYF=  140 NGZF=  360
   support grid    NGXF=   140 NGYF=  140 NGZF=  360
   ions per type =               2   2  32  32
   NGX,Y,Z   is equivalent  to a cutoff of  13.94, 13.94, 14.07 a.u.
   NGXF,Y,Z  is equivalent  to a cutoff of  27.88, 27.88, 28.15 a.u.

 SYSTEM =  MgO-rocksalt                            
 POSCAR =   N  O Mg  O                             

--------------------------------------------------------------------------------------------------------


  energy-cutoff  :      600.00
  volume of cell :     1482.11
      direct lattice vectors                 reciprocal lattice vectors
     8.349111827  0.000000000  0.000000000     0.119773219  0.000000000  0.000000000
     0.000000000  8.349111827  0.000000000     0.000000000  0.119773219  0.000000000
     0.000000000  0.000000000 21.261833870     0.000000000  0.000000000  0.047032632

  length of vectors
     8.349111827  8.349111827 21.261833870     0.119773219  0.119773219  0.047032632



 k-points in units of 2pi/SCALE and weight: pymatgen v2020.8.13 with grid density = 
   0.00000000  0.00000000  0.00000000       0.250
   0.05988661  0.00000000  0.00000000       0.250
   0.00000000  0.05988661  0.00000000       0.250
   0.05988661  0.05988661  0.00000000       0.250

 k-points in reciprocal lattice and weights: pymatgen v2020.8.13 with grid density = 
   0.00000000  0.00000000  0.00000000       0.250
   0.50000000  0.00000000  0.00000000       0.250
   0.00000000  0.50000000  0.00000000       0.250
   0.50000000  0.50000000  0.00000000       0.250

 position of ions in fractional coordinates (direct lattice) 
   0.54993671  0.54993677  0.75388077
   0.70170395  0.70170399  0.75366184
   0.52266793  0.52266814  0.80635007
   0.72967966  0.72967974  0.80600750
   0.25000000  0.00000000  0.35274474
   0.50000000  0.25000000  0.35274474
   0.25000000  0.25000000  0.45091491
   0.50000000  0.00000000  0.45091491
   0.25001473  0.00002522  0.54962058
   0.49998743  0.25025714  0.54977022
   0.24975791  0.24975789  0.64726655
   0.49974772  0.00102336  0.64705429
   0.25000000  0.50000000  0.35274474
   0.50000000  0.75000000  0.35274474
   0.25000000  0.75000000  0.45091491
   0.50000000  0.50000000  0.45091491
   0.25025711  0.49998753  0.54977019
   0.50032381  0.74970080  0.54982909
   0.24904608  0.75031753  0.64705553
   0.49835582  0.49835581  0.64899637
   0.75000000  0.00000000  0.35274474
   0.00000000  0.25000000  0.35274474
   0.75000000  0.25000000  0.45091491
   0.00000000  0.00000000  0.45091491
   0.75003919  0.99980354  0.54975602
   0.00002525  0.25001471  0.54962057
   0.75031751  0.24904611  0.64705556
   0.00031393  0.00031392  0.64725710
   0.75000000  0.50000000  0.35274474
   0.00000000  0.75000000  0.35274474
   0.75000000  0.75000000  0.45091491
   0.00000000  0.50000000  0.45091491
   0.74970078  0.50032376  0.54982908
   0.99980344  0.75003920  0.54975597
   0.75178178  0.75178180  0.64889874
   0.00102342  0.49974771  0.64705427
   0.25000000  0.00000000  0.45091491
   0.50000000  0.25000000  0.45091491
   0.25000000  0.25000000  0.35274474
   0.50000000  0.00000000  0.35274474
   0.24980555  0.00026477  0.64947029
   0.49986149  0.24900742  0.64931101
   0.25000475  0.25000481  0.54931776
   0.49999018  0.99981514  0.54935135
   0.25000000  0.50000000  0.45091491
   0.50000000  0.75000000  0.45091491
   0.25000000  0.75000000  0.35274474
   0.50000000  0.50000000  0.35274474
   0.24900749  0.49986144  0.64931103
   0.49841490  0.75171097  0.65004250
   0.25025023  0.75002465  0.54935516
   0.50021427  0.50021430  0.54990697
   0.75000000  0.00000000  0.45091491
   0.00000000  0.25000000  0.45091491
   0.75000000  0.25000000  0.35274474
   0.00000000  0.00000000  0.35274474
   0.75020992  0.00111395  0.64926792
   0.00026477  0.24980552  0.64947027
   0.75002466  0.25025028  0.54935516
   0.00004751  0.00004749  0.54930939
   0.75000000  0.50000000  0.45091491
   0.00000000  0.75000000  0.45091491
   0.75000000  0.75000000  0.35274474
   0.00000000  0.50000000  0.35274474
   0.75171098  0.49841492  0.65004249
   0.00111397  0.75020995  0.64926792
   0.74982918  0.74982922  0.54988411
   0.99981515  0.49999025  0.54935133

 position of ions in cartesian coordinates  (Angst):
   4.59148307  4.59148360 16.02888777
   5.85860476  5.85860505 16.02423293
   4.36381300  4.36381477 17.14448131
   6.09217708  6.09217778 17.13719760
   2.08727796  0.00000000  7.50000000
   4.17455591  2.08727796  7.50000000
   2.08727796  2.08727796  9.58727796
   4.17455591  0.00000000  9.58727796
   2.08740095  0.00021055 11.68594139
   4.17445101  2.08942481 11.68912304
   2.08525675  2.08525657 13.76207385
   4.17244956  0.00854416 13.75756078
   2.08727796  4.17455591  7.50000000
   4.17455591  6.26183387  7.50000000
   2.08727796  6.26183387  9.58727796
   4.17455591  4.17455591  9.58727796
   2.08942461  4.17445183 11.68912244
   4.17725944  6.25933583 11.69037484
   2.07931358  6.26448494 13.75758724
   4.16082847  4.16082835 13.79885296
   6.26183387  0.00000000  7.50000000
   0.00000000  2.08727796  7.50000000
   6.26183387  2.08727796  9.58727796
   0.00000000  0.00000000  9.58727796
   6.26216105  8.34747156 11.68882125
   0.00021078  2.08740077 11.68594127
   6.26448478  2.07931386 13.75758777
   0.00262101  0.00262093 13.76187285
   6.26183387  4.17455591  7.50000000
   0.00000000  6.26183387  7.50000000
   6.26183387  6.26183387  9.58727796
   0.00000000  4.17455591  9.58727796
   6.25933563  4.17725900 11.69037462
   8.34747077  6.26216113 11.68882014
   6.27671012  6.27671035 13.79677717
   0.00854464  4.17244954 13.75756040
   2.08727796  0.00000000  9.58727796
   4.17455591  2.08727796  9.58727796
   2.08727796  2.08727796  7.50000000
   4.17455591  0.00000000  7.50000000
   2.08565450  0.00221057 13.80892936
   4.17339946  2.07899081 13.80554292
   2.08731761  2.08731810 11.67950302
   4.17447391  8.34756839 11.68021710
   2.08727796  4.17455591  9.58727796
   4.17455591  6.26183387  9.58727796
   2.08727796  6.26183387  7.50000000
   4.17455591  4.17455591  7.50000000
   2.07899140  4.17339908 13.80554330
   4.16132169  6.27611897 13.82109571
   2.08936718  6.26203969 11.68029823
   4.17634489  4.17634515 11.69203063
   6.26183387  0.00000000  9.58727796
   0.00000000  2.08727796  9.58727796
   6.26183387  2.08727796  7.50000000
   0.00000000  0.00000000  7.50000000
   6.26358654  0.00930052 13.80462658
   0.00221061  2.08565419 13.80892899
   6.26203979  2.08936759 11.68029818
   0.00039668  0.00039651 11.67932497
   6.26183387  4.17455591  9.58727796
   0.00000000  6.26183387  9.58727796
   6.26183387  6.26183387  7.50000000
   0.00000000  4.17455591  7.50000000
   6.27611905  4.16132191 13.82109536
   0.00930069  6.26358673 13.80462661
   6.26040768  6.26040801 11.69154457
   8.34756848  4.17447452 11.68021667



--------------------------------------------------------------------------------------------------------

--------------------------------------- Iteration      FINAL  ---------------------------------------


--------------------OUTCAR has been truncated-------------------------


--------------------OUTCAR has been truncated-------------------------


--------------------OUTCAR has been truncated-------------------------


--------------------OUTCAR has been truncated-------------------------


--------------------OUTCAR has been truncated-------------------------


--------------------OUTCAR has been truncated-------------------------


--------------------OUTCAR has been truncated-------------------------


--------------------OUTCAR has been truncated-------------------------


--------------------OUTCAR has been truncated-------------------------


--------------------OUTCAR has been truncated-------------------------


    FORVDW:  cpu time      9.2675: real time      9.2681

  FORCE on cell =-STRESS in cart. coord.  units (eV):
  Direction    XX          YY          ZZ          XY          YZ          ZX
  --------------------------------------------------------------------------------------
  Alpha Z   969.95739   969.95739   969.95739
  Ewald  160456.68344160456.68322************   339.84007     0.74663     0.74629
  Hartree171258.75864171258.75850************   247.28979    -0.06243    -0.06250
  E(xc)   -1934.83409 -1934.83409 -1936.73128     0.38604     0.00200     0.00200
  Local  ************************340556.07735  -603.50183    -0.48339    -0.48302
  n-local  -763.65995  -763.65995  -801.35502    -6.95739    -0.01053    -0.01064
  augment   840.21569   840.21569   828.28065     2.43068    -0.00872    -0.00859
  Kinetic  7803.11660  7803.11660  7798.45607    22.14334    -0.23704    -0.23704
  Fock    -2538.87486 -2538.87486 -2539.29810    -1.67908    -0.00706    -0.00706
  vdW        -9.27460    -9.27462    -6.60856     0.03548    -0.00015    -0.00015
  -------------------------------------------------------------------------------------
  Total     -29.34367   -29.34368    -2.63854    -0.01289    -0.06070    -0.06071
  in kB     -31.72077   -31.72078    -2.85229    -0.01394    -0.06562    -0.06562
  external pressure =      -22.10 kB  Pullay stress =        0.00 kB


 VOLUME and BASIS-vectors are now :
 -----------------------------------------------------------------------------
  energy-cutoff  :      600.00
  volume of cell :     1482.11
      direct lattice vectors                 reciprocal lattice vectors
     8.349111827  0.000000000  0.000000000     0.119773219  0.000000000  0.000000000
     0.000000000  8.349111827  0.000000000     0.000000000  0.119773219  0.000000000
     0.000000000  0.000000000 21.261833870     0.000000000  0.000000000  0.047032632

  length of vectors
     8.349111827  8.349111827 21.261833870     0.119773219  0.119773219  0.047032632


 FORCES acting on ions:
    Electron-Ion                     Ewald-Force                    Non-Local-Force
 -----------------------------------------------------------------------------------------------
   0.536E+02 0.536E+02 -.113E+04   -.532E+02 -.532E+02 0.109E+04   -.396E+00 -.396E+00 0.389E+02
   -.523E+02 -.523E+02 -.113E+04   0.516E+02 0.516E+02 0.109E+04   0.598E+00 0.598E+00 0.389E+02
   0.145E+03 0.145E+03 -.164E+04   -.160E+03 -.160E+03 0.171E+04   0.120E+02 0.120E+02 -.524E+02
   -.147E+03 -.147E+03 -.164E+04   0.161E+03 0.161E+03 0.171E+04   -.123E+02 -.123E+02 -.523E+02
   0.198E+00 -.208E+00 0.216E+04   -.199E+00 0.209E+00 -.215E+04   0.636E-03 -.805E-03 -.683E+01
   0.208E+00 0.198E+00 0.216E+04   -.209E+00 -.198E+00 -.215E+04   0.789E-03 -.476E-03 -.683E+01
   0.750E+00 0.750E+00 0.778E+03   -.753E+00 -.753E+00 -.778E+03   0.250E-02 0.250E-02 0.402E+00
   0.794E+00 -.109E+01 0.779E+03   -.800E+00 0.108E+01 -.780E+03   0.393E-02 0.781E-02 0.412E+00
   0.434E+01 -.442E+01 -.597E+03   -.434E+01 0.443E+01 0.597E+03   0.514E-02 -.738E-02 -.163E+00
   0.449E+01 0.646E+01 -.587E+03   -.450E+01 -.640E+01 0.587E+03   0.786E-02 -.573E-01 -.339E+00
   0.219E+02 0.219E+02 -.199E+04   -.220E+02 -.220E+02 0.198E+04   0.109E+00 0.109E+00 0.580E+01
   0.242E+02 -.305E+02 -.196E+04   -.243E+02 0.308E+02 0.196E+04   0.101E+00 -.297E+00 0.582E+01
   0.198E+00 0.208E+00 0.216E+04   -.198E+00 -.209E+00 -.215E+04   -.475E-03 0.789E-03 -.683E+01
   0.212E+00 -.200E+00 0.216E+04   -.211E+00 0.199E+00 -.215E+04   -.472E-03 0.552E-03 -.683E+01
   0.105E+01 -.749E+00 0.779E+03   -.104E+01 0.753E+00 -.780E+03   -.104E-01 -.338E-02 0.413E+00
   0.112E+01 0.112E+01 0.780E+03   -.111E+01 -.111E+01 -.781E+03   -.687E-02 -.687E-02 0.579E+00
   0.646E+01 0.449E+01 -.587E+03   -.640E+01 -.450E+01 0.587E+03   -.573E-01 0.784E-02 -.339E+00
   0.678E+01 -.663E+01 -.576E+03   -.672E+01 0.656E+01 0.576E+03   -.559E-01 0.651E-01 0.922E-01
   0.299E+02 -.238E+02 -.196E+04   -.303E+02 0.239E+02 0.196E+04   0.312E+00 -.100E+00 0.582E+01
   0.449E+02 0.449E+02 -.184E+04   -.456E+02 -.456E+02 0.184E+04   0.546E+00 0.546E+00 0.380E+01
   -.198E+00 -.210E+00 0.216E+04   0.199E+00 0.210E+00 -.215E+04   -.718E-03 0.238E-03 -.682E+01
   -.208E+00 0.198E+00 0.216E+04   0.209E+00 -.199E+00 -.215E+04   -.805E-03 0.636E-03 -.683E+01
   -.749E+00 0.105E+01 0.779E+03   0.753E+00 -.104E+01 -.780E+03   -.338E-02 -.104E-01 0.413E+00
   -.790E+00 -.790E+00 0.778E+03   0.797E+00 0.797E+00 -.778E+03   -.470E-02 -.471E-02 0.399E+00
   -.439E+01 -.665E+01 -.586E+03   0.440E+01 0.659E+01 0.587E+03   -.656E-02 0.516E-01 -.345E+00
   -.442E+01 0.434E+01 -.597E+03   0.443E+01 -.434E+01 0.597E+03   -.739E-02 0.515E-02 -.163E+00
   -.238E+02 0.299E+02 -.196E+04   0.239E+02 -.303E+02 0.196E+04   -.100E+00 0.312E+00 0.582E+01
   -.223E+02 -.223E+02 -.199E+04   0.225E+02 0.225E+02 0.198E+04   -.110E+00 -.110E+00 0.581E+01
   -.200E+00 0.212E+00 0.216E+04   0.199E+00 -.211E+00 -.215E+04   0.552E-03 -.472E-03 -.683E+01
   -.210E+00 -.198E+00 0.216E+04   0.210E+00 0.199E+00 -.215E+04   0.238E-03 -.718E-03 -.682E+01
   -.107E+01 -.107E+01 0.780E+03   0.106E+01 0.106E+01 -.781E+03   0.674E-02 0.673E-02 0.574E+00
   -.109E+01 0.795E+00 0.779E+03   0.108E+01 -.800E+00 -.780E+03   0.781E-02 0.393E-02 0.412E+00
   -.663E+01 0.678E+01 -.576E+03   0.656E+01 -.672E+01 0.576E+03   0.651E-01 -.559E-01 0.922E-01
   -.665E+01 -.439E+01 -.586E+03   0.659E+01 0.440E+01 0.587E+03   0.516E-01 -.656E-02 -.345E+00
   -.444E+02 -.444E+02 -.184E+04   0.450E+02 0.450E+02 0.184E+04   -.551E+00 -.551E+00 0.375E+01
   -.305E+02 0.242E+02 -.196E+04   0.308E+02 -.243E+02 0.196E+04   -.297E+00 0.101E+00 0.582E+01
   0.623E+00 -.647E+00 0.583E+03   -.625E+00 0.647E+00 -.583E+03   0.257E-02 -.803E-03 -.105E+00
   0.650E+00 0.635E+00 0.584E+03   -.651E+00 -.664E+00 -.584E+03   0.188E-02 0.355E-01 -.104E+00
   0.138E+00 0.138E+00 0.162E+04   -.139E+00 -.139E+00 -.162E+04   0.126E-02 0.126E-02 0.300E+01
   0.146E+00 -.170E+00 0.162E+04   -.147E+00 0.170E+00 -.162E+04   0.159E-02 0.351E-03 0.300E+01
   0.117E+02 -.119E+02 -.152E+04   -.117E+02 0.118E+02 0.152E+04   -.696E-01 0.696E-01 -.455E+01
   0.135E+02 0.326E+02 -.149E+04   -.134E+02 -.324E+02 0.149E+04   -.750E-01 -.179E+00 -.456E+01
   0.378E+01 0.378E+01 -.441E+03   -.378E+01 -.378E+01 0.441E+03   -.142E-02 -.143E-02 0.258E+00
   0.390E+01 -.439E+01 -.434E+03   -.389E+01 0.440E+01 0.434E+03   -.828E-02 -.113E-01 0.337E+00
   0.634E+00 0.650E+00 0.584E+03   -.664E+00 -.651E+00 -.584E+03   0.355E-01 0.188E-02 -.104E+00
   0.700E+00 -.659E+00 0.585E+03   -.735E+00 0.691E+00 -.585E+03   0.402E-01 -.381E-01 -.117E+00
   0.162E+00 -.138E+00 0.162E+04   -.162E+00 0.139E+00 -.162E+04   -.549E-03 -.124E-02 0.300E+01
   0.171E+00 0.171E+00 0.162E+04   -.171E+00 -.171E+00 -.162E+04   -.482E-03 -.482E-03 0.301E+01
   0.326E+02 0.135E+02 -.149E+04   -.324E+02 -.134E+02 0.149E+04   -.179E+00 -.750E-01 -.456E+01
   0.426E+02 -.420E+02 -.142E+04   -.423E+02 0.417E+02 0.143E+04   -.298E+00 0.296E+00 -.413E+01
   0.431E+01 -.382E+01 -.434E+03   -.432E+01 0.381E+01 0.434E+03   0.122E-01 0.829E-02 0.335E+00
   0.460E+01 0.460E+01 -.430E+03   -.462E+01 -.462E+01 0.430E+03   0.148E-01 0.148E-01 -.413E-01
   -.619E+00 -.673E+00 0.584E+03   0.619E+00 0.700E+00 -.584E+03   0.141E-03 -.316E-01 -.101E+00
   -.647E+00 0.623E+00 0.583E+03   0.647E+00 -.625E+00 -.583E+03   -.802E-03 0.257E-02 -.105E+00
   -.138E+00 0.162E+00 0.162E+04   0.139E+00 -.162E+00 -.162E+04   -.124E-02 -.548E-03 0.300E+01
   -.146E+00 -.146E+00 0.162E+04   0.147E+00 0.147E+00 -.162E+04   -.150E-02 -.150E-02 0.300E+01
   -.133E+02 -.331E+02 -.148E+04   0.132E+02 0.329E+02 0.149E+04   0.777E-01 0.181E+00 -.456E+01
   -.119E+02 0.117E+02 -.152E+04   0.118E+02 -.117E+02 0.152E+04   0.696E-01 -.696E-01 -.455E+01
   -.382E+01 0.431E+01 -.434E+03   0.381E+01 -.432E+01 0.434E+03   0.829E-02 0.122E-01 0.335E+00
   -.386E+01 -.386E+01 -.441E+03   0.386E+01 0.386E+01 0.440E+03   0.336E-02 0.336E-02 0.256E+00
   -.659E+00 0.700E+00 0.585E+03   0.691E+00 -.735E+00 -.585E+03   -.381E-01 0.402E-01 -.117E+00
   -.673E+00 -.619E+00 0.584E+03   0.700E+00 0.619E+00 -.584E+03   -.316E-01 0.142E-03 -.100E+00
   -.163E+00 -.163E+00 0.162E+04   0.163E+00 0.163E+00 -.162E+04   0.870E-03 0.869E-03 0.301E+01
   -.170E+00 0.146E+00 0.162E+04   0.170E+00 -.147E+00 -.162E+04   0.351E-03 0.159E-02 0.300E+01
   -.420E+02 0.426E+02 -.142E+04   0.417E+02 -.423E+02 0.143E+04   0.296E+00 -.298E+00 -.413E+01
   -.331E+02 -.133E+02 -.148E+04   0.329E+02 0.132E+02 0.149E+04   0.181E+00 0.777E-01 -.456E+01
   -.448E+01 -.448E+01 -.429E+03   0.449E+01 0.449E+01 0.429E+03   -.137E-01 -.137E-01 -.220E-01
   -.439E+01 0.390E+01 -.434E+03   0.440E+01 -.389E+01 0.434E+03   -.113E-01 -.828E-02 0.337E+00
 -----------------------------------------------------------------------------------------------
   0.822E-01 0.823E-01 0.601E+02   0.284E-12 -.426E-12 -.227E-12   -.596E-01 -.597E-01 -.476E+02


 POSITION                                       TOTAL-FORCE (eV/Angst)
 -----------------------------------------------------------------------------------
      4.59155      4.59155     16.02879         0.007021      0.007021      0.012672
      5.85857      5.85857     16.02396        -0.000118     -0.000118     -0.000654
      4.36373      4.36373     17.14465        -0.007500     -0.007501     -0.002145
      6.09218      6.09218     17.13741        -0.007497     -0.007496     -0.007534
      2.08728      0.00000      7.50000        -0.000247      0.000331      0.428347
      4.17456      2.08728      7.50000        -0.000318      0.000045      0.426404
      2.08728      2.08728      9.58728        -0.000326     -0.000325      0.059347
      4.17456      0.00000      9.58728        -0.000853     -0.002876      0.066415
      2.08740      0.00021     11.68593         0.000233     -0.000121     -0.001063
      4.17447      2.08944     11.68913         0.002577      0.003381      0.000831
      2.08526      2.08526     13.76208         0.001005      0.001005      0.000552
      4.17245      0.00854     13.75756         0.000682      0.000269     -0.000264
      2.08728      4.17456      7.50000         0.000045     -0.000318      0.426403
      4.17456      6.26183      7.50000         0.000051     -0.000069      0.426837
      2.08728      6.26183      9.58728         0.004118      0.000754      0.066253
      4.17456      4.17456      9.58728         0.001968      0.001967      0.076825
      2.08944      4.17447     11.68913         0.003381      0.002570      0.000837
      4.17727      6.25933     11.69038         0.001754     -0.001643      0.001243
      2.07932      6.26448     13.75758         0.000865     -0.000302     -0.000314
      4.16083      4.16083     13.79884         0.000771      0.000773     -0.001594
      6.26183      0.00000      7.50000         0.000301      0.000062      0.426210
      0.00000      2.08728      7.50000         0.000330     -0.000247      0.428347
      6.26183      2.08728      9.58728         0.000752      0.004117      0.066254
      0.00000      0.00000      9.58728         0.001337      0.001336      0.058964
      6.26215      8.34746     11.68883        -0.002147     -0.001804      0.000878
      0.00021      2.08740     11.68593        -0.000121      0.000238     -0.001063
      6.26448      2.07932     13.75758        -0.000302      0.000864     -0.000318
      0.00262      0.00262     13.76187        -0.000798     -0.000798     -0.000197
      6.26183      4.17456      7.50000        -0.000069      0.000051      0.426837
      0.00000      6.26183      7.50000         0.000061      0.000301      0.426209
      6.26183      6.26183      9.58728        -0.001744     -0.001742      0.075629
      0.00000      4.17456      9.58728        -0.002877     -0.000855      0.066414
      6.25933      4.17727     11.69038        -0.001641      0.001759      0.001245
      8.34746      6.26215     11.68882        -0.001799     -0.002147      0.000889
      6.27671      6.27671     13.79677         0.000101      0.000098     -0.000829
      0.00854      4.17245     13.75756         0.000267      0.000681     -0.000264
      2.08728      0.00000      9.58728         0.001149     -0.000624      0.057231
      4.17456      2.08728      9.58728         0.001170      0.012112      0.076430
      2.08728      2.08728      7.50000         0.000432      0.000432     -0.565258
      4.17456      0.00000      7.50000         0.000545      0.000152     -0.564296
      2.08566      0.00220     13.80893         0.001720     -0.001810     -0.000559
      4.17340      2.07899     13.80553         0.000371     -0.000598     -0.002635
      2.08732      2.08732     11.67952         0.001226      0.001221      0.002753
      4.17448      8.34756     11.68021         0.001879     -0.002439     -0.000830
      2.08728      4.17456      9.58728         0.012112      0.001171      0.076428
      4.17456      6.26183      9.58728         0.013399     -0.012716      0.077386
      2.08728      6.26183      7.50000        -0.000198     -0.000401     -0.564284
      4.17456      4.17456      7.50000        -0.000179     -0.000179     -0.563851
      2.07899      4.17340     13.80553        -0.000603      0.000374     -0.002639
      4.16133      6.27610     13.82107         0.001052     -0.002969     -0.003993
      2.08937      6.26204     11.68029         0.001320     -0.000494     -0.001945
      4.17635      4.17635     11.69204         0.001596      0.001595      0.002396
      6.26183      0.00000      9.58728        -0.000529     -0.010844      0.076101
      0.00000      2.08728      9.58728        -0.000624      0.001149      0.057230
      6.26183      2.08728      7.50000        -0.000400     -0.000197     -0.564284
      0.00000      0.00000      7.50000        -0.000495     -0.000495     -0.565168
      6.26359      0.00930     13.80462         0.000223     -0.000293     -0.002229
      0.00220      2.08566     13.80893        -0.001811      0.001722     -0.000556
      6.26204      2.08937     11.68029        -0.000497      0.001316     -0.001942
      0.00039      0.00039     11.67934        -0.001976     -0.001974      0.002534
      6.26183      4.17456      9.58728        -0.012716      0.013400      0.077386
      0.00000      6.26183      9.58728        -0.010844     -0.000529      0.076098
      6.26183      6.26183      7.50000         0.000338      0.000338     -0.563721
      0.00000      4.17456      7.50000         0.000153      0.000545     -0.564295
      6.27610      4.16133     13.82107        -0.002969      0.001050     -0.003992
      0.00930      6.26359     13.80462        -0.000295      0.000221     -0.002231
      6.26040      6.26040     11.69156        -0.001367     -0.001369      0.002959
      8.34756      4.17449     11.68021        -0.002441      0.001874     -0.000827
 -----------------------------------------------------------------------------------
    total drift:                               -0.000676     -0.000674      0.005003


--------------------------------------------------------------------------------------------------------



  FREE ENERGIE OF THE ION-ELECTRON SYSTEM (eV)
  ---------------------------------------------------
  free  energy   TOTEN  =      -507.62454031 eV

  energy  without entropy=     -507.62454031  energy(sigma->0) =     -507.62454031

 d Force = 0.1100979E-02[-0.344E-05, 0.221E-02]  d Energy = 0.1106318E-02-0.534E-05
 d Force =-0.6443915E+00[-0.652E+00,-0.637E+00]  d Ewald  =-0.6443838E+00-0.772E-05


--------------------------------------------------------------------------------------------------------


    POTLOK:  cpu time      0.4553: real time      0.4553


--------------------------------------------------------------------------------------------------------




--------------------------------------------------------------------------------------------------------


  
 reached required accuracy - stopping structural energy minimisation
     LOOP+:  cpu time   1933.3402: real time   1933.6833
    4ORBIT:  cpu time      0.0000: real time      0.0000

 total amount of memory used by VASP MPI-rank0   234234. kBytes
=======================================================================

   base      :      30000. kBytes
   nonl-proj :      17260. kBytes
   fftplans  :       8074. kBytes
   grid      :       8190. kBytes
   one-center:         73. kBytes
   HF        :        101. kBytes
   nonlr-proj:      45365. kBytes
   wavefun   :       3684. kBytes
   fock_wrk  :     121487. kBytes

  
  
 General timing and accounting informations for this job:
 ========================================================
  
                  Total CPU time used (sec):     7578.629
                            User time (sec):     7559.961
                          System time (sec):       18.668
                         Elapsed time (sec):     7610.534
  
                   Maximum memory used (kb):      463876.
                   Average memory used (kb):          N/A
  
                          Minor page faults:       522196
                          Major page faults:           50
                 Voluntary context switches:        28478
