 vasp.6.3.0 20Jan22 (build Apr  1 2022 16:44:48) gamma-only                      
 executed on        HPECrayEX_GCC date 2023.03.12  00:39:25
 running  768 mpi-ranks, with    1 threads/rank
 distrk:  each k-point on  768 cores,    1 groups
 distr:  one band on NCORE=   8 cores,   96 groups


--------------------------------------------------------------------------------------------------------


 INCAR:
   SYSTEM = MgO-rocksalt
   ISMEAR = 0
   SIGMA = 0.05
   EDIFF = 1E-6
   ALGO = ALL
   ISTART = 0
   IBRION = -1
   NSW = 0
   ISYM = 0
   DIPOL = 0.5 0.5 0.5
   IDIPOL = 3
   LDIPOL = .TRUE.
   GGA = RE
   IVDW = 13
   VDW_S8 = 1.7468
   VDW_A1 = 0.5363
   VDW_A2 = 3.0726
   ENCUT = 520
   PREC = Accurate
   LASPH = .TRUE.
   LREAL = Auto
   ISPIN = 1
   NELM = 200
   NELMIN = 8
   NCORE = 8
   KPAR = 1
   LWAVE = .FALSE.
   LCHARG = .FALSE.

 POTCAR:    PAW_PBE C 08Apr2002                   
 POTCAR:    PAW_PBE O 08Apr2002                   
 POTCAR:    PAW_PBE H 15Jun2001                   
 POTCAR:    PAW_PBE Mg_pv 13Apr2007               
 POTCAR:    PAW_PBE O 08Apr2002                   
 POTCAR:    PAW_PBE C 08Apr2002                   
   SHA256 =  253f7b50bb8d59471dbedb8285d89021f4a42ed1a2c5d38a03a736e69125dd95 C/POTCAR              
   COPYR  = (c) Copyright 08Apr2002 Georg Kresse                                                    
   COPYR  = This file is part of the software VASP. Any use, copying, and all other rights are regul
   COPYR  = If you do not have a valid VASP license, you may not use, copy or distribute this file. 
   VRHFIN =C: s2p2                                                                                  
   LEXCH  = PE                                                                                      
   EATOM  =   147.1560 eV,   10.8157 Ry                                                             
                                                                                                    
   TITEL  = PAW_PBE C 08Apr2002                                                                     
   LULTRA =        F    use ultrasoft PP ?                                                          
   IUNSCR =        1    unscreen: 0-lin 1-nonlin 2-no                                               
   RPACOR =    1.200    partial core radius                                                         
   POMASS =   12.011; ZVAL   =    4.000    mass and valenz                                          
   RCORE  =    1.500    outmost cutoff radius                                                       
   RWIGS  =    1.630; RWIGS  =    0.863    wigner-seitz radius (au A)                               
   ENMAX  =  400.000; ENMIN  =  300.000 eV                                                          
   ICORE  =        2    local potential                                                             
   LCOR   =        T    correct aug charges                                                         
   LPAW   =        T    paw PP                                                                      
   EAUG   =  644.873                                                                                
   DEXC   =    0.000                                                                                
   RMAX   =    1.529    core radius for proj-oper                                                   
   RAUG   =    1.300    factor for augmentation sphere                                              
   RDEP   =    1.501    radius for radial grids                                                     
   RDEPT  =    1.300    core radius for aug-charge                                                  
                                                                                                    
   Atomic configuration                                                                             
    4 entries                                                                                       
     n  l   j            E        occ.                                                              
     1  0  0.50      -273.3789   2.0000                                                             
     2  0  0.50       -13.7508   2.0000                                                             
     2  1  0.50        -5.2854   2.0000                                                             
     3  2  1.50        -5.4423   0.0000                                                             
   Description                                                                                      
     l       E           TYP  RCUT    TYP  RCUT                                                     
     0    -13.7508458     23  1.200                                                                 
     0     -8.2022199     23  1.200                                                                 
     1     -5.2854383     23  1.500                                                                 
     1     34.0145650     23  1.500                                                                 
     2     -5.4423304      7  1.500                                                                 
  local pseudopotential read in
  partial core-charges read in
  partial kinetic energy density read in
  atomic valenz-charges read in
  non local Contribution for L=           0  read in
    real space projection operators read in
  non local Contribution for L=           0  read in
    real space projection operators read in
  non local Contribution for L=           1  read in
    real space projection operators read in
  non local Contribution for L=           1  read in
    real space projection operators read in
    PAW grid and wavefunctions read in

   number of l-projection  operators is LMAX  =           4
   number of lm-projection operators is LMMAX =           8

 POTCAR:    PAW_PBE O 08Apr2002                   
   SHA256 =  818f92134a0a090dccd8ba1447fa70422a3b330e708bb4f08108d8ae51209ddf O/POTCAR              
   COPYR  = (c) Copyright 08Apr2002 Georg Kresse                                                    
   COPYR  = This file is part of the software VASP. Any use, copying, and all other rights are regul
   COPYR  = If you do not have a valid VASP license, you may not use, copy or distribute this file. 
   VRHFIN =O: s2p4                                                                                  
   LEXCH  = PE                                                                                      
   EATOM  =   432.3788 eV,   31.7789 Ry                                                             
                                                                                                    
   TITEL  = PAW_PBE O 08Apr2002                                                                     
   LULTRA =        F    use ultrasoft PP ?                                                          
   IUNSCR =        1    unscreen: 0-lin 1-nonlin 2-no                                               
   RPACOR =    1.200    partial core radius                                                         
   POMASS =   16.000; ZVAL   =    6.000    mass and valenz                                          
   RCORE  =    1.520    outmost cutoff radius                                                       
   RWIGS  =    1.550; RWIGS  =    0.820    wigner-seitz radius (au A)                               
   ENMAX  =  400.000; ENMIN  =  300.000 eV                                                          
   ICORE  =        2    local potential                                                             
   LCOR   =        T    correct aug charges                                                         
   LPAW   =        T    paw PP                                                                      
   EAUG   =  605.392                                                                                
   DEXC   =    0.000                                                                                
   RMAX   =    1.553    core radius for proj-oper                                                   
   RAUG   =    1.300    factor for augmentation sphere                                              
   RDEP   =    1.550    radius for radial grids                                                     
   RDEPT  =    1.329    core radius for aug-charge                                                  
                                                                                                    
   Atomic configuration                                                                             
    4 entries                                                                                       
     n  l   j            E        occ.                                                              
     1  0  0.50      -514.6923   2.0000                                                             
     2  0  0.50       -23.9615   2.0000                                                             
     2  1  0.50        -9.0305   4.0000                                                             
     3  2  1.50        -9.5241   0.0000                                                             
   Description                                                                                      
     l       E           TYP  RCUT    TYP  RCUT                                                     
     0    -23.9615318     23  1.200                                                                 
     0     -9.5240782     23  1.200                                                                 
     1     -9.0304911     23  1.520                                                                 
     1      8.1634956     23  1.520                                                                 
     2     -9.5240782      7  1.500                                                                 
  local pseudopotential read in
  partial core-charges read in
  partial kinetic energy density read in
  kinetic energy density of atom read in
  atomic valenz-charges read in
  non local Contribution for L=           0  read in
    real space projection operators read in
  non local Contribution for L=           0  read in
    real space projection operators read in
  non local Contribution for L=           1  read in
    real space projection operators read in
  non local Contribution for L=           1  read in
    real space projection operators read in
    PAW grid and wavefunctions read in

   number of l-projection  operators is LMAX  =           4
   number of lm-projection operators is LMMAX =           8

 POTCAR:    PAW_PBE H 15Jun2001                   
   SHA256 =  030f79b5d3ab3cf0e668861823c8fb652ff669f3e15e46930bd03bfd63a607b6 H/POTCAR              
   COPYR  = (c) Copyright 15Jun2001 Georg Kresse                                                    
   COPYR  = This file is part of the software VASP. Any use, copying, and all other rights are regul
   COPYR  = If you do not have a valid VASP license, you may not use, copy or distribute this file. 
   VRHFIN =H: ultrasoft test                                                                        
   LEXCH  = PE                                                                                      
   EATOM  =    12.4884 eV,    0.9179 Ry                                                             
                                                                                                    
   TITEL  = PAW_PBE H 15Jun2001                                                                     
   LULTRA =        F    use ultrasoft PP ?                                                          
   IUNSCR =        0    unscreen: 0-lin 1-nonlin 2-no                                               
   RPACOR =    0.000    partial core radius                                                         
   POMASS =    1.000; ZVAL   =    1.000    mass and valenz                                          
   RCORE  =    1.100    outmost cutoff radius                                                       
   RWIGS  =    0.700; RWIGS  =    0.370    wigner-seitz radius (au A)                               
   ENMAX  =  250.000; ENMIN  =  200.000 eV                                                          
   RCLOC  =    0.701    cutoff for local pot                                                        
   LCOR   =        T    correct aug charges                                                         
   LPAW   =        T    paw PP                                                                      
   EAUG   =  400.000                                                                                
   RMAX   =    1.123    core radius for proj-oper                                                   
   RAUG   =    1.200    factor for augmentation sphere                                              
   RDEP   =    1.112    radius for radial grids                                                     
   RDEPT  =    0.926    core radius for aug-charge                                                  
                                                                                                    
   Atomic configuration                                                                             
    2 entries                                                                                       
     n  l   j            E        occ.                                                              
     1  0  0.50        -6.4927   1.0000                                                             
     2  1  0.50        -3.4015   0.0000                                                             
   Description                                                                                      
     l       E           TYP  RCUT    TYP  RCUT                                                     
     0     -6.4927494     23  1.100                                                                 
     0      6.8029130     23  1.100                                                                 
     1     -4.0817478     23  1.100                                                                 
  local pseudopotential read in
  atomic valenz-charges read in
  non local Contribution for L=           0  read in
    real space projection operators read in
  non local Contribution for L=           0  read in
    real space projection operators read in
  non local Contribution for L=           1  read in
    real space projection operators read in
    PAW grid and wavefunctions read in

   number of l-projection  operators is LMAX  =           3
   number of lm-projection operators is LMMAX =           5

 POTCAR:    PAW_PBE Mg_pv 13Apr2007               
   SHA256 =  f474ac0dd33840b9ae76c01d57fea79fdf77cdfbb07d5ade72c65f83c709b62b Mg_pv/POTCAR          
   COPYR  = (c) Copyright 13Apr2007 Georg Kresse                                                    
   COPYR  = This file is part of the software VASP. Any use, copying, and all other rights are regul
   COPYR  = If you do not have a valid VASP license, you may not use, copy or distribute this file. 
   VRHFIN =Mg: p6s2                                                                                 
   LEXCH  = PE                                                                                      
   EATOM  =  1056.7344 eV,   77.6678 Ry                                                             
                                                                                                    
   TITEL  = PAW_PBE Mg_pv 13Apr2007                                                                 
   LULTRA =        F    use ultrasoft PP ?                                                          
   IUNSCR =        1    unscreen: 0-lin 1-nonlin 2-no                                               
   RPACOR =    1.500    partial core radius                                                         
   POMASS =   24.305; ZVAL   =    8.000    mass and valenz                                          
   RCORE  =    2.000    outmost cutoff radius                                                       
   RWIGS  =    2.000; RWIGS  =    1.058    wigner-seitz radius (au A)                               
   ENMAX  =  403.929; ENMIN  =  302.947 eV                                                          
   RCLOC  =    1.506    cutoff for local pot                                                        
   LCOR   =        T    correct aug charges                                                         
   LPAW   =        T    paw PP                                                                      
   EAUG   =  758.780                                                                                
   DEXC   =    0.000                                                                                
   RMAX   =    2.045    core radius for proj-oper                                                   
   RAUG   =    1.300    factor for augmentation sphere                                              
   RDEP   =    2.025    radius for radial grids                                                     
   RDEPT  =    1.557    core radius for aug-charge                                                  
                                                                                                    
   Atomic configuration                                                                             
    5 entries                                                                                       
     n  l   j            E        occ.                                                              
     1  0  0.50     -1259.6230   2.0000                                                             
     2  0  0.50       -79.8442   2.0000                                                             
     2  1  1.50       -46.6121   6.0000                                                             
     3  0  0.50        -4.7055   2.0000                                                             
     3  2  1.50        -1.3606   0.0000                                                             
   Description                                                                                      
     l       E           TYP  RCUT    TYP  RCUT                                                     
     1    -46.6121073     23  1.600                                                                 
     1      2.7211652     23  1.600                                                                 
     0     -4.7054661     23  2.000                                                                 
     0     61.2262170     23  2.000                                                                 
     2     -1.3605826     23  2.000                                                                 
  local pseudopotential read in
  partial core-charges read in
  partial kinetic energy density read in
  atomic valenz-charges read in
  non local Contribution for L=           1  read in
    real space projection operators read in
  non local Contribution for L=           1  read in
    real space projection operators read in
  non local Contribution for L=           0  read in
    real space projection operators read in
  non local Contribution for L=           0  read in
    real space projection operators read in
  non local Contribution for L=           2  read in
    real space projection operators read in
    PAW grid and wavefunctions read in

   number of l-projection  operators is LMAX  =           5
   number of lm-projection operators is LMMAX =          13

 POTCAR:    PAW_PBE O 08Apr2002                   
   SHA256 =  818f92134a0a090dccd8ba1447fa70422a3b330e708bb4f08108d8ae51209ddf O/POTCAR              
   COPYR  = (c) Copyright 08Apr2002 Georg Kresse                                                    
   COPYR  = This file is part of the software VASP. Any use, copying, and all other rights are regul
   COPYR  = If you do not have a valid VASP license, you may not use, copy or distribute this file. 
   VRHFIN =O: s2p4                                                                                  
   LEXCH  = PE                                                                                      
   EATOM  =   432.3788 eV,   31.7789 Ry                                                             
                                                                                                    
   TITEL  = PAW_PBE O 08Apr2002                                                                     
   LULTRA =        F    use ultrasoft PP ?                                                          
   IUNSCR =        1    unscreen: 0-lin 1-nonlin 2-no                                               
   RPACOR =    1.200    partial core radius                                                         
   POMASS =   16.000; ZVAL   =    6.000    mass and valenz                                          
   RCORE  =    1.520    outmost cutoff radius                                                       
   RWIGS  =    1.550; RWIGS  =    0.820    wigner-seitz radius (au A)                               
   ENMAX  =  400.000; ENMIN  =  300.000 eV                                                          
   ICORE  =        2    local potential                                                             
   LCOR   =        T    correct aug charges                                                         
   LPAW   =        T    paw PP                                                                      
   EAUG   =  605.392                                                                                
   DEXC   =    0.000                                                                                
   RMAX   =    1.553    core radius for proj-oper                                                   
   RAUG   =    1.300    factor for augmentation sphere                                              
   RDEP   =    1.550    radius for radial grids                                                     
   RDEPT  =    1.329    core radius for aug-charge                                                  
                                                                                                    
   Atomic configuration                                                                             
    4 entries                                                                                       
     n  l   j            E        occ.                                                              
     1  0  0.50      -514.6923   2.0000                                                             
     2  0  0.50       -23.9615   2.0000                                                             
     2  1  0.50        -9.0305   4.0000                                                             
     3  2  1.50        -9.5241   0.0000                                                             
   Description                                                                                      
     l       E           TYP  RCUT    TYP  RCUT                                                     
     0    -23.9615318     23  1.200                                                                 
     0     -9.5240782     23  1.200                                                                 
     1     -9.0304911     23  1.520                                                                 
     1      8.1634956     23  1.520                                                                 
     2     -9.5240782      7  1.500                                                                 
  local pseudopotential read in
  partial core-charges read in
  partial kinetic energy density read in
  kinetic energy density of atom read in
  atomic valenz-charges read in
  non local Contribution for L=           0  read in
    real space projection operators read in
  non local Contribution for L=           0  read in
    real space projection operators read in
  non local Contribution for L=           1  read in
    real space projection operators read in
  non local Contribution for L=           1  read in
    real space projection operators read in
    PAW grid and wavefunctions read in

   number of l-projection  operators is LMAX  =           4
   number of lm-projection operators is LMMAX =           8

 Optimization of the real space projectors (new method)

 maximal supplied QI-value         = 25.13
 optimisation between [QCUT,QGAM] = [ 11.56, 23.12] = [ 37.43,149.72] Ry 
 Optimized for a Real-space Cutoff    1.04 Angstroem

   l    n(q)    QCUT    max X(q) W(low)/X(q) W(high)/X(q)  e(spline) 
   0      7    11.561   115.676    0.20E-03    0.60E-03    0.21E-06
   0      7    11.561    87.132    0.20E-03    0.59E-03    0.21E-06
   1      7    11.561     4.429    0.23E-03    0.35E-03    0.15E-06
   1      7    11.561     2.733    0.18E-03    0.25E-03    0.12E-06
 Optimization of the real space projectors (new method)

 maximal supplied QI-value         = 24.76
 optimisation between [QCUT,QGAM] = [ 11.64, 23.27] = [ 37.91,151.63] Ry 
 Optimized for a Real-space Cutoff    1.14 Angstroem

   l    n(q)    QCUT    max X(q) W(low)/X(q) W(high)/X(q)  e(spline) 
   0      8    11.635    20.381    0.10E-03    0.33E-03    0.24E-06
   0      8    11.635    15.268    0.11E-03    0.35E-03    0.26E-06
   1      7    11.635     5.964    0.24E-03    0.31E-03    0.30E-06
   1      7    11.635     5.382    0.22E-03    0.25E-03    0.26E-06
 Optimization of the real space projectors (new method)

 maximal supplied QI-value         = 34.20
 optimisation between [QCUT,QGAM] = [ 11.63, 23.26] = [ 37.87,151.49] Ry 
 Optimized for a Real-space Cutoff    1.21 Angstroem

   l    n(q)    QCUT    max X(q) W(low)/X(q) W(high)/X(q)  e(spline) 
   0      8    11.629    19.460    0.17E-03    0.34E-03    0.21E-06
   0      8    11.629    12.209    0.16E-03    0.33E-03    0.21E-06
   1      8    11.629     4.655    0.18E-03    0.16E-03    0.26E-06
 Optimization of the real space projectors (new method)

 maximal supplied QI-value         = 18.90
 optimisation between [QCUT,QGAM] = [ 11.53, 23.24] = [ 37.21,151.29] Ry 
 Optimized for a Real-space Cutoff    1.28 Angstroem

   l    n(q)    QCUT    max X(q) W(low)/X(q) W(high)/X(q)  e(spline) 
   1      8    11.527     2.974    0.44E-04    0.56E-04    0.12E-06
   1      8    11.527     4.279    0.12E-03    0.12E-03    0.26E-06
   0      9    11.527    16.381    0.46E-04    0.64E-04    0.78E-07
   0      9    11.527     5.611    0.26E-04    0.43E-04    0.55E-07
   2      8    11.527     4.652    0.22E-03    0.72E-04    0.47E-07
 Optimization of the real space projectors (new method)

 maximal supplied QI-value         = 24.76
 optimisation between [QCUT,QGAM] = [ 11.64, 23.27] = [ 37.91,151.63] Ry 
 Optimized for a Real-space Cutoff    1.14 Angstroem

   l    n(q)    QCUT    max X(q) W(low)/X(q) W(high)/X(q)  e(spline) 
   0      8    11.635    20.381    0.10E-03    0.33E-03    0.24E-06
   0      8    11.635    15.268    0.11E-03    0.35E-03    0.26E-06
   1      7    11.635     5.964    0.24E-03    0.31E-03    0.30E-06
   1      7    11.635     5.382    0.22E-03    0.25E-03    0.26E-06
 -----------------------------------------------------------------------------
|                                                                             |
|               ----> ADVICE to this user running VASP <----                  |
|                                                                             |
|     You enforced a specific xc type in the INCAR file but a different       |
|     type was found in the POTCAR file.                                      |
|     I HOPE YOU KNOW WHAT YOU ARE DOING!                                     |
|                                                                             |
 -----------------------------------------------------------------------------

  PAW_PBE C 08Apr2002                   :
 energy of atom  1       EATOM= -147.1560
 kinetic energy error for atom=    0.0071 (will be added to EATOM!!)
  PAW_PBE O 08Apr2002                   :
 energy of atom  2       EATOM= -432.3788
 kinetic energy error for atom=    0.0208 (will be added to EATOM!!)
  PAW_PBE H 15Jun2001                   :
 energy of atom  3       EATOM=  -12.4884
 kinetic energy error for atom=    0.0014 (will be added to EATOM!!)
  PAW_PBE Mg_pv 13Apr2007               :
 energy of atom  4       EATOM=-1056.7344
 kinetic energy error for atom=    0.0340 (will be added to EATOM!!)
  PAW_PBE O 08Apr2002                   :
 energy of atom  5       EATOM= -432.3788
 kinetic energy error for atom=    0.0208 (will be added to EATOM!!)


 POSCAR:  C  O  H Mg  O
  positions in direct lattice
  No initial velocities read in
 -----------------------------------------------------------------------------
|                                                                             |
|           W    W    AA    RRRRR   N    N  II  N    N   GGGG   !!!           |
|           W    W   A  A   R    R  NN   N  II  NN   N  G    G  !!!           |
|           W    W  A    A  R    R  N N  N  II  N N  N  G       !!!           |
|           W WW W  AAAAAA  RRRRR   N  N N  II  N  N N  G  GGG   !            |
|           WW  WW  A    A  R   R   N   NN  II  N   NN  G    G                |
|           W    W  A    A  R    R  N    N  II  N    N   GGGG   !!!           |
|                                                                             |
|     Specifying the vdW parameters                                           |
|     VDW_S8 = 1.747                                                          |
|     VDW_A1 = 0.536                                                          |
|     VDW_A2 = 3.073                                                          |
|     in the INCAR file will overwrite the defaults for revpbe. Please        |
|     make sure that is what you intended.                                    |
|                                                                             |
 -----------------------------------------------------------------------------

 exchange correlation table for  LEXCH =       40
   RHO(1)=    0.500       N(1)  =     2000
   RHO(2)=  100.500       N(2)  =     4000



--------------------------------------------------------------------------------------------------------


 ion  position               nearest neighbor table
   1  0.529  0.556  0.792-  11 1.09   9 1.09  12 1.10   5 1.43
   2  0.319  0.400  0.792-  13 1.09  16 1.09  15 1.10   6 1.43
   3  0.474  0.193  0.793-  17 1.09  20 1.09  19 1.10   7 1.43
   4  0.682  0.345  0.791-  23 1.09  21 1.09  24 1.10   8 1.43
   5  0.508  0.488  0.754-  10 0.99   1 1.43 144 2.23
   6  0.387  0.382  0.754-  14 0.98   2 1.43  55 2.22
   7  0.492  0.260  0.754-  18 0.99   3 1.43 120 2.22
   8  0.614  0.366  0.754-  22 0.99   4 1.43 103 2.22
   9  0.520  0.543  0.841-   1 1.09
  10  0.552  0.449  0.756-   5 0.99
  11  0.590  0.573  0.783-   1 1.09
  12  0.489  0.605  0.777-   1 1.10
  13  0.332  0.391  0.842-   2 1.09
  14  0.425  0.426  0.757-   6 0.98
  15  0.300  0.462  0.785-   2 1.10
  16  0.270  0.361  0.778-   2 1.09
  17  0.484  0.206  0.842-   3 1.09
  18  0.448  0.299  0.756-   7 0.99
  19  0.412  0.174  0.785-   3 1.10
  20  0.513  0.145  0.778-   3 1.09
  21  0.669  0.354  0.841-   4 1.09
  22  0.575  0.322  0.756-   8 0.99
  23  0.699  0.284  0.783-   4 1.09
  24  0.731  0.384  0.776-   4 1.10
  25  0.125  0.000  0.352- 155 2.10 156 2.10 172 2.10 195 2.10 153 2.10
  26  0.250  0.125  0.352- 155 2.10 156 2.10 164 2.10 171 2.10 154 2.10
  27  0.125  0.125  0.451- 153 2.10 154 2.10 161 2.10 170 2.10 155 2.10 159 2.10
  28  0.250  0.000  0.451- 153 2.10 154 2.10 169 2.10 194 2.10 156 2.10 160 2.10
  29  0.125  0.000  0.550- 159 2.10 160 2.10 199 2.10 176 2.10 153 2.11 157 2.13
  30  0.250  0.125  0.550- 168 2.10 175 2.10 160 2.10 159 2.10 154 2.11 158 2.14
  31  0.125  0.125  0.647- 159 2.09 158 2.10 165 2.10 174 2.10 157 2.10
  32  0.250  1.000  0.647- 160 2.09 158 2.09 173 2.10 198 2.10 157 2.10
  33  0.125  0.250  0.352- 155 2.10 163 2.10 164 2.10 180 2.10 161 2.10
  34  0.250  0.375  0.352- 163 2.10 164 2.10 179 2.10 188 2.10 162 2.10
  35  0.125  0.375  0.451- 161 2.10 162 2.10 178 2.10 185 2.10 163 2.10 167 2.10
  36  0.250  0.250  0.451- 168 2.10 161 2.10 162 2.10 154 2.10 177 2.10 164 2.10
  37  0.125  0.250  0.550- 168 2.09 184 2.10 167 2.10 159 2.10 161 2.11 165 2.14
  38  0.250  0.375  0.550- 183 2.08 168 2.10 192 2.10 162 2.11 167 2.11 166 2.13
  39  0.125  0.375  0.647- 167 2.08 166 2.08 182 2.10 189 2.10 165 2.10
  40  0.250  0.250  0.646- 168 2.07 181 2.08 165 2.10 158 2.11 166 2.11
  41  0.375  0.000  0.352- 156 2.10 171 2.10 211 2.10 236 2.10 169 2.10
  42  0.000  0.125  0.352- 155 2.10 172 2.10 180 2.10 235 2.10 170 2.10
  43  0.375  0.125  0.451- 175 2.10 169 2.10 154 2.10 177 2.10 234 2.10 171 2.10
  44  0.000  0.000  0.451- 153 2.10 170 2.10 210 2.10 233 2.10 172 2.10 176 2.11
  45  0.375  1.000  0.550- 175 2.09 215 2.10 240 2.10 160 2.10 169 2.11 173 2.14
  46  0.000  0.125  0.550- 159 2.10 239 2.10 184 2.10 176 2.10 170 2.11 174 2.13
  47  0.375  0.125  0.646- 175 2.07 181 2.08 173 2.10 158 2.11 238 2.11
  48  0.000  1.000  0.647- 176 2.09 157 2.10 237 2.10 174 2.10 214 2.10
  49  0.375  0.250  0.352- 164 2.10 171 2.10 179 2.10 244 2.10 177 2.10
  50  0.000  0.375  0.352- 163 2.10 180 2.10 204 2.10 243 2.10 178 2.10
  51  0.375  0.375  0.451- 162 2.10 177 2.10 201 2.10 242 2.10 179 2.10 183 2.11
  52  0.000  0.250  0.451- 161 2.10 170 2.10 178 2.10 241 2.10 180 2.10 184 2.11
  53  0.376  0.251  0.550- 248 2.09 183 2.09 181 2.10 168 2.12 177 2.12 175 2.12
  54  0.000  0.375  0.550- 167 2.10 247 2.10 184 2.10 208 2.10 178 2.11 182 2.13
  55  0.375  0.375  0.650- 246 2.11 166 2.11 181 2.12 205 2.13 183 2.15   6 2.22
  56  0.000  0.250  0.647- 184 2.08 165 2.10 245 2.10 174 2.10 182 2.10
  57  0.125  0.500  0.352- 163 2.10 187 2.10 188 2.10 204 2.10 185 2.10
  58  0.250  0.625  0.352- 187 2.10 188 2.10 196 2.10 203 2.10 186 2.10
  59  0.125  0.625  0.451- 185 2.10 186 2.10 193 2.10 202 2.10 187 2.10 191 2.10
  60  0.250  0.500  0.451- 192 2.10 185 2.10 186 2.10 162 2.10 201 2.10 188 2.10
  61  0.125  0.500  0.550- 192 2.09 208 2.10 167 2.10 191 2.10 185 2.11 189 2.14
  62  0.250  0.625  0.550- 207 2.10 192 2.10 200 2.10 191 2.10 186 2.11 190 2.14
  63  0.125  0.625  0.647- 191 2.09 190 2.10 189 2.10 206 2.10 197 2.10
  64  0.250  0.500  0.646- 192 2.07 205 2.08 189 2.10 190 2.11 166 2.11
  65  0.125  0.750  0.352- 187 2.10 195 2.10 196 2.10 212 2.10 193 2.10
  66  0.250  0.875  0.352- 156 2.10 195 2.10 196 2.10 211 2.10 194 2.10
  67  0.125  0.875  0.451- 153 2.10 193 2.10 194 2.10 210 2.10 195 2.10 199 2.10
  68  0.250  0.750  0.451- 186 2.10 193 2.10 194 2.10 209 2.10 196 2.10 200 2.10
  69  0.125  0.750  0.550- 200 2.10 191 2.10 216 2.10 199 2.10 193 2.11 197 2.13
  70  0.250  0.875  0.550- 200 2.10 160 2.10 215 2.10 199 2.10 194 2.11 198 2.13
  71  0.125  0.875  0.647- 199 2.09 157 2.10 197 2.10 198 2.10 214 2.10
  72  0.250  0.750  0.647- 200 2.09 190 2.10 213 2.10 198 2.10 197 2.10
  73  0.375  0.500  0.352- 179 2.10 188 2.10 203 2.10 268 2.10 201 2.10
  74  0.000  0.625  0.352- 187 2.10 204 2.10 212 2.10 267 2.10 202 2.10
  75  0.375  0.625  0.451- 207 2.10 201 2.10 186 2.10 209 2.10 266 2.10 203 2.10
  76  0.000  0.500  0.451- 178 2.10 185 2.10 202 2.10 265 2.10 204 2.10 208 2.11
  77  0.376  0.499  0.550- 183 2.09 272 2.09 205 2.11 207 2.12 192 2.12 201 2.12
  78  1.000  0.625  0.550- 271 2.10 191 2.10 208 2.10 216 2.10 202 2.11 206 2.13
  79  0.375  0.625  0.646- 207 2.07 205 2.08 213 2.10 190 2.11 270 2.11
  80  0.000  0.500  0.647- 208 2.08 189 2.10 269 2.10 206 2.10 182 2.10
  81  0.375  0.750  0.352- 196 2.10 203 2.10 211 2.10 276 2.10 209 2.10
  82  0.000  0.875  0.352- 172 2.10 195 2.10 212 2.10 275 2.10 210 2.10
  83  0.375  0.875  0.451- 169 2.10 194 2.10 209 2.10 274 2.10 211 2.10 215 2.11
  84  0.000  0.750  0.451- 193 2.10 202 2.10 210 2.10 273 2.10 212 2.10 216 2.10
  85  0.375  0.750  0.550- 207 2.09 215 2.10 280 2.10 200 2.10 209 2.11 213 2.14
  86  0.000  0.875  0.550- 199 2.10 279 2.10 176 2.10 216 2.10 210 2.11 214 2.13
  87  0.375  0.875  0.647- 215 2.09 173 2.10 213 2.10 198 2.10 278 2.10
  88  0.000  0.750  0.647- 216 2.09 277 2.10 197 2.10 206 2.10 214 2.10
  89  0.625  0.000  0.352- 219 2.10 220 2.10 236 2.10 259 2.10 217 2.10
  90  0.750  0.125  0.352- 219 2.10 220 2.10 228 2.10 235 2.10 218 2.10
  91  0.625  0.125  0.451- 223 2.10 218 2.10 217 2.10 225 2.10 234 2.10 219 2.10
  92  0.750  0.000  0.451- 217 2.10 218 2.10 233 2.10 258 2.10 220 2.10 224 2.11
  93  0.625  1.000  0.550- 223 2.09 263 2.10 240 2.10 224 2.10 217 2.11 221 2.14
  94  0.750  0.125  0.549- 223 2.10 232 2.10 224 2.10 239 2.10 218 2.11 222 2.14
  95  0.625  0.125  0.646- 223 2.07 229 2.07 221 2.10 222 2.11 238 2.11
  96  0.750  1.000  0.647- 224 2.09 222 2.10 221 2.10 262 2.10 237 2.10
  97  0.625  0.250  0.352- 219 2.10 227 2.10 228 2.10 244 2.10 225 2.10
  98  0.750  0.375  0.352- 227 2.10 228 2.10 243 2.10 252 2.10 226 2.10
  99  0.625  0.375  0.451- 225 2.10 226 2.10 242 2.10 249 2.10 227 2.10 231 2.11
 100  0.750  0.250  0.451- 232 2.10 225 2.10 226 2.10 218 2.10 241 2.10 228 2.10
 101  0.624  0.251  0.550- 231 2.09 248 2.09 229 2.10 223 2.12 225 2.12 232 2.12
 102  0.750  0.375  0.550- 231 2.08 256 2.10 232 2.11 226 2.11 247 2.11 230 2.13
 103  0.625  0.375  0.650- 246 2.11 230 2.11 253 2.12 229 2.13 231 2.15   8 2.22
 104  0.750  0.250  0.646- 232 2.07 229 2.08 245 2.10 222 2.11 230 2.11
 105  0.875  0.000  0.352- 172 2.10 220 2.10 235 2.10 275 2.10 233 2.10
 106  0.500  0.125  0.352- 171 2.10 219 2.10 236 2.10 244 2.10 234 2.10
 107  0.875  0.125  0.451- 170 2.10 218 2.10 233 2.10 241 2.10 235 2.10 239 2.10
 108  0.500  0.000  0.451- 169 2.10 217 2.10 234 2.10 274 2.10 236 2.10 240 2.10
 109  0.875  1.000  0.550- 239 2.10 224 2.10 279 2.10 176 2.10 233 2.11 237 2.13
 110  0.500  0.125  0.550- 248 2.08 223 2.10 175 2.10 234 2.11 240 2.11 238 2.13
 111  0.875  0.125  0.647- 239 2.09 222 2.09 245 2.10 174 2.10 237 2.10
 112  0.500  1.000  0.647- 240 2.08 238 2.08 278 2.10 173 2.10 221 2.11
 113  0.875  0.250  0.352- 180 2.10 228 2.10 235 2.10 243 2.10 241 2.10
 114  0.500  0.375  0.352- 179 2.10 227 2.10 244 2.10 268 2.10 242 2.10
 115  0.875  0.375  0.451- 178 2.10 226 2.10 241 2.10 265 2.10 243 2.10 247 2.10
 116  0.500  0.250  0.451- 177 2.10 225 2.10 234 2.10 242 2.10 244 2.10 248 2.11
 117  0.875  0.250  0.550- 232 2.09 184 2.10 247 2.10 239 2.10 241 2.11 245 2.14
 118  0.500  0.375  0.551- 246 2.07 272 2.11 248 2.11 183 2.11 231 2.11 242 2.14
 119  0.875  0.375  0.647- 247 2.08 230 2.08 182 2.10 245 2.10 269 2.10
 120  0.500  0.249  0.650- 246 2.11 238 2.11 229 2.12 181 2.13 248 2.15   7 2.22
 121  0.625  0.500  0.352- 227 2.10 251 2.10 252 2.10 268 2.10 249 2.10
 122  0.750  0.625  0.352- 251 2.10 252 2.10 260 2.10 267 2.10 250 2.10
 123  0.625  0.625  0.451- 255 2.10 250 2.10 249 2.10 257 2.10 266 2.10 251 2.10
 124  0.750  0.500  0.451- 256 2.10 249 2.10 250 2.10 226 2.10 265 2.10 252 2.10
 125  0.624  0.499  0.550- 272 2.09 231 2.09 253 2.11 256 2.12 255 2.12 249 2.12
 126  0.750  0.625  0.550- 256 2.10 255 2.10 271 2.10 264 2.10 250 2.11 254 2.14
 127  0.625  0.625  0.646- 255 2.07 253 2.08 261 2.10 254 2.11 270 2.11
 128  0.750  0.500  0.646- 256 2.07 253 2.08 269 2.10 254 2.11 230 2.11
 129  0.625  0.750  0.352- 251 2.10 259 2.10 260 2.10 276 2.10 257 2.10
 130  0.750  0.875  0.352- 220 2.10 259 2.10 260 2.10 275 2.10 258 2.10
 131  0.625  0.875  0.451- 217 2.10 257 2.10 258 2.10 274 2.10 259 2.10 263 2.11
 132  0.750  0.750  0.451- 250 2.10 257 2.10 258 2.10 273 2.10 260 2.10 264 2.10
 133  0.625  0.750  0.550- 255 2.09 263 2.10 280 2.10 264 2.10 257 2.11 261 2.14
 134  0.750  0.875  0.550- 224 2.10 264 2.10 263 2.10 279 2.10 258 2.11 262 2.13
 135  0.625  0.875  0.647- 263 2.09 221 2.10 261 2.10 262 2.10 278 2.10
 136  0.750  0.750  0.647- 264 2.09 254 2.10 261 2.10 262 2.10 277 2.10
 137  0.875  0.500  0.352- 204 2.10 243 2.10 252 2.10 267 2.10 265 2.10
 138  0.500  0.625  0.352- 203 2.10 251 2.10 268 2.10 276 2.10 266 2.10
 139  0.875  0.625  0.451- 202 2.10 250 2.10 265 2.10 273 2.10 267 2.10 271 2.10
 140  0.500  0.500  0.451- 201 2.10 242 2.10 249 2.10 266 2.10 268 2.10 272 2.11
 141  0.875  0.500  0.550- 256 2.09 208 2.10 247 2.10 271 2.10 265 2.11 269 2.14
 142  0.500  0.625  0.550- 272 2.09 207 2.10 255 2.10 266 2.11 280 2.11 270 2.13
 143  0.875  0.625  0.647- 271 2.09 254 2.10 269 2.10 206 2.10 277 2.10
 144  0.500  0.500  0.651- 246 2.11 270 2.12 205 2.12 253 2.13 272 2.15   5 2.23
 145  0.875  0.750  0.352- 212 2.10 260 2.10 267 2.10 275 2.10 273 2.10
 146  0.500  0.875  0.352- 211 2.10 236 2.10 259 2.10 276 2.10 274 2.10
 147  0.875  0.875  0.451- 210 2.10 233 2.10 258 2.10 273 2.10 275 2.10 279 2.10
 148  0.500  0.750  0.451- 209 2.10 257 2.10 266 2.10 274 2.10 276 2.10 280 2.10
 149  0.875  0.750  0.550- 271 2.10 264 2.10 216 2.10 279 2.10 273 2.11 277 2.13
 150  0.500  0.875  0.550- 240 2.10 280 2.10 215 2.10 263 2.10 274 2.11 278 2.13
 151  0.875  0.875  0.647- 279 2.09 237 2.10 277 2.10 262 2.10 214 2.10
 152  0.500  0.750  0.647- 280 2.08 270 2.08 278 2.10 261 2.10 213 2.10
 153  0.125  0.000  0.451-  27 2.10  28 2.10  44 2.10  67 2.10  25 2.10  29 2.11
 154  0.250  0.125  0.451-  27 2.10  28 2.10  36 2.10  43 2.10  26 2.10  30 2.11
 155  0.125  0.125  0.352-  25 2.10  26 2.10  33 2.10  42 2.10  27 2.10
 156  0.250  0.000  0.352-  25 2.10  26 2.10  41 2.10  66 2.10  28 2.10
 157  0.125  1.000  0.650-  71 2.10  48 2.10  31 2.10  32 2.10  29 2.13
 158  0.250  0.125  0.650-  32 2.09  31 2.10  47 2.11  40 2.11  30 2.14
 159  0.125  0.125  0.549-  31 2.09  46 2.10  29 2.10  30 2.10  37 2.10  27 2.10
 160  0.250  1.000  0.549-  32 2.09  70 2.10  29 2.10  45 2.10  30 2.10  28 2.10
 161  0.125  0.250  0.451-  27 2.10  35 2.10  36 2.10  52 2.10  33 2.10  37 2.11
 162  0.250  0.375  0.451-  35 2.10  36 2.10  51 2.10  60 2.10  34 2.10  38 2.11
 163  0.125  0.375  0.352-  33 2.10  34 2.10  50 2.10  57 2.10  35 2.10
 164  0.250  0.250  0.352-  26 2.10  33 2.10  34 2.10  49 2.10  36 2.10
 165  0.125  0.250  0.650-  56 2.10  31 2.10  40 2.10  39 2.10  37 2.14
 166  0.249  0.375  0.650-  39 2.08  64 2.11  40 2.11  55 2.11  38 2.13
 167  0.125  0.375  0.549-  39 2.08  54 2.10  61 2.10  37 2.10  35 2.10  38 2.11
 168  0.250  0.250  0.549-  40 2.07  37 2.09  30 2.10  36 2.10  38 2.10  53 2.12
 169  0.375  0.000  0.451-  28 2.10  43 2.10  83 2.10 108 2.10  41 2.10  45 2.11
 170  0.000  0.125  0.451-  27 2.10  44 2.10  52 2.10 107 2.10  42 2.10  46 2.11
 171  0.375  0.125  0.352-  26 2.10  41 2.10  49 2.10 106 2.10  43 2.10
 172  0.000  0.000  0.352-  25 2.10  42 2.10  82 2.10 105 2.10  44 2.10
 173  0.375  1.000  0.650-  87 2.10  32 2.10  47 2.10 112 2.10  45 2.14
 174  1.000  0.125  0.650-  48 2.10 111 2.10  31 2.10  56 2.10  46 2.13
 175  0.375  0.125  0.549-  47 2.07  45 2.09  30 2.10  43 2.10 110 2.10  53 2.12
 176  1.000  1.000  0.550-  48 2.09  86 2.10 109 2.10  29 2.10  46 2.10  44 2.11
 177  0.375  0.250  0.451-  36 2.10  43 2.10  51 2.10 116 2.10  49 2.10  53 2.12
 178  0.000  0.375  0.451-  35 2.10  52 2.10  76 2.10 115 2.10  50 2.10  54 2.11
 179  0.375  0.375  0.352-  34 2.10  49 2.10  73 2.10 114 2.10  51 2.10
 180  0.000  0.250  0.352-  33 2.10  42 2.10  50 2.10 113 2.10  52 2.10
 181  0.373  0.249  0.649-  40 2.08  47 2.08  53 2.10  55 2.12 120 2.13
 182  0.000  0.375  0.650- 119 2.10  39 2.10  56 2.10  80 2.10  54 2.13
 183  0.374  0.375  0.550-  38 2.08  77 2.09  53 2.09  51 2.11 118 2.11  55 2.15
 184  0.000  0.250  0.550-  56 2.08 117 2.10  37 2.10  46 2.10  54 2.10  52 2.11
 185  0.125  0.500  0.451-  35 2.10  59 2.10  60 2.10  76 2.10  57 2.10  61 2.11
 186  0.250  0.625  0.451-  59 2.10  60 2.10  68 2.10  75 2.10  58 2.10  62 2.11
 187  0.125  0.625  0.352-  57 2.10  58 2.10  65 2.10  74 2.10  59 2.10
 188  0.250  0.500  0.352-  34 2.10  57 2.10  58 2.10  73 2.10  60 2.10
 189  0.125  0.500  0.650-  80 2.10  63 2.10  64 2.10  39 2.10  61 2.14
 190  0.250  0.625  0.650-  63 2.10  72 2.10  64 2.11  79 2.11  62 2.14
 191  0.125  0.625  0.549-  63 2.09  78 2.10  69 2.10  61 2.10  62 2.10  59 2.10
 192  0.250  0.500  0.549-  64 2.07  61 2.09  62 2.10  60 2.10  38 2.10  77 2.12
 193  0.125  0.750  0.451-  59 2.10  67 2.10  68 2.10  84 2.10  65 2.10  69 2.11
 194  0.250  0.875  0.451-  28 2.10  67 2.10  68 2.10  83 2.10  66 2.10  70 2.11
 195  0.125  0.875  0.352-  25 2.10  65 2.10  66 2.10  82 2.10  67 2.10
 196  0.250  0.750  0.352-  58 2.10  65 2.10  66 2.10  81 2.10  68 2.10
 197  0.125  0.750  0.650-  88 2.10  71 2.10  63 2.10  72 2.10  69 2.13
 198  0.250  0.875  0.650-  71 2.10  32 2.10  87 2.10  72 2.10  70 2.13
 199  0.125  0.875  0.549-  71 2.09  86 2.10  29 2.10  69 2.10  70 2.10  67 2.10
 200  0.250  0.750  0.549-  72 2.09  70 2.10  69 2.10  62 2.10  85 2.10  68 2.10
 201  0.375  0.500  0.451-  51 2.10  60 2.10  75 2.10 140 2.10  73 2.10  77 2.12
 202  0.000  0.625  0.451-  59 2.10  76 2.10  84 2.10 139 2.10  74 2.10  78 2.11
 203  0.375  0.625  0.352-  58 2.10  73 2.10  81 2.10 138 2.10  75 2.10
 204  0.000  0.500  0.352-  50 2.10  57 2.10  74 2.10 137 2.10  76 2.10
 205  0.374  0.502  0.649-  79 2.08  64 2.08  77 2.11 144 2.12  55 2.13
 206  0.000  0.625  0.650-  88 2.10  63 2.10 143 2.10  80 2.10  78 2.13
 207  0.375  0.625  0.549-  79 2.07  85 2.09  62 2.10  75 2.10 142 2.10  77 2.12
 208  1.000  0.500  0.550-  80 2.08  61 2.10  78 2.10 141 2.10  54 2.10  76 2.11
 209  0.375  0.750  0.451-  68 2.10  75 2.10  83 2.10 148 2.10  81 2.10  85 2.11
 210  0.000  0.875  0.451-  44 2.10  67 2.10  84 2.10 147 2.10  82 2.10  86 2.11
 211  0.375  0.875  0.352-  41 2.10  66 2.10  81 2.10 146 2.10  83 2.10
 212  0.000  0.750  0.352-  65 2.10  74 2.10  82 2.10 145 2.10  84 2.10
 213  0.375  0.750  0.650-  87 2.10  72 2.10  79 2.10 152 2.10  85 2.14
 214  0.000  0.875  0.650-  88 2.10 151 2.10  71 2.10  48 2.10  86 2.13
 215  0.375  0.875  0.550-  87 2.09  45 2.10  85 2.10  70 2.10 150 2.10  83 2.11
 216  0.000  0.750  0.549-  88 2.09  86 2.10  69 2.10 149 2.10  78 2.10  84 2.10
 217  0.625  0.000  0.451-  91 2.10  92 2.10 108 2.10 131 2.10  89 2.10  93 2.11
 218  0.750  0.125  0.451-  91 2.10  92 2.10 100 2.10 107 2.10  90 2.10  94 2.11
 219  0.625  0.125  0.352-  89 2.10  90 2.10  97 2.10 106 2.10  91 2.10
 220  0.750  0.000  0.352-  89 2.10  90 2.10 105 2.10 130 2.10  92 2.10
 221  0.625  1.000  0.650- 135 2.10  96 2.10  95 2.10 112 2.11  93 2.14
 222  0.750  0.125  0.650- 111 2.09  96 2.10 104 2.11  95 2.11  94 2.14
 223  0.625  0.124  0.549-  95 2.07  93 2.09  91 2.10  94 2.10 110 2.10 101 2.12
 224  0.750  1.000  0.549-  96 2.09 134 2.10 109 2.10  94 2.10  93 2.10  92 2.11
 225  0.625  0.250  0.451-  91 2.10  99 2.10 100 2.10 116 2.10  97 2.10 101 2.12
 226  0.750  0.375  0.451-  99 2.10 100 2.10 115 2.10 124 2.10  98 2.10 102 2.11
 227  0.625  0.375  0.352-  97 2.10  98 2.10 114 2.10 121 2.10  99 2.10
 228  0.750  0.250  0.352-  90 2.10  97 2.10  98 2.10 113 2.10 100 2.10
 229  0.626  0.248  0.649-  95 2.07 104 2.08 101 2.10 120 2.12 103 2.13
 230  0.751  0.375  0.650- 119 2.08 128 2.11 104 2.11 103 2.11 102 2.13
 231  0.626  0.375  0.550- 102 2.08 125 2.09 101 2.09  99 2.11 118 2.11 103 2.15
 232  0.750  0.250  0.549- 104 2.07 117 2.09  94 2.10 100 2.10 102 2.11 101 2.12
 233  0.875  0.000  0.451-  44 2.10  92 2.10 107 2.10 147 2.10 105 2.10 109 2.11
 234  0.500  0.125  0.451-  43 2.10  91 2.10 108 2.10 116 2.10 106 2.10 110 2.11
 235  0.875  0.125  0.352-  42 2.10  90 2.10 105 2.10 113 2.10 107 2.10
 236  0.500  0.000  0.352-  41 2.10  89 2.10 106 2.10 146 2.10 108 2.10
 237  0.875  1.000  0.650- 151 2.10  48 2.10  96 2.10 111 2.10 109 2.13
 238  0.500  0.124  0.650- 112 2.08  95 2.11  47 2.11 120 2.11 110 2.13
 239  0.875  0.125  0.549- 111 2.09  46 2.10 109 2.10  94 2.10 117 2.10 107 2.10
 240  0.500  1.000  0.549- 112 2.08 150 2.10  45 2.10  93 2.10 108 2.10 110 2.11
 241  0.875  0.250  0.451-  52 2.10 100 2.10 107 2.10 115 2.10 113 2.10 117 2.11
 242  0.500  0.375  0.451-  51 2.10  99 2.10 116 2.10 140 2.10 114 2.10 118 2.14
 243  0.875  0.375  0.352-  50 2.10  98 2.10 113 2.10 137 2.10 115 2.10
 244  0.500  0.250  0.352-  49 2.10  97 2.10 106 2.10 114 2.10 116 2.10
 245  0.875  0.250  0.650-  56 2.10 111 2.10 104 2.10 119 2.10 117 2.14
 246  0.500  0.375  0.648- 118 2.07 103 2.11 120 2.11  55 2.11 144 2.11
 247  0.875  0.375  0.549- 119 2.08  54 2.10 141 2.10 117 2.10 115 2.10 102 2.11
 248  0.500  0.249  0.550- 110 2.08  53 2.09 101 2.09 116 2.11 118 2.11 120 2.15
 249  0.625  0.500  0.451-  99 2.10 123 2.10 124 2.10 140 2.10 121 2.10 125 2.12
 250  0.750  0.625  0.451- 123 2.10 124 2.10 132 2.10 139 2.10 122 2.10 126 2.11
 251  0.625  0.625  0.352- 121 2.10 122 2.10 129 2.10 138 2.10 123 2.10
 252  0.750  0.500  0.352-  98 2.10 121 2.10 122 2.10 137 2.10 124 2.10
 253  0.627  0.501  0.649- 128 2.08 127 2.08 125 2.11 103 2.12 144 2.13
 254  0.750  0.625  0.650- 136 2.10 143 2.10 127 2.11 128 2.11 126 2.14
 255  0.625  0.625  0.549- 127 2.07 133 2.09 126 2.10 123 2.10 142 2.10 125 2.12
 256  0.750  0.500  0.549- 128 2.07 141 2.09 126 2.10 124 2.10 102 2.10 125 2.12
 257  0.625  0.750  0.451- 123 2.10 131 2.10 132 2.10 148 2.10 129 2.10 133 2.11
 258  0.750  0.875  0.451-  92 2.10 131 2.10 132 2.10 147 2.10 130 2.10 134 2.11
 259  0.625  0.875  0.352-  89 2.10 129 2.10 130 2.10 146 2.10 131 2.10
 260  0.750  0.750  0.352- 122 2.10 129 2.10 130 2.10 145 2.10 132 2.10
 261  0.625  0.750  0.650- 135 2.10 136 2.10 127 2.10 152 2.10 133 2.14
 262  0.750  0.875  0.650- 151 2.10  96 2.10 136 2.10 135 2.10 134 2.13
 263  0.625  0.875  0.550- 135 2.09  93 2.10 133 2.10 134 2.10 150 2.10 131 2.11
 264  0.750  0.750  0.549- 136 2.09 134 2.10 149 2.10 133 2.10 126 2.10 132 2.10
 265  0.875  0.500  0.451-  76 2.10 115 2.10 124 2.10 139 2.10 137 2.10 141 2.11
 266  0.500  0.625  0.451-  75 2.10 123 2.10 140 2.10 148 2.10 138 2.10 142 2.11
 267  0.875  0.625  0.352-  74 2.10 122 2.10 137 2.10 145 2.10 139 2.10
 268  0.500  0.500  0.352-  73 2.10 114 2.10 121 2.10 138 2.10 140 2.10
 269  0.875  0.500  0.650-  80 2.10 143 2.10 128 2.10 119 2.10 141 2.14
 270  0.500  0.626  0.650- 152 2.08  79 2.11 127 2.11 144 2.12 142 2.13
 271  0.875  0.625  0.549- 143 2.09  78 2.10 149 2.10 126 2.10 141 2.10 139 2.10
 272  0.500  0.500  0.550- 142 2.09 125 2.09  77 2.09 118 2.11 140 2.11 144 2.15
 273  0.875  0.750  0.451-  84 2.10 132 2.10 139 2.10 147 2.10 145 2.10 149 2.11
 274  0.500  0.875  0.451-  83 2.10 108 2.10 131 2.10 148 2.10 146 2.10 150 2.11
 275  0.875  0.875  0.352-  82 2.10 105 2.10 130 2.10 145 2.10 147 2.10
 276  0.500  0.750  0.352-  81 2.10 129 2.10 138 2.10 146 2.10 148 2.10
 277  0.875  0.750  0.650-  88 2.10 151 2.10 143 2.10 136 2.10 149 2.13
 278  0.500  0.875  0.650- 152 2.10 112 2.10 135 2.10  87 2.10 150 2.13
 279  0.875  0.875  0.549- 151 2.09  86 2.10 109 2.10 149 2.10 134 2.10 147 2.10
 280  0.500  0.750  0.549- 152 2.08 150 2.10 133 2.10  85 2.10 148 2.10 142 2.11


IMPORTANT INFORMATION: All symmetrisations will be switched off!
NOSYMM: (Re-)initialisation of all symmetry stuff for point group C_1.


----------------------------------------------------------------------------------------

                                     Primitive cell                                     

  volume of cell :    6019.7037

  direct lattice vectors                    reciprocal lattice vectors
    16.809723990  0.000000000  0.000000000     0.059489377  0.000000000  0.000000000
     0.000000000 16.809723990  0.000000000     0.000000000  0.059489377  0.000000000
     0.000000000  0.000000000 21.303646496     0.000000000  0.000000000  0.046940321

  length of vectors
    16.809723990 16.809723990 21.303646496     0.059489377  0.059489377  0.046940321

  position of ions in fractional coordinates (direct lattice)
     0.528644266  0.555761295  0.791592200
     0.318725297  0.400332018  0.792395264
     0.474155106  0.192985503  0.792603898
     0.681700139  0.345353957  0.791262003
     0.508219302  0.487960659  0.754329224
     0.386669207  0.382320837  0.754273536
     0.492090115  0.260425014  0.754190084
     0.613823707  0.365932888  0.754151193
     0.520221729  0.543391636  0.841325693
     0.552299245  0.448590522  0.756306569
     0.589909385  0.573327904  0.782782465
     0.489422714  0.604580085  0.776643117
     0.332181432  0.391287712  0.841916916
     0.425311889  0.426015498  0.756585682
     0.300326956  0.462064699  0.784679118
     0.270493073  0.361291581  0.777514217
     0.483523957  0.206401475  0.841875094
     0.447794029  0.299329291  0.756407626
     0.412386472  0.174249197  0.785099236
     0.513224848  0.144519586  0.777524237
     0.669453423  0.354155190  0.841115012
     0.574509366  0.321926360  0.756016691
     0.698915312  0.284046495  0.782734307
     0.730636418  0.384285650  0.776191852
     0.125000000  0.000000000  0.352052406
     0.250000000  0.125000000  0.352052406
     0.125000000  0.125000000  0.450684135
     0.250000000  0.000000000  0.450684135
     0.125003413  0.000000379  0.549715161
     0.249990511  0.125000175  0.549503587
     0.124989808  0.124927480  0.647393958
     0.249935399  0.999975596  0.647377790
     0.125000000  0.250000000  0.352052406
     0.250000000  0.375000000  0.352052406
     0.125000000  0.375000000  0.450684135
     0.250000000  0.250000000  0.450684135
     0.124965802  0.250018432  0.549560624
     0.250466641  0.374977988  0.549789275
     0.124916763  0.375016122  0.647016403
     0.249901181  0.249752066  0.646394569
     0.375000000  0.000000000  0.352052406
     0.000000000  0.125000000  0.352052406
     0.375000000  0.125000000  0.450684135
     0.000000000  0.000000000  0.450684135
     0.375012616  0.999947774  0.549556657
     0.000005101  0.124983563  0.549712290
     0.374769445  0.124879305  0.646300458
     0.000002714  0.999975048  0.647420446
     0.375000000  0.250000000  0.352052406
     0.000000000  0.375000000  0.352052406
     0.375000000  0.375000000  0.450684135
     0.000000000  0.250000000  0.450684135
     0.375522539  0.250582216  0.550132969
     0.000005011  0.375001337  0.549596662
     0.374562819  0.374825387  0.650478860
     0.000001312  0.249933376  0.647380910
     0.125000000  0.500000000  0.352052406
     0.250000000  0.625000000  0.352052406
     0.125000000  0.625000000  0.450684135
     0.250000000  0.500000000  0.450684135
     0.124959436  0.499981188  0.549560443
     0.250009140  0.625003114  0.549510458
     0.124983606  0.625056218  0.647381255
     0.249916790  0.500207195  0.646338000
     0.125000000  0.750000000  0.352052406
     0.250000000  0.875000000  0.352052406
     0.125000000  0.875000000  0.450684135
     0.250000000  0.750000000  0.450684135
     0.125005841  0.749995142  0.549717925
     0.249986504  0.874993835  0.549715242
     0.124978489  0.874998115  0.647413871
     0.249941611  0.749998779  0.647390941
     0.375000000  0.500000000  0.352052406
     0.000000000  0.625000000  0.352052406
     0.375000000  0.625000000  0.450684135
     0.000000000  0.500000000  0.450684135
     0.375593871  0.499451800  0.550168904
     0.999998862  0.625015616  0.549712536
     0.374779449  0.625072839  0.646432645
     0.000005919  0.500071343  0.647387588
     0.375000000  0.750000000  0.352052406
     0.000000000  0.875000000  0.352052406
     0.375000000  0.875000000  0.450684135
     0.000000000  0.750000000  0.450684135
     0.375018396  0.750029784  0.549565921
     0.000001412  0.874997357  0.549714612
     0.374931728  0.875000849  0.647382940
     0.000001127  0.750019727  0.647411297
     0.625000000  0.000000000  0.352052406
     0.750000000  0.125000000  0.352052406
     0.625000000  0.125000000  0.450684135
     0.750000000  0.000000000  0.450684135
     0.624990164  0.999954689  0.549554364
     0.750001359  0.124982863  0.549499079
     0.625240537  0.124864601  0.646369780
     0.750073287  0.999983549  0.647392347
     0.625000000  0.250000000  0.352052406
     0.750000000  0.375000000  0.352052406
     0.625000000  0.375000000  0.450684135
     0.750000000  0.250000000  0.450684135
     0.624413208  0.250511476  0.550128238
     0.749540912  0.375029658  0.549783167
     0.625429870  0.374998251  0.650436325
     0.750113696  0.249750501  0.646275277
     0.875000000  0.000000000  0.352052406
     0.500000000  0.125000000  0.352052406
     0.875000000  0.125000000  0.450684135
     0.500000000  0.000000000  0.450684135
     0.874998990  0.999999141  0.549715225
     0.500021983  0.125421539  0.549770197
     0.875026891  0.124927474  0.647381548
     0.499991207  0.999900806  0.647006847
     0.875000000  0.250000000  0.352052406
     0.500000000  0.375000000  0.352052406
     0.875000000  0.375000000  0.450684135
     0.500000000  0.250000000  0.450684135
     0.875052315  0.250019657  0.549554433
     0.499993975  0.374969253  0.550994213
     0.875101831  0.375003197  0.646999586
     0.500073801  0.249418954  0.650403628
     0.625000000  0.500000000  0.352052406
     0.750000000  0.625000000  0.352052406
     0.625000000  0.625000000  0.450684135
     0.750000000  0.500000000  0.450684135
     0.624469332  0.499394115  0.550166390
     0.750009873  0.624992653  0.549506162
     0.625216724  0.625089057  0.646313665
     0.750092913  0.500223379  0.646420302
     0.625000000  0.750000000  0.352052406
     0.750000000  0.875000000  0.352052406
     0.625000000  0.875000000  0.450684135
     0.750000000  0.750000000  0.450684135
     0.624980448  0.750046104  0.549560265
     0.750015952  0.874999174  0.549715208
     0.625068935  0.874995421  0.647382561
     0.750060002  0.750010751  0.647377552
     0.875000000  0.500000000  0.352052406
     0.500000000  0.625000000  0.352052406
     0.875000000  0.625000000  0.450684135
     0.500000000  0.500000000  0.450684135
     0.875034490  0.499985965  0.549558721
     0.499972695  0.624527739  0.549811719
     0.875011910  0.625061743  0.647395706
     0.499909376  0.500310991  0.650525935
     0.875000000  0.750000000  0.352052406
     0.500000000  0.875000000  0.352052406
     0.875000000  0.875000000  0.450684135
     0.500000000  0.750000000  0.450684135
     0.874997358  0.749995192  0.549717865
     0.499999735  0.874994221  0.549597218
     0.875025107  0.874999522  0.647413875
     0.500004967  0.750087755  0.647018124
     0.125000000  0.000000000  0.450684135
     0.250000000  0.125000000  0.450684135
     0.125000000  0.125000000  0.352052406
     0.250000000  0.000000000  0.352052406
     0.124900622  0.999895123  0.649764926
     0.249612921  0.124559224  0.649776465
     0.124894763  0.124905489  0.549492986
     0.249922936  0.999906920  0.549486593
     0.125000000  0.250000000  0.450684135
     0.250000000  0.375000000  0.450684135
     0.125000000  0.375000000  0.352052406
     0.250000000  0.250000000  0.352052406
     0.124850954  0.249852937  0.649829490
     0.248766761  0.374982075  0.649736737
     0.124769458  0.375019398  0.549382749
     0.249508362  0.249791894  0.549169050
     0.375000000  0.000000000  0.450684135
     0.000000000  0.125000000  0.450684135
     0.375000000  0.125000000  0.352052406
     0.000000000  0.000000000  0.352052406
     0.374830889  0.999835755  0.649817076
     0.999999548  0.124934454  0.649790711
     0.374818590  0.124538025  0.549183015
     0.999999469  0.999968531  0.549521931
     0.375000000  0.250000000  0.450684135
     0.000000000  0.375000000  0.450684135
     0.375000000  0.375000000  0.352052406
     0.000000000  0.250000000  0.352052406
     0.373327374  0.248599626  0.648879209
     0.000001254  0.374993617  0.649784524
     0.374461516  0.375023125  0.549709580
     0.000004173  0.249950973  0.549512672
     0.125000000  0.500000000  0.450684135
     0.250000000  0.625000000  0.450684135
     0.125000000  0.625000000  0.352052406
     0.250000000  0.500000000  0.352052406
     0.124859740  0.500153113  0.649820799
     0.249593047  0.625360922  0.649777130
     0.124907592  0.625065068  0.549480298
     0.249571016  0.500182426  0.549203729
     0.125000000  0.750000000  0.450684135
     0.250000000  0.875000000  0.450684135
     0.125000000  0.875000000  0.352052406
     0.250000000  0.750000000  0.352052406
     0.124899837  0.750095294  0.649754481
     0.249929881  0.875001284  0.649778708
     0.124970166  0.875005197  0.549485131
     0.249924460  0.750086019  0.549490583
     0.375000000  0.500000000  0.450684135
     0.000000000  0.625000000  0.450684135
     0.375000000  0.625000000  0.352052406
     0.000000000  0.500000000  0.352052406
     0.373682915  0.501599374  0.648987161
     0.000002117  0.625076351  0.649787372
     0.374811574  0.625458064  0.549189981
     0.999997906  0.500053037  0.549540265
     0.375000000  0.750000000  0.450684135
     0.000000000  0.875000000  0.450684135
     0.375000000  0.875000000  0.352052406
     0.000000000  0.750000000  0.352052406
     0.374859754  0.750147551  0.649829276
     0.000000902  0.874991032  0.649739179
     0.374956818  0.874998678  0.549504417
     0.000001633  0.750023504  0.549488333
     0.625000000  0.000000000  0.450684135
     0.750000000  0.125000000  0.450684135
     0.625000000  0.125000000  0.352052406
     0.750000000  0.000000000  0.352052406
     0.625174577  0.999832058  0.649837157
     0.750437834  0.124599965  0.649782185
     0.625198685  0.124492990  0.549151366
     0.750083266  0.999904722  0.549497070
     0.625000000  0.250000000  0.450684135
     0.750000000  0.375000000  0.450684135
     0.625000000  0.375000000  0.352052406
     0.750000000  0.250000000  0.352052406
     0.626349891  0.248244261  0.648851668
     0.751242818  0.375019396  0.649713584
     0.625541379  0.374954601  0.549709806
     0.750456904  0.249805597  0.549188814
     0.875000000  0.000000000  0.450684135
     0.500000000  0.125000000  0.450684135
     0.875000000  0.125000000  0.352052406
     0.500000000  0.000000000  0.352052406
     0.875102313  0.999894220  0.649764016
     0.500020234  0.123687382  0.649707483
     0.875103705  0.124911869  0.549485083
     0.499999011  0.999762584  0.549411388
     0.875000000  0.250000000  0.450684135
     0.500000000  0.375000000  0.450684135
     0.875000000  0.375000000  0.352052406
     0.500000000  0.250000000  0.352052406
     0.875147584  0.249857587  0.649807676
     0.500009847  0.374856506  0.648329380
     0.875236609  0.375014891  0.549378842
     0.499962462  0.249441110  0.549696317
     0.625000000  0.500000000  0.450684135
     0.750000000  0.625000000  0.450684135
     0.625000000  0.625000000  0.352052406
     0.750000000  0.500000000  0.352052406
     0.626660325  0.501296243  0.648970625
     0.750366130  0.625413385  0.649780561
     0.625174800  0.625422810  0.549209930
     0.750477575  0.500205674  0.549171621
     0.625000000  0.750000000  0.450684135
     0.750000000  0.875000000  0.450684135
     0.625000000  0.875000000  0.352052406
     0.750000000  0.750000000  0.352052406
     0.625138362  0.750143831  0.649807813
     0.750072062  0.874998805  0.649778554
     0.625045378  0.875004759  0.549503849
     0.750071588  0.750084259  0.549481922
     0.875000000  0.500000000  0.450684135
     0.500000000  0.625000000  0.450684135
     0.875000000  0.625000000  0.352052406
     0.500000000  0.500000000  0.352052406
     0.875146850  0.500155874  0.649837807
     0.499981330  0.626248682  0.649781949
     0.875094014  0.625072517  0.549490282
     0.500032843  0.500484283  0.549758508
     0.875000000  0.750000000  0.450684135
     0.500000000  0.875000000  0.450684135
     0.875000000  0.875000000  0.352052406
     0.500000000  0.750000000  0.352052406
     0.875103111  0.750095938  0.649754639
     0.500001417  0.874994359  0.649785892
     0.875030916  0.875003193  0.549485129
     0.500003421  0.750215529  0.549393703

  ion indices of the primitive-cell ions
   primitive index   ion index
                 1           1
                 2           2
                 3           3
                 4           4
                 5           5
                 6           6
                 7           7
                 8           8
                 9           9
                10          10
                11          11
                12          12
                13          13
                14          14
                15          15
                16          16
                17          17
                18          18
                19          19
                20          20
                21          21
                22          22
                23          23
                24          24
                25          25
                26          26
                27          27
                28          28
                29          29
                30          30
                31          31
                32          32
                33          33
                34          34
                35          35
                36          36
                37          37
                38          38
                39          39
                40          40
                41          41
                42          42
                43          43
                44          44
                45          45
                46          46
                47          47
                48          48
                49          49
                50          50
                51          51
                52          52
                53          53
                54          54
                55          55
                56          56
                57          57
                58          58
                59          59
                60          60
                61          61
                62          62
                63          63
                64          64
                65          65
                66          66
                67          67
                68          68
                69          69
                70          70
                71          71
                72          72
                73          73
                74          74
                75          75
                76          76
                77          77
                78          78
                79          79
                80          80
                81          81
                82          82
                83          83
                84          84
                85          85
                86          86
                87          87
                88          88
                89          89
                90          90
                91          91
                92          92
                93          93
                94          94
                95          95
                96          96
                97          97
                98          98
                99          99
               100         100
               101         101
               102         102
               103         103
               104         104
               105         105
               106         106
               107         107
               108         108
               109         109
               110         110
               111         111
               112         112
               113         113
               114         114
               115         115
               116         116
               117         117
               118         118
               119         119
               120         120
               121         121
               122         122
               123         123
               124         124
               125         125
               126         126
               127         127
               128         128
               129         129
               130         130
               131         131
               132         132
               133         133
               134         134
               135         135
               136         136
               137         137
               138         138
               139         139
               140         140
               141         141
               142         142
               143         143
               144         144
               145         145
               146         146
               147         147
               148         148
               149         149
               150         150
               151         151
               152         152
               153         153
               154         154
               155         155
               156         156
               157         157
               158         158
               159         159
               160         160
               161         161
               162         162
               163         163
               164         164
               165         165
               166         166
               167         167
               168         168
               169         169
               170         170
               171         171
               172         172
               173         173
               174         174
               175         175
               176         176
               177         177
               178         178
               179         179
               180         180
               181         181
               182         182
               183         183
               184         184
               185         185
               186         186
               187         187
               188         188
               189         189
               190         190
               191         191
               192         192
               193         193
               194         194
               195         195
               196         196
               197         197
               198         198
               199         199
               200         200
               201         201
               202         202
               203         203
               204         204
               205         205
               206         206
               207         207
               208         208
               209         209
               210         210
               211         211
               212         212
               213         213
               214         214
               215         215
               216         216
               217         217
               218         218
               219         219
               220         220
               221         221
               222         222
               223         223
               224         224
               225         225
               226         226
               227         227
               228         228
               229         229
               230         230
               231         231
               232         232
               233         233
               234         234
               235         235
               236         236
               237         237
               238         238
               239         239
               240         240
               241         241
               242         242
               243         243
               244         244
               245         245
               246         246
               247         247
               248         248
               249         249
               250         250
               251         251
               252         252
               253         253
               254         254
               255         255
               256         256
               257         257
               258         258
               259         259
               260         260
               261         261
               262         262
               263         263
               264         264
               265         265
               266         266
               267         267
               268         268
               269         269
               270         270
               271         271
               272         272
               273         273
               274         274
               275         275
               276         276
               277         277
               278         278
               279         279
               280         280

----------------------------------------------------------------------------------------



 KPOINTS: pymatgen v2020.8.13 with grid density = 

Automatic generation of k-mesh.
 Grid dimensions read from file:
 generate k-points for:    1    1    1

 Generating k-lattice:

  Cartesian coordinates                     Fractional coordinates (reciprocal lattice)
     0.059489377  0.000000000  0.000000000     1.000000000  0.000000000  0.000000000
     0.000000000  0.059489377  0.000000000     0.000000000  1.000000000  0.000000000
     0.000000000  0.000000000  0.046940321     0.000000000  0.000000000  1.000000000

  Length of vectors
     0.059489377  0.059489377  0.046940321

  Shift w.r.t. Gamma in fractional coordinates (k-lattice)
     0.000000000  0.000000000  0.000000000

 
 Subroutine IBZKPT returns following result:
 ===========================================
 
 Found      1 irreducible k-points:
 
 Following reciprocal coordinates:
            Coordinates               Weight
  0.000000  0.000000  0.000000      1.000000
 
 Following cartesian coordinates:
            Coordinates               Weight
  0.000000  0.000000  0.000000      1.000000
 


--------------------------------------------------------------------------------------------------------




 Dimension of arrays:
   k-points           NKPTS =      1   k-points in BZ     NKDIM =      1   number of bands    NBANDS=   1152
   number of dos      NEDOS =    301   number of ions     NIONS =    280
   non local maximal  LDIM  =      5   non local SUM 2l+1 LMDIM =     13
   total plane-waves  NPLWV = ******
   max r-space proj   IRMAX =   3796   max aug-charges    IRDMAX=   8515
   dimension x,y,z NGX =   126 NGY =  126 NGZ =  160
   dimension x,y,z NGXF=   252 NGYF=  252 NGZF=  320
   support grid    NGXF=   252 NGYF=  252 NGZF=  320
   ions per type =               4   4  16 128 128
   NGX,Y,Z   is equivalent  to a cutoff of  12.46, 12.46, 12.49 a.u.
   NGXF,Y,Z  is equivalent  to a cutoff of  24.92, 24.92, 24.97 a.u.

 SYSTEM =  MgO-rocksalt                            
 POSCAR =   C  O  H Mg  O                          

--------------------------------------------------------------------------------------------------------


  energy-cutoff  :      520.00
  volume of cell :     6019.70
      direct lattice vectors                 reciprocal lattice vectors
    16.809723990  0.000000000  0.000000000     0.059489377  0.000000000  0.000000000
     0.000000000 16.809723990  0.000000000     0.000000000  0.059489377  0.000000000
     0.000000000  0.000000000 21.303646496     0.000000000  0.000000000  0.046940321

  length of vectors
    16.809723990 16.809723990 21.303646496     0.059489377  0.059489377  0.046940321



 k-points in units of 2pi/SCALE and weight: pymatgen v2020.8.13 with grid density = 
   0.00000000  0.00000000  0.00000000       1.000

 k-points in reciprocal lattice and weights: pymatgen v2020.8.13 with grid density = 
   0.00000000  0.00000000  0.00000000       1.000

 position of ions in fractional coordinates (direct lattice) 
   0.52864427  0.55576130  0.79159220
   0.31872530  0.40033202  0.79239526
   0.47415511  0.19298550  0.79260390
   0.68170014  0.34535396  0.79126200
   0.50821930  0.48796066  0.75432922
   0.38666921  0.38232084  0.75427354
   0.49209011  0.26042501  0.75419008
   0.61382371  0.36593289  0.75415119
   0.52022173  0.54339164  0.84132569
   0.55229925  0.44859052  0.75630657
   0.58990938  0.57332790  0.78278247
   0.48942271  0.60458009  0.77664312
   0.33218143  0.39128771  0.84191692
   0.42531189  0.42601550  0.75658568
   0.30032696  0.46206470  0.78467912
   0.27049307  0.36129158  0.77751422
   0.48352396  0.20640148  0.84187509
   0.44779403  0.29932929  0.75640763
   0.41238647  0.17424920  0.78509924
   0.51322485  0.14451959  0.77752424
   0.66945342  0.35415519  0.84111501
   0.57450937  0.32192636  0.75601669
   0.69891531  0.28404650  0.78273431
   0.73063642  0.38428565  0.77619185
   0.12500000  0.00000000  0.35205241
   0.25000000  0.12500000  0.35205241
   0.12500000  0.12500000  0.45068414
   0.25000000  0.00000000  0.45068414
   0.12500341  0.00000038  0.54971516
   0.24999051  0.12500017  0.54950359
   0.12498981  0.12492748  0.64739396
   0.24993540  0.99997560  0.64737779
   0.12500000  0.25000000  0.35205241
   0.25000000  0.37500000  0.35205241
   0.12500000  0.37500000  0.45068414
   0.25000000  0.25000000  0.45068414
   0.12496580  0.25001843  0.54956062
   0.25046664  0.37497799  0.54978927
   0.12491676  0.37501612  0.64701640
   0.24990118  0.24975207  0.64639457
   0.37500000  0.00000000  0.35205241
   0.00000000  0.12500000  0.35205241
   0.37500000  0.12500000  0.45068414
   0.00000000  0.00000000  0.45068414
   0.37501262  0.99994777  0.54955666
   0.00000510  0.12498356  0.54971229
   0.37476944  0.12487931  0.64630046
   0.00000271  0.99997505  0.64742045
   0.37500000  0.25000000  0.35205241
   0.00000000  0.37500000  0.35205241
   0.37500000  0.37500000  0.45068414
   0.00000000  0.25000000  0.45068414
   0.37552254  0.25058222  0.55013297
   0.00000501  0.37500134  0.54959666
   0.37456282  0.37482539  0.65047886
   0.00000131  0.24993338  0.64738091
   0.12500000  0.50000000  0.35205241
   0.25000000  0.62500000  0.35205241
   0.12500000  0.62500000  0.45068414
   0.25000000  0.50000000  0.45068414
   0.12495944  0.49998119  0.54956044
   0.25000914  0.62500311  0.54951046
   0.12498361  0.62505622  0.64738125
   0.24991679  0.50020719  0.64633800
   0.12500000  0.75000000  0.35205241
   0.25000000  0.87500000  0.35205241
   0.12500000  0.87500000  0.45068414
   0.25000000  0.75000000  0.45068414
   0.12500584  0.74999514  0.54971792
   0.24998650  0.87499383  0.54971524
   0.12497849  0.87499812  0.64741387
   0.24994161  0.74999878  0.64739094
   0.37500000  0.50000000  0.35205241
   0.00000000  0.62500000  0.35205241
   0.37500000  0.62500000  0.45068414
   0.00000000  0.50000000  0.45068414
   0.37559387  0.49945180  0.55016890
   0.99999886  0.62501562  0.54971254
   0.37477945  0.62507284  0.64643265
   0.00000592  0.50007134  0.64738759
   0.37500000  0.75000000  0.35205241
   0.00000000  0.87500000  0.35205241
   0.37500000  0.87500000  0.45068414
   0.00000000  0.75000000  0.45068414
   0.37501840  0.75002978  0.54956592
   0.00000141  0.87499736  0.54971461
   0.37493173  0.87500085  0.64738294
   0.00000113  0.75001973  0.64741130
   0.62500000  0.00000000  0.35205241
   0.75000000  0.12500000  0.35205241
   0.62500000  0.12500000  0.45068414
   0.75000000  0.00000000  0.45068414
   0.62499016  0.99995469  0.54955436
   0.75000136  0.12498286  0.54949908
   0.62524054  0.12486460  0.64636978
   0.75007329  0.99998355  0.64739235
   0.62500000  0.25000000  0.35205241
   0.75000000  0.37500000  0.35205241
   0.62500000  0.37500000  0.45068414
   0.75000000  0.25000000  0.45068414
   0.62441321  0.25051148  0.55012824
   0.74954091  0.37502966  0.54978317
   0.62542987  0.37499825  0.65043632
   0.75011370  0.24975050  0.64627528
[...]
      2.10131     12.60721     11.71100        -0.003580      0.002965     -0.030246
      4.20220     14.70840     11.71094        -0.003528      0.000319     -0.030220
      2.10085     14.70848     13.79228        -0.004447     -0.000312      0.127369
      4.20145     12.60727     13.79179        -0.005249      0.009471      0.125959
      6.30365      8.40486      7.50000         0.007569     -0.007450      0.289080
      0.00000     10.50608      7.50000        -0.000013     -0.001963      0.266499
      6.30365     10.50608      9.60122         0.014457     -0.031654      0.060788
      0.00000      8.40486      9.60122        -0.000482      0.000277      0.041335
      6.31363      8.39565     11.72060        -0.016569      0.017569     -0.039255
     16.80970     10.50634     11.71088         0.000016      0.003323     -0.028892
      6.29994     10.50730     13.77137         0.005759      0.012829      0.160232
      0.00010      8.40606     13.79172        -0.000885      0.000185      0.127545
      6.30365     12.60729      7.50000         0.002478     -0.005687      0.270724
      0.00000     14.70851      7.50000         0.000060     -0.000522      0.264902
      6.30365     14.70851      9.60122        -0.000047     -0.001117      0.038803
      0.00000     12.60729      9.60122         0.000122     -0.001812      0.047969
      6.30396     12.60779     11.70776        -0.001056      0.006945     -0.025729
      0.00002     14.70846     11.71093         0.000017      0.000092     -0.027356
      6.30250     14.70852     13.79162         0.000348     -0.001424      0.125503
      0.00002     12.60762     13.79222         0.000113      0.004439      0.130062
     10.50608      0.00000      7.50000        -0.002316      0.005345      0.270650
     12.60729      2.10122      7.50000        -0.006002      0.006260      0.271633
     10.50608      2.10122      9.60122        -0.013651      0.030076      0.057744
     12.60729      0.00000      9.60122        -0.003222      0.002277      0.044074
     10.50591     16.80896     11.70751         0.001717     -0.008988     -0.025938
     12.60732      2.10093     11.70633         0.007092     -0.007459     -0.031473
     10.51012      2.09894     13.77003        -0.002640     -0.015341      0.158125
     12.60852     16.80945     13.79182         0.006865     -0.010514      0.125146
     10.50608      4.20243      7.50000        -0.007307      0.007746      0.288770
     12.60729      6.30365      7.50000        -0.010817     -0.000019      0.282192
     10.50608      6.30365      9.60122        -0.037873     -0.000485      0.114148
     12.60729      4.20243      9.60122        -0.032007      0.014835      0.060317
     10.49621      4.21103     11.71974         0.017818     -0.017845     -0.041814
     12.59958      6.30415     11.71239         0.023657      0.000291     -0.026887
     10.51330      6.30362     13.85667         0.030135      0.008547     -0.026645
     12.60920      4.19824     13.76802         0.012999      0.004200      0.156200
     14.70851      0.00000      7.50000        -0.002394      0.001888      0.265997
      8.40486      2.10122      7.50000         0.000175      0.011021      0.282147
     14.70851      2.10122      9.60122        -0.002594      0.002702      0.042857
      8.40486      0.00000      9.60122         0.000509      0.022472      0.052092
     14.70849     16.80971     11.71094         0.003783     -0.003561     -0.028628
      8.40523      2.10830     11.71211        -0.000290     -0.020867     -0.026895
     14.70896      2.10000     13.79159         0.009521     -0.005058      0.122721
      8.40471     16.80806     13.78361        -0.000761     -0.006619      0.141143
     14.70851      4.20243      7.50000        -0.005836      0.002825      0.270167
      8.40486      6.30365      7.50000         0.000061     -0.000064      0.299541
     14.70851      6.30365      9.60122        -0.023503      0.000892      0.049870
      8.40486      4.20243      9.60122        -0.001364      0.037286      0.114394
     14.70939      4.20276     11.70751         0.008188     -0.002479     -0.026865
      8.40476      6.30313     11.73819         0.000635      0.000516     -0.057493
     14.71022      6.30370     13.78345         0.001495     -0.001100      0.138869
      8.40610      4.19266     13.85597         0.006756     -0.029977     -0.025538
     10.50608      8.40486      7.50000        -0.007269     -0.007543      0.289036
     12.60729     10.50608      7.50000        -0.006022     -0.005699      0.271744
     10.50608     10.50608      9.60122        -0.015118     -0.033272      0.061649
     12.60729      8.40486      9.60122        -0.031502     -0.013532      0.060467
     10.49716      8.39468     11.72055         0.015687      0.018577     -0.040043
     12.60746     10.50595     11.70649         0.005654      0.005484     -0.030484
     10.50972     10.50757     13.76884        -0.006071      0.010792      0.161777
     12.60885      8.40862     13.77111         0.013075     -0.003428      0.156767
     10.50608     12.60729      7.50000        -0.002323     -0.005659      0.270278
     12.60729     14.70851      7.50000        -0.002351     -0.000494      0.266659
     10.50608     14.70851      9.60122         0.000189      0.000092      0.038466
     12.60729     12.60729      9.60122        -0.002778     -0.002934      0.043976
     10.50575     12.60807     11.70764         0.001370      0.006487     -0.026148
     12.60756     14.70849     11.71094         0.003706      0.000056     -0.030247
     10.50724     14.70843     13.79161        -0.000263     -0.001113      0.125412
     12.60830     12.60747     13.79150         0.004457      0.009086      0.126333
     14.70851      8.40486      7.50000        -0.005913     -0.002545      0.270570
      8.40486     10.50608      7.50000        -0.000052     -0.010538      0.282269
     14.70851     10.50608      9.60122        -0.002997     -0.003084      0.043142
      8.40486      8.40486      9.60122         0.001182     -0.038205      0.118431
     14.70909      8.40463     11.70760         0.007496      0.002785     -0.025284
      8.40440     10.49814     11.71299         0.000327      0.019671     -0.025817
     14.70871     10.50712     13.79189         0.008343      0.005940      0.122724
      8.40334      8.41009     13.85857        -0.005744      0.034798     -0.017147
     14.70851     12.60729      7.50000        -0.002393     -0.002160      0.266182
      8.40486     14.70851      7.50000         0.000063     -0.000541      0.268015
     14.70851     14.70851      9.60122        -0.001870     -0.000500      0.046826
      8.40486     12.60729      9.60122        -0.000521     -0.024410      0.052422
     14.70846     12.60721     11.71100         0.003520      0.003077     -0.030218
      8.40486     14.70841     11.70842        -0.000034     -0.000537     -0.022114
     14.70893     14.70850     13.79228         0.004652     -0.000580      0.127344
      8.40495     12.60877     13.78385         0.000790      0.001957      0.140317
      2.10122      0.00000      9.60122        -0.005350     -0.003409      0.071372
      4.20243      2.10122      9.60122        -0.021842     -0.023422      0.049457
      2.10122      2.10122      7.50000        -0.004269     -0.004035     -0.553107
      4.20243      0.00000      7.50000        -0.004047     -0.004212     -0.553047
      2.09954     16.80796     13.84236        -0.001504     -0.000825      0.099186
      4.19592      2.09381     13.84261         0.002823      0.005496      0.084102
      2.09945      2.09963     11.70620        -0.002091     -0.000669     -0.042796
      4.20114     16.80816     11.70607        -0.000458     -0.001132     -0.041549
      2.10122      4.20243      9.60122        -0.027288     -0.008799      0.052627
      4.20243      6.30365      9.60122        -0.028618      0.000688      0.049507
      2.10122      6.30365      7.50000        -0.008300     -0.000129     -0.557408
      4.20243      4.20243      7.50000        -0.011831     -0.007006     -0.560925
      2.09871      4.19996     13.84374         0.001525     -0.000728      0.090551
      4.18170      6.30335     13.84176         0.023237     -0.002949      0.075399
      2.09734      6.30397     11.70386         0.007320     -0.000082     -0.041267
      4.19417      4.19893     11.69930         0.016621      0.005015     -0.037198
      6.30365      0.00000      9.60122        -0.007126     -0.024985      0.052931
      0.00000      2.10122      9.60122         0.000167     -0.004519      0.071512
      6.30365      2.10122      7.50000        -0.006891     -0.011751     -0.562973
      0.00000      0.00000      7.50000         0.000045     -0.001674     -0.554407
      6.30080     16.80696     13.84347        -0.000624      0.002495      0.089578
     16.80972      2.10011     13.84291         0.000665     -0.003361      0.099968
      6.30060      2.09345     11.69960         0.005320      0.016477     -0.039586
     16.80972     16.80919     11.70682         0.000190     -0.000584     -0.036991
      6.30365      4.20243      9.60122        -0.014442     -0.013401      0.064391
      0.00000      6.30365      9.60122         0.000353      0.001200      0.060503
      6.30365      6.30365      7.50000        -0.011543     -0.000380     -0.577153
      0.00000      4.20243      7.50000        -0.000093     -0.002198     -0.553580
      6.27553      4.17889     13.82349         0.028194      0.032430      0.114694
      0.00002      6.30354     13.84278         0.001082     -0.000108      0.095428
      6.29459      6.30404     11.71082         0.025599     -0.002545      0.018939
      0.00007      4.20161     11.70662         0.000611      0.001073     -0.042273
      2.10122      8.40486      9.60122        -0.026029      0.008411      0.053550
      4.20243     10.50608      9.60122        -0.022380      0.020521      0.049864
      2.10122     10.50608      7.50000        -0.004340      0.004055     -0.553114
      4.20243      8.40486      7.50000        -0.012025      0.006686     -0.562947
      2.09886      8.40744     13.84355         0.003120     -0.000272      0.090779
      4.19559     10.51214     13.84262         0.004145     -0.003912      0.083123
      2.09966     10.50717     11.70593        -0.001515     -0.000425     -0.041909
      4.19522      8.40793     11.70004         0.015237     -0.006513     -0.039682
      2.10122     12.60729      9.60122        -0.004311      0.003790      0.071764
      4.20243     14.70851      9.60122        -0.003149      0.000749      0.071609
      2.10122     14.70851      7.50000        -0.001782      0.000118     -0.550466
      4.20243     12.60729      7.50000        -0.004194      0.004446     -0.550966
      2.09953     12.60889     13.84214        -0.001336      0.001129      0.099980
      4.20125     14.70853     13.84266        -0.003936      0.000017      0.100401
      2.10071     14.70860     11.70604        -0.000548     -0.000099     -0.037017
      4.20116     12.60874     11.70615        -0.000559      0.001180     -0.041699
      6.30365      8.40486      9.60122        -0.011286      0.014074      0.065646
      0.00000     10.50608      9.60122        -0.000056      0.001520      0.071319
      6.30365     10.50608      7.50000        -0.006988      0.011951     -0.563351
      0.00000      8.40486      7.50000         0.000282      0.001959     -0.557732
      6.28151      8.43175     13.82579         0.026171     -0.031320      0.106600
      0.00004     10.50736     13.84284         0.000184      0.004079      0.099262
      6.30048     10.51378     11.69975         0.004434     -0.016457     -0.039917
     16.80969      8.40575     11.70721         0.000286     -0.000527     -0.042222
      6.30365     12.60729      9.60122        -0.007913      0.025715      0.052678
      0.00000     14.70851      9.60122         0.000069      0.001682      0.072440
      6.30365     14.70851      7.50000        -0.002145      0.000248     -0.553834
      0.00000     12.60729      7.50000         0.000095      0.001914     -0.550353
      6.30129     12.60977     13.84373        -0.001833     -0.001064      0.088748
      0.00002     14.70836     13.84181         0.000163      0.000026      0.099556
      6.30292     14.70849     11.70645        -0.000251     -0.000280     -0.043031
      0.00003     12.60769     11.70611         0.000078      0.000586     -0.037407
     10.50608      0.00000      9.60122         0.007607     -0.026825      0.051130
     12.60729      2.10122      9.60122         0.023436     -0.022404      0.049168
     10.50608      2.10122      7.50000         0.007074     -0.011665     -0.563144
     12.60729      0.00000      7.50000         0.004318     -0.004179     -0.553016
     10.50901     16.80690     13.84390         0.000298      0.002000      0.090253
     12.61465      2.09449     13.84273        -0.004262      0.004238      0.083620
     10.50942      2.09269     11.69893        -0.004637      0.016277     -0.037951
     12.60869     16.80812     11.70629         0.000261     -0.001508     -0.041871
     10.50608      4.20243      9.60122         0.012856     -0.015026      0.064385
     12.60729      6.30365      9.60122         0.028751     -0.000043      0.049181
     10.50608      6.30365      7.50000         0.011687     -0.000494     -0.577044
     12.60729      4.20243      7.50000         0.012008     -0.006990     -0.560543
     10.52877      4.17292     13.82291        -0.029574      0.028484      0.112970
     12.62818      6.30397     13.84127        -0.021803     -0.001507      0.068624
     10.51518      6.30288     11.71082        -0.026550     -0.001575      0.017671
     12.61497      4.19916     11.69972        -0.017273      0.004862     -0.040005
     14.70851      0.00000      9.60122         0.005242     -0.003580      0.071469
      8.40486      2.10122      9.60122        -0.000342     -0.030963      0.047600
     14.70851      2.10122      7.50000         0.004450     -0.003911     -0.553007
      8.40486      0.00000      7.50000        -0.000047     -0.008215     -0.561466
     14.71023     16.80795     13.84234         0.001889     -0.000768      0.099348
      8.40520      2.07915     13.84114         0.000151      0.020103      0.071298
     14.71025      2.09973     11.70604         0.002646     -0.001590     -0.042946
      8.40485     16.80573     11.70447        -0.000148      0.006757     -0.042191
     14.70851      4.20243      9.60122         0.026157     -0.008758      0.053730
      8.40486      6.30365      9.60122         0.000101      0.000131      0.098637
     14.70851      6.30365      7.50000         0.008461     -0.000407     -0.557338
      8.40486      4.20243      7.50000         0.000045     -0.011683     -0.576913
     14.71099      4.20004     13.84327        -0.001289     -0.001910      0.089233
      8.40503      6.30123     13.81178         0.000196     -0.005083      0.161448
     14.71249      6.30390     11.70377        -0.006542     -0.000952     -0.042902
      8.40423      4.19304     11.71054         0.000179      0.026477      0.018812
     10.50608      8.40486      9.60122         0.012911      0.012525      0.065704
     12.60729     10.50608      9.60122         0.021317      0.022163      0.049433
     10.50608     10.50608      7.50000         0.007086      0.012039     -0.563020
     12.60729      8.40486      7.50000         0.012064      0.006712     -0.563129
     10.53399      8.42665     13.82544        -0.028419     -0.032865      0.108367
     12.61345     10.51303     13.84270        -0.003939     -0.004909      0.082839
     10.50902     10.51318     11.70017        -0.004505     -0.017357     -0.041189
     12.61532      8.40832     11.69936        -0.015778     -0.005707     -0.039033
     10.50608     12.60729      9.60122         0.007952      0.024409      0.053980
     12.60729     14.70851      9.60122         0.003308      0.001038      0.071712
     10.50608     14.70851      7.50000         0.002302     -0.000105     -0.553793
     12.60729     12.60729      7.50000         0.004181      0.004528     -0.550861
     10.50840     12.60971     13.84328         0.002094     -0.001359      0.088555
     12.60850     14.70849     13.84265         0.003929      0.000538      0.100527
     10.50684     14.70859     11.70644         0.000216      0.000085     -0.042947
     12.60850     12.60871     11.70597         0.000926      0.001527     -0.041599
     14.70851      8.40486      9.60122         0.028063      0.008770      0.051624
      8.40486     10.50608      9.60122         0.000426      0.025976      0.050919
     14.70851     10.50608      7.50000         0.004448      0.004221     -0.553137
      8.40486      8.40486      7.50000         0.000124      0.011236     -0.581293
     14.71098      8.40748     13.84391        -0.001404      0.000097      0.090816
      8.40455     10.52707     13.84272        -0.000369     -0.021687      0.068449
     14.71009     10.50730     11.70615         0.002163     -0.000549     -0.042142
      8.40541      8.41300     11.71186        -0.000311     -0.027539      0.017007
     14.70851     12.60729      9.60122         0.004666      0.003636      0.071768
      8.40486     14.70851      9.60122         0.000162      0.001208      0.060168
     14.70851     14.70851      7.50000         0.001909      0.000105     -0.550432
      8.40486     12.60729      7.50000         0.000214      0.008498     -0.557344
     14.71024     12.60891     13.84214         0.001378      0.001597      0.099919
      8.40489     14.70841     13.84281         0.000069      0.000629      0.094656
     14.70903     14.70856     11.70604         0.000710      0.000060     -0.037034
      8.40492     12.61092     11.70409         0.000029     -0.007128     -0.043106
 -----------------------------------------------------------------------------------
    total drift:                               -0.019683     -0.000117     -0.008914


--------------------------------------------------------------------------------------------------------



  FREE ENERGIE OF THE ION-ELECTRON SYSTEM (eV)
  ---------------------------------------------------
  free  energy   TOTEN  =     -1608.45574498 eV

  energy  without entropy=    -1608.45574498  energy(sigma->0) =    -1608.45574498



--------------------------------------------------------------------------------------------------------


    POTLOK:  cpu time      1.8421: real time      1.8422


--------------------------------------------------------------------------------------------------------


     LOOP+:  cpu time    156.4585: real time    156.8670
    4ORBIT:  cpu time      0.0000: real time      0.0000

 total amount of memory used by VASP MPI-rank0    75589. kBytes
=======================================================================

   base      :      30000. kBytes
   nonlr-proj:      10756. kBytes
   fftplans  :       9304. kBytes
   grid      :      19418. kBytes
   one-center:        141. kBytes
   wavefun   :       5970. kBytes

  
  
 General timing and accounting informations for this job:
 ========================================================
  
                  Total CPU time used (sec):      216.767
                            User time (sec):      212.733
                          System time (sec):        4.034
                         Elapsed time (sec):      235.669
  
                   Maximum memory used (kb):      240928.
                   Average memory used (kb):          N/A
  
                          Minor page faults:       341818
                          Major page faults:           46
                 Voluntary context switches:        18705
