 vasp.6.3.0 20Jan22 (build Aug 21 2024 11:13:42) complex                         
 executed on        HPECrayEX_GCC date 2024.08.22  13:40:50
 running  384 mpi-ranks, with    1 threads/rank
 distrk:  each k-point on  384 cores,    1 groups
 distr:  one band on NCORE=   8 cores,   48 groups


--------------------------------------------------------------------------------------------------------


 INCAR:
   SYSTEM = MgO-rocksalt
   ISMEAR = 0
   SIGMA = 0.05
   EDIFF = 1E-6
   ALGO = ALL
   ISTART = 0
   IBRION = -1
   NSW = 0
   ISYM = 0
   DIPOL = 0.5 0.5 0.5
   IDIPOL = 4
   LDIPOL = .TRUE.
   GGA = MK
   LUSE_VDW = .TRUE.
   PARAM1 = 0.1234
   PARAM2 = 0.711357
   ZAB_VDW = -1.8867
   AGGAC = 0.0
   ENCUT = 600
   PREC = Accurate
   LASPH = .TRUE.
   LREAL = .FALSE.
   ISPIN = 1
   NELM = 200
   NELMIN = 8
   NCORE = 8
   KPAR = 1
   LWAVE = .FALSE.
   LCHARG = .FALSE.

 POTCAR:    PAW_PBE C 08Apr2002                   
 POTCAR:    PAW_PBE H 15Jun2001                   
 -----------------------------------------------------------------------------
|                                                                             |
|               ----> ADVICE to this user running VASP <----                  |
|                                                                             |
|     You have switched on vdW-DFT.                                           |
|     This routine was written and supplied by Jiri Klimes. We recommend      |
|     that you carefully read and cite the following publications:            |
|       J. Klimes, D.R. Bowler, A. Michelides                                 |
|          J. Phys.: Cond Matt. 22 022201 (2010)                              |
|       J. Klimes, D.R. Bowler, A. Michelides                                 |
|          Phys. Rev. B. 83, 195131 (2011)                                    |
|     and references therein.                                                 |
|                                                                             |
 -----------------------------------------------------------------------------

 POTCAR:    PAW_PBE C 08Apr2002                   
   SHA256 =  253f7b50bb8d59471dbedb8285d89021f4a42ed1a2c5d38a03a736e69125dd95 C/POTCAR              
   COPYR  = (c) Copyright 08Apr2002 Georg Kresse                                                    
   COPYR  = This file is part of the software VASP. Any use, copying, and all other rights are regul
   COPYR  = If you do not have a valid VASP license, you may not use, copy or distribute this file. 
   VRHFIN =C: s2p2                                                                                  
   LEXCH  = PE                                                                                      
   EATOM  =   147.1560 eV,   10.8157 Ry                                                             
                                                                                                    
   TITEL  = PAW_PBE C 08Apr2002                                                                     
   LULTRA =        F    use ultrasoft PP ?                                                          
   IUNSCR =        1    unscreen: 0-lin 1-nonlin 2-no                                               
   RPACOR =    1.200    partial core radius                                                         
   POMASS =   12.011; ZVAL   =    4.000    mass and valenz                                          
   RCORE  =    1.500    outmost cutoff radius                                                       
   RWIGS  =    1.630; RWIGS  =    0.863    wigner-seitz radius (au A)                               
   ENMAX  =  400.000; ENMIN  =  300.000 eV                                                          
   ICORE  =        2    local potential                                                             
   LCOR   =        T    correct aug charges                                                         
   LPAW   =        T    paw PP                                                                      
   EAUG   =  644.873                                                                                
   DEXC   =    0.000                                                                                
   RMAX   =    1.529    core radius for proj-oper                                                   
   RAUG   =    1.300    factor for augmentation sphere                                              
   RDEP   =    1.501    radius for radial grids                                                     
   RDEPT  =    1.300    core radius for aug-charge                                                  
                                                                                                    
   Atomic configuration                                                                             
    4 entries                                                                                       
     n  l   j            E        occ.                                                              
     1  0  0.50      -273.3789   2.0000                                                             
     2  0  0.50       -13.7508   2.0000                                                             
     2  1  0.50        -5.2854   2.0000                                                             
     3  2  1.50        -5.4423   0.0000                                                             
   Description                                                                                      
     l       E           TYP  RCUT    TYP  RCUT                                                     
     0    -13.7508458     23  1.200                                                                 
     0     -8.2022199     23  1.200                                                                 
     1     -5.2854383     23  1.500                                                                 
     1     34.0145650     23  1.500                                                                 
     2     -5.4423304      7  1.500                                                                 
  local pseudopotential read in
  partial core-charges read in
  partial kinetic energy density read in
  atomic valenz-charges read in
  non local Contribution for L=           0  read in
    real space projection operators read in
  non local Contribution for L=           0  read in
    real space projection operators read in
  non local Contribution for L=           1  read in
    real space projection operators read in
  non local Contribution for L=           1  read in
    real space projection operators read in
    PAW grid and wavefunctions read in

   number of l-projection  operators is LMAX  =           4
   number of lm-projection operators is LMMAX =           8

 POTCAR:    PAW_PBE H 15Jun2001                   
   SHA256 =  030f79b5d3ab3cf0e668861823c8fb652ff669f3e15e46930bd03bfd63a607b6 H/POTCAR              
   COPYR  = (c) Copyright 15Jun2001 Georg Kresse                                                    
   COPYR  = This file is part of the software VASP. Any use, copying, and all other rights are regul
   COPYR  = If you do not have a valid VASP license, you may not use, copy or distribute this file. 
   VRHFIN =H: ultrasoft test                                                                        
   LEXCH  = PE                                                                                      
   EATOM  =    12.4884 eV,    0.9179 Ry                                                             
                                                                                                    
   TITEL  = PAW_PBE H 15Jun2001                                                                     
   LULTRA =        F    use ultrasoft PP ?                                                          
   IUNSCR =        0    unscreen: 0-lin 1-nonlin 2-no                                               
   RPACOR =    0.000    partial core radius                                                         
   POMASS =    1.000; ZVAL   =    1.000    mass and valenz                                          
   RCORE  =    1.100    outmost cutoff radius                                                       
   RWIGS  =    0.700; RWIGS  =    0.370    wigner-seitz radius (au A)                               
   ENMAX  =  250.000; ENMIN  =  200.000 eV                                                          
   RCLOC  =    0.701    cutoff for local pot                                                        
   LCOR   =        T    correct aug charges                                                         
   LPAW   =        T    paw PP                                                                      
   EAUG   =  400.000                                                                                
   RMAX   =    1.123    core radius for proj-oper                                                   
   RAUG   =    1.200    factor for augmentation sphere                                              
   RDEP   =    1.112    radius for radial grids                                                     
   RDEPT  =    0.926    core radius for aug-charge                                                  
                                                                                                    
   Atomic configuration                                                                             
    2 entries                                                                                       
     n  l   j            E        occ.                                                              
     1  0  0.50        -6.4927   1.0000                                                             
     2  1  0.50        -3.4015   0.0000                                                             
   Description                                                                                      
     l       E           TYP  RCUT    TYP  RCUT                                                     
     0     -6.4927494     23  1.100                                                                 
     0      6.8029130     23  1.100                                                                 
     1     -4.0817478     23  1.100                                                                 
  local pseudopotential read in
  atomic valenz-charges read in
  non local Contribution for L=           0  read in
    real space projection operators read in
  non local Contribution for L=           0  read in
    real space projection operators read in
  non local Contribution for L=           1  read in
    real space projection operators read in
    PAW grid and wavefunctions read in

   number of l-projection  operators is LMAX  =           3
   number of lm-projection operators is LMMAX =           5

 -----------------------------------------------------------------------------
|                                                                             |
|               ----> ADVICE to this user running VASP <----                  |
|                                                                             |
|     You enforced a specific xc type in the INCAR file but a different       |
|     type was found in the POTCAR file.                                      |
|     I HOPE YOU KNOW WHAT YOU ARE DOING!                                     |
|                                                                             |
 -----------------------------------------------------------------------------

  PAW_PBE C 08Apr2002                   :
 energy of atom  1       EATOM= -147.1560
 kinetic energy error for atom=    0.0057 (will be added to EATOM!!)
  PAW_PBE H 15Jun2001                   :
 energy of atom  2       EATOM=  -12.4884
 kinetic energy error for atom=    0.0004 (will be added to EATOM!!)


 POSCAR:  C  H
  positions in direct lattice
  No initial velocities read in
 exchange correlation table for  LEXCH =       43
   RHO(1)=    0.500       N(1)  =     2000
   RHO(2)=  100.500       N(2)  =     4000



--------------------------------------------------------------------------------------------------------


 ion  position               nearest neighbor table
   1  0.616  0.518  0.484-   5 1.10   4 1.10   3 1.10   2 1.53
   2  0.673  0.483  0.514-   7 1.10   1 1.53
   3  0.593  0.478  0.444-   1 1.10
   4  0.624  0.571  0.451-   1 1.10
   5  0.586  0.532  0.532-   1 1.10
   6  0.335  0.472  0.465-
   7  0.665  0.429  0.545-   2 1.10
   8  0.327  0.521  0.556-


IMPORTANT INFORMATION: All symmetrisations will be switched off!
NOSYMM: (Re-)initialisation of all symmetry stuff for point group C_1.


----------------------------------------------------------------------------------------

                                     Primitive cell                                     

  volume of cell :    6771.0425

  direct lattice vectors                    reciprocal lattice vectors
    22.928865212  0.000000000  0.000000000     0.043613148  0.000000000  0.000000000
     0.000000000 17.494293016  0.000000000     0.000000000  0.057161498  0.000000000
     0.000000000  0.000000000 16.880160847     0.000000000  0.000000000  0.059241142

  length of vectors
    22.928865212 17.494293016 16.880160847     0.043613148  0.057161498  0.059241142

  position of ions in fractional coordinates (direct lattice)
     0.616216594  0.518074876  0.483567483
     0.672901387  0.482987198  0.514086013
     0.593309206  0.477821424  0.444308562
     0.624155752  0.571288763  0.450659175
     0.586078717  0.531829891  0.532063103
     0.335024036  0.471746890  0.465031156
     0.664866092  0.428711237  0.544914884
     0.327098613  0.521373537  0.555691438

  ion indices of the primitive-cell ions
   primitive index   ion index
                 1           1
                 2           2
                 3           3
                 4           4
                 5           5
                 6           6
                 7           7
                 8           8

----------------------------------------------------------------------------------------



 KPOINTS: pymatgen v2020.8.13 with grid density = 

Automatic generation of k-mesh.
 Grid dimensions read from file:
 generate k-points for:    1    1    1

 Generating k-lattice:

  Cartesian coordinates                     Fractional coordinates (reciprocal lattice)
     0.043613148  0.000000000  0.000000000     1.000000000  0.000000000  0.000000000
     0.000000000  0.057161498  0.000000000     0.000000000  1.000000000  0.000000000
     0.000000000  0.000000000  0.059241142     0.000000000  0.000000000  1.000000000

  Length of vectors
     0.043613148  0.057161498  0.059241142

  Shift w.r.t. Gamma in fractional coordinates (k-lattice)
     0.000000000  0.000000000  0.000000000

 
 Subroutine IBZKPT returns following result:
 ===========================================
 
 Found      1 irreducible k-points:
 
 Following reciprocal coordinates:
            Coordinates               Weight
  0.000000  0.000000  0.000000      1.000000
 
 Following cartesian coordinates:
            Coordinates               Weight
  0.000000  0.000000  0.000000      1.000000
 


--------------------------------------------------------------------------------------------------------




 Dimension of arrays:
   k-points           NKPTS =      1   k-points in BZ     NKDIM =      1   number of bands    NBANDS=     48
   number of dos      NEDOS =    301   number of ions     NIONS =      8
   non local maximal  LDIM  =      4   non local SUM 2l+1 LMDIM =      8
   total plane-waves  NPLWV = ******
   max r-space proj   IRMAX =      1   max aug-charges    IRDMAX=   6757
   dimension x,y,z NGX =   192 NGY =  140 NGZ =  140
   dimension x,y,z NGXF=   384 NGYF=  280 NGZF=  280
   support grid    NGXF=   384 NGYF=  280 NGZF=  280
   ions per type =               2   6
   NGX,Y,Z   is equivalent  to a cutoff of  13.92, 13.30, 13.79 a.u.
   NGXF,Y,Z  is equivalent  to a cutoff of  27.84, 26.61, 27.58 a.u.

 SYSTEM =  MgO-rocksalt                            
 POSCAR =   C  H                                   

--------------------------------------------------------------------------------------------------------


  energy-cutoff  :      600.00
  volume of cell :     6771.04
      direct lattice vectors                 reciprocal lattice vectors
    22.928865212  0.000000000  0.000000000     0.043613148  0.000000000  0.000000000
     0.000000000 17.494293016  0.000000000     0.000000000  0.057161498  0.000000000
     0.000000000  0.000000000 16.880160847     0.000000000  0.000000000  0.059241142

  length of vectors
    22.928865212 17.494293016 16.880160847     0.043613148  0.057161498  0.059241142



 k-points in units of 2pi/SCALE and weight: pymatgen v2020.8.13 with grid density = 
   0.00000000  0.00000000  0.00000000       1.000

 k-points in reciprocal lattice and weights: pymatgen v2020.8.13 with grid density = 
   0.00000000  0.00000000  0.00000000       1.000

 position of ions in fractional coordinates (direct lattice) 
   0.61621659  0.51807488  0.48356748
   0.67290139  0.48298720  0.51408601
   0.59330921  0.47782142  0.44430856
   0.62415575  0.57128876  0.45065918
   0.58607872  0.53182989  0.53206310
   0.33502404  0.47174689  0.46503116
   0.66486609  0.42871124  0.54491488
   0.32709861  0.52137354  0.55569144

 position of ions in cartesian coordinates  (Angst):
  14.12914723  9.06335368  8.16269690
  15.42886521  8.44951956  8.67785460
  13.60390682  8.35914799  7.50000000
  14.31118311  9.99429302  7.60719937
  13.43811990  9.30398795  8.98131076
   7.68172098  8.25287833  7.84980071
  15.24462500  7.50000000  9.19825089
   7.50000000  9.12106143  9.38016085



--------------------------------------------------------------------------------------------------------

--------------------------------------- Iteration      FINAL  ---------------------------------------


--------------------OUTCAR has been truncated-------------------------


--------------------OUTCAR has been truncated-------------------------


--------------------OUTCAR has been truncated-------------------------


--------------------OUTCAR has been truncated-------------------------


--------------------OUTCAR has been truncated-------------------------


--------------------OUTCAR has been truncated-------------------------


--------------------OUTCAR has been truncated-------------------------


--------------------OUTCAR has been truncated-------------------------


--------------------OUTCAR has been truncated-------------------------


--------------------OUTCAR has been truncated-------------------------


  FORCE on cell =-STRESS in cart. coord.  units (eV):
  Direction    XX          YY          ZZ          XY          YZ          ZX
  --------------------------------------------------------------------------------------
  Alpha Z     0.11515     0.11515     0.11515
  Ewald     155.69231   120.67319    84.83471   -55.59771   -49.62762    44.50955
  Hartree   247.74621   208.08165   192.35414   -33.16333   -28.01598    28.32007
  E(xc)     -45.76801   -45.54374   -45.75131    -0.01613    -0.16884     0.01565
  Local    -523.31948  -435.13714  -378.97267    86.01120    81.62367   -73.81122
  n-local   -20.94924   -18.87176   -15.73585    -1.45774     2.41608     0.06498
  augment     0.28057     0.16977     0.12677     0.01372    -0.03896     0.01544
  Kinetic   184.87351   169.12653   158.85633     5.96869    -8.33056     0.35460
  Fock        0.00000     0.00000     0.00000     0.00000     0.00000     0.00000
  -------------------------------------------------------------------------------------
  Total      -1.32898    -1.38635    -4.17273     1.75869    -2.14221    -0.53093
  in kB      -0.31446    -0.32804    -0.98736     0.41614    -0.50689    -0.12563
  external pressure =       -0.54 kB  Pullay stress =        0.00 kB


 VOLUME and BASIS-vectors are now :
 -----------------------------------------------------------------------------
  energy-cutoff  :      600.00
  volume of cell :     6771.04
      direct lattice vectors                 reciprocal lattice vectors
    22.928865212  0.000000000  0.000000000     0.043613148  0.000000000  0.000000000
     0.000000000 17.494293016  0.000000000     0.000000000  0.057161498  0.000000000
     0.000000000  0.000000000 16.880160847     0.000000000  0.000000000  0.059241142

  length of vectors
    22.928865212 17.494293016 16.880160847     0.043613148  0.057161498  0.059241142


 FORCES acting on ions:
    Electron-Ion                     Ewald-Force                    Non-Local-Force
 -----------------------------------------------------------------------------------------------
   0.453E+02 -.275E+02 0.218E+02   -.430E+02 0.280E+02 -.220E+02   -.606E+00 -.752E+00 0.369E+00
   -.103E+03 0.194E+02 -.240E+02   0.121E+03 -.110E+02 0.214E+02   -.186E+02 -.714E+01 0.187E+01
   0.322E+02 0.330E+02 0.376E+02   -.351E+02 -.368E+02 -.409E+02   0.260E+01 0.343E+01 0.333E+01
   -.483E+01 -.512E+02 0.311E+02   0.587E+01 0.559E+02 -.340E+02   -.994E+00 -.479E+01 0.285E+01
   0.408E+02 -.163E+02 -.401E+02   -.445E+02 0.174E+02 0.445E+02   0.346E+01 -.129E+01 -.404E+01
   0.251E+01 0.377E+01 0.636E+01   -.277E+01 -.253E+01 -.416E+01   -.603E-01 0.314E+00 0.554E+00
   -.325E+01 0.479E+02 -.278E+02   0.204E+01 -.533E+02 0.308E+02   0.600E+00 0.501E+01 -.279E+01
   0.371E+01 -.359E+01 -.657E+01   -.345E+01 0.235E+01 0.437E+01   0.709E-01 -.314E+00 -.554E+00
 -----------------------------------------------------------------------------------------------
   0.135E+02 0.554E+01 -.159E+01   0.284E-13 0.000E+00 -.711E-14   -.135E+02 -.554E+01 0.159E+01


 POSITION                                       TOTAL-FORCE (eV/Angst)
 -----------------------------------------------------------------------------------
     14.12915      9.06335      8.16270         1.645811     -0.275180      0.211523
     15.42887      8.44952      8.67785        -0.620436      1.260564     -0.764534
     13.60391      8.35915      7.50000        -0.221766     -0.310731      0.006113
     14.31118      9.99429      7.60720         0.049117     -0.022738     -0.007210
     13.43812      9.30399      8.98131        -0.245601     -0.223938      0.360237
      7.68172      8.25288      7.84980        -0.326093      1.560512      2.750611
     15.24462      7.50000      9.19825        -0.608463     -0.428098      0.193975
      7.50000      9.12106      9.38016         0.327430     -1.560391     -2.750715
 -----------------------------------------------------------------------------------
    total drift:                               -0.000678     -0.000432      0.000209


--------------------------------------------------------------------------------------------------------



  FREE ENERGIE OF THE ION-ELECTRON SYSTEM (eV)
  ---------------------------------------------------
  free  energy   TOTEN  =       -28.87405343 eV

  energy  without entropy=      -28.87405342  energy(sigma->0) =      -28.87405343



--------------------------------------------------------------------------------------------------------


    POTLOK:  cpu time      1.3783: real time      1.3788


--------------------------------------------------------------------------------------------------------


     LOOP+:  cpu time     60.3449: real time     60.5397
    4ORBIT:  cpu time      0.0000: real time      0.0000

 total amount of memory used by VASP MPI-rank0    78626. kBytes
=======================================================================

   base      :      30000. kBytes
   nonl-proj :       7237. kBytes
   fftplans  :      16739. kBytes
   grid      :      23288. kBytes
   one-center:          3. kBytes
   wavefun   :       1359. kBytes

  
  
 General timing and accounting informations for this job:
 ========================================================
  
                  Total CPU time used (sec):       78.790
                            User time (sec):       77.131
                          System time (sec):        1.659
                         Elapsed time (sec):       82.673
  
                   Maximum memory used (kb):      339920.
                   Average memory used (kb):          N/A
  
                          Minor page faults:        28276
                          Major page faults:         1128
                 Voluntary context switches:         8694
