 vasp.6.3.0 20Jan22 (build Apr  1 2022 16:44:48) complex                         
 executed on        HPECrayEX_GCC date 2023.01.26  19:17:59
 running  512 mpi-ranks, with    1 threads/rank
 distrk:  each k-point on  512 cores,    1 groups
 distr:  one band on NCORE=   8 cores,   64 groups


--------------------------------------------------------------------------------------------------------


 INCAR:
   SYSTEM = MgO-rocksalt
   ISMEAR = 0
   SIGMA = 0.05
   EDIFF = 1E-6
   ALGO = ALL
   ISTART = 0
   IBRION = -1
   NSW = 0
   ISYM = 0
   DIPOL = 0.5 0.5 0.5
   IDIPOL = 3
   LDIPOL = .TRUE.
   LHFCALC = .TRUE.
   GGA = B5
   AEXX = 0.2
   AGGAX = 0.72
   AGGAC = 0.81
   ALDAC = 0.19
   IVDW = 1
   VDW_S6 = 1.05
   VDW_C6 = 0.63 0.70
   VDW_R0 = 1.243 1.342
   ENCUT = 600
   PREC = Accurate
   LASPH = .TRUE.
   LREAL = .FALSE.
   ISPIN = 1
   NELM = 200
   NELMIN = 8
   NCORE = 8
   KPAR = 1
   LWAVE = .FALSE.
   LCHARG = .FALSE.

 POTCAR:    PAW_PBE Mg_pv 13Apr2007               
 POTCAR:    PAW_PBE O 08Apr2002                   
 POTCAR:    PAW_PBE Mg_pv 13Apr2007               
   SHA256 =  f474ac0dd33840b9ae76c01d57fea79fdf77cdfbb07d5ade72c65f83c709b62b Mg_pv/POTCAR          
   COPYR  = (c) Copyright 13Apr2007 Georg Kresse                                                    
   COPYR  = This file is part of the software VASP. Any use, copying, and all other rights are regul
   COPYR  = If you do not have a valid VASP license, you may not use, copy or distribute this file. 
   VRHFIN =Mg: p6s2                                                                                 
   LEXCH  = PE                                                                                      
   EATOM  =  1056.7344 eV,   77.6678 Ry                                                             
                                                                                                    
   TITEL  = PAW_PBE Mg_pv 13Apr2007                                                                 
   LULTRA =        F    use ultrasoft PP ?                                                          
   IUNSCR =        1    unscreen: 0-lin 1-nonlin 2-no                                               
   RPACOR =    1.500    partial core radius                                                         
   POMASS =   24.305; ZVAL   =    8.000    mass and valenz                                          
   RCORE  =    2.000    outmost cutoff radius                                                       
   RWIGS  =    2.000; RWIGS  =    1.058    wigner-seitz radius (au A)                               
   ENMAX  =  403.929; ENMIN  =  302.947 eV                                                          
   RCLOC  =    1.506    cutoff for local pot                                                        
   LCOR   =        T    correct aug charges                                                         
   LPAW   =        T    paw PP                                                                      
   EAUG   =  758.780                                                                                
   DEXC   =    0.000                                                                                
   RMAX   =    2.045    core radius for proj-oper                                                   
   RAUG   =    1.300    factor for augmentation sphere                                              
   RDEP   =    2.025    radius for radial grids                                                     
   RDEPT  =    1.557    core radius for aug-charge                                                  
                                                                                                    
   Atomic configuration                                                                             
    5 entries                                                                                       
     n  l   j            E        occ.                                                              
     1  0  0.50     -1259.6230   2.0000                                                             
     2  0  0.50       -79.8442   2.0000                                                             
     2  1  1.50       -46.6121   6.0000                                                             
     3  0  0.50        -4.7055   2.0000                                                             
     3  2  1.50        -1.3606   0.0000                                                             
   Description                                                                                      
     l       E           TYP  RCUT    TYP  RCUT                                                     
     1    -46.6121073     23  1.600                                                                 
     1      2.7211652     23  1.600                                                                 
     0     -4.7054661     23  2.000                                                                 
     0     61.2262170     23  2.000                                                                 
     2     -1.3605826     23  2.000                                                                 
  local pseudopotential read in
  partial core-charges read in
  partial kinetic energy density read in
  atomic valenz-charges read in
  non local Contribution for L=           1  read in
    real space projection operators read in
  non local Contribution for L=           1  read in
    real space projection operators read in
  non local Contribution for L=           0  read in
    real space projection operators read in
  non local Contribution for L=           0  read in
    real space projection operators read in
  non local Contribution for L=           2  read in
    real space projection operators read in
    PAW grid and wavefunctions read in

   number of l-projection  operators is LMAX  =           5
   number of lm-projection operators is LMMAX =          13

 POTCAR:    PAW_PBE O 08Apr2002                   
   SHA256 =  818f92134a0a090dccd8ba1447fa70422a3b330e708bb4f08108d8ae51209ddf O/POTCAR              
   COPYR  = (c) Copyright 08Apr2002 Georg Kresse                                                    
   COPYR  = This file is part of the software VASP. Any use, copying, and all other rights are regul
   COPYR  = If you do not have a valid VASP license, you may not use, copy or distribute this file. 
   VRHFIN =O: s2p4                                                                                  
   LEXCH  = PE                                                                                      
   EATOM  =   432.3788 eV,   31.7789 Ry                                                             
                                                                                                    
   TITEL  = PAW_PBE O 08Apr2002                                                                     
   LULTRA =        F    use ultrasoft PP ?                                                          
   IUNSCR =        1    unscreen: 0-lin 1-nonlin 2-no                                               
   RPACOR =    1.200    partial core radius                                                         
   POMASS =   16.000; ZVAL   =    6.000    mass and valenz                                          
   RCORE  =    1.520    outmost cutoff radius                                                       
   RWIGS  =    1.550; RWIGS  =    0.820    wigner-seitz radius (au A)                               
   ENMAX  =  400.000; ENMIN  =  300.000 eV                                                          
   ICORE  =        2    local potential                                                             
   LCOR   =        T    correct aug charges                                                         
   LPAW   =        T    paw PP                                                                      
   EAUG   =  605.392                                                                                
   DEXC   =    0.000                                                                                
   RMAX   =    1.553    core radius for proj-oper                                                   
   RAUG   =    1.300    factor for augmentation sphere                                              
   RDEP   =    1.550    radius for radial grids                                                     
   RDEPT  =    1.329    core radius for aug-charge                                                  
                                                                                                    
   Atomic configuration                                                                             
    4 entries                                                                                       
     n  l   j            E        occ.                                                              
     1  0  0.50      -514.6923   2.0000                                                             
     2  0  0.50       -23.9615   2.0000                                                             
     2  1  0.50        -9.0305   4.0000                                                             
     3  2  1.50        -9.5241   0.0000                                                             
   Description                                                                                      
     l       E           TYP  RCUT    TYP  RCUT                                                     
     0    -23.9615318     23  1.200                                                                 
     0     -9.5240782     23  1.200                                                                 
     1     -9.0304911     23  1.520                                                                 
     1      8.1634956     23  1.520                                                                 
     2     -9.5240782      7  1.500                                                                 
  local pseudopotential read in
  partial core-charges read in
  partial kinetic energy density read in
  kinetic energy density of atom read in
  atomic valenz-charges read in
  non local Contribution for L=           0  read in
    real space projection operators read in
  non local Contribution for L=           0  read in
    real space projection operators read in
  non local Contribution for L=           1  read in
    real space projection operators read in
  non local Contribution for L=           1  read in
    real space projection operators read in
    PAW grid and wavefunctions read in

   number of l-projection  operators is LMAX  =           4
   number of lm-projection operators is LMMAX =           8

 -----------------------------------------------------------------------------
|                                                                             |
|               ----> ADVICE to this user running VASP <----                  |
|                                                                             |
|     You have a (more or less) 'large supercell' and for larger cells it     |
|     might be more efficient to use real-space projection operators.         |
|     Therefore, try LREAL= Auto in the INCAR file.                           |
|     Mind: For very accurate calculation, you might also keep the            |
|     reciprocal projection scheme (i.e. LREAL=.FALSE.).                      |
|                                                                             |
 -----------------------------------------------------------------------------

 -----------------------------------------------------------------------------
|                                                                             |
|               ----> ADVICE to this user running VASP <----                  |
|                                                                             |
|     You enforced a specific xc type in the INCAR file but a different       |
|     type was found in the POTCAR file.                                      |
|     I HOPE YOU KNOW WHAT YOU ARE DOING!                                     |
|                                                                             |
 -----------------------------------------------------------------------------

  PAW_PBE Mg_pv 13Apr2007               :
 energy of atom  1       EATOM=-1056.7344
 kinetic energy error for atom=    0.0221 (will be added to EATOM!!)
  PAW_PBE O 08Apr2002                   :
 energy of atom  2       EATOM= -432.3788
 kinetic energy error for atom=    0.0168 (will be added to EATOM!!)


 POSCAR: Mg  O
  positions in direct lattice
  No initial velocities read in
 exchange correlation table for  LEXCH =       12
   RHO(1)=    0.500       N(1)  =     2000
   RHO(2)=  100.500       N(2)  =     4000



--------------------------------------------------------------------------------------------------------


 ion  position               nearest neighbor table
   1  0.000  0.750  0.350-  33 2.14  35 2.14  36 2.14  43 2.14  52 2.14
   2  0.250  0.000  0.350-  34 2.14  35 2.14  36 2.14  44 2.14  51 2.14
   3  0.000  0.000  0.450-  35 2.14  34 2.14  33 2.14  41 2.14  50 2.14  39 2.14
   4  0.250  0.750  0.450-  36 2.14  34 2.14  33 2.14  42 2.14  49 2.14  40 2.14
   5  1.000  0.750  0.550-  56 2.14  47 2.14  39 2.14  40 2.14  33 2.15  37 2.15
   6  0.250  0.000  0.550-  55 2.14  39 2.14  40 2.14  48 2.14  34 2.14  38 2.16
   7  0.001  0.001  0.649-  39 2.13  38 2.13  45 2.13  54 2.14  37 2.14
   8  0.249  0.751  0.649-  37 2.11  40 2.12  53 2.13  38 2.14  46 2.14
   9  0.000  0.250  0.350-  41 2.14  35 2.14  43 2.14  44 2.14  60 2.14
  10  0.250  0.500  0.350-  42 2.14  36 2.14  43 2.14  44 2.14  59 2.14
  11  0.000  0.500  0.450-  43 2.14  41 2.14  42 2.14  33 2.14  58 2.14  47 2.14
  12  0.250  0.250  0.450-  44 2.14  41 2.14  42 2.14  34 2.14  57 2.14  48 2.14
  13  0.000  0.250  0.550-  47 2.14  39 2.14  64 2.14  48 2.14  41 2.14  45 2.16
  14  0.251  0.500  0.550-  63 2.14  40 2.14  48 2.14  47 2.14  42 2.15  46 2.15
  15  0.002  0.500  0.649-  46 2.11  47 2.12  62 2.13  45 2.14  37 2.14
  16  0.250  0.250  0.649-  48 2.13  38 2.13  45 2.13  46 2.14  61 2.14
  17  0.500  0.750  0.350-  49 2.14  36 2.14  51 2.14  52 2.14  59 2.14
  18  0.750  0.000  0.350-  50 2.14  35 2.14  51 2.14  52 2.14  60 2.14
  19  0.500  0.000  0.450-  51 2.14  49 2.14  50 2.14  34 2.14  57 2.14  55 2.14
  20  0.750  0.750  0.450-  52 2.14  49 2.14  50 2.14  33 2.14  58 2.14  56 2.15
  21  0.501  0.750  0.550-  63 2.13  56 2.13  40 2.14  55 2.14  49 2.15  53 2.17
  22  0.750  1.000  0.550-  56 2.14  55 2.14  39 2.14  64 2.14  50 2.15  54 2.15
  23  0.500  0.002  0.649-  61 2.11  55 2.12  53 2.13  38 2.14  54 2.14
  24  0.753  0.753  0.652-  54 2.13  37 2.13  56 2.17  53 2.17  62 2.17
  25  0.500  0.250  0.350-  57 2.14  51 2.14  44 2.14  59 2.14  60 2.14
  26  0.750  0.500  0.350-  58 2.14  52 2.14  43 2.14  59 2.14  60 2.14
  27  0.500  0.500  0.450-  59 2.14  49 2.14  57 2.14  58 2.14  42 2.14  63 2.15
  28  0.750  0.250  0.450-  60 2.14  50 2.14  57 2.14  58 2.14  41 2.14  64 2.14
  29  0.500  0.251  0.550-  63 2.14  64 2.14  48 2.14  55 2.14  57 2.15  61 2.15
  30  0.750  0.501  0.550-  63 2.13  56 2.13  64 2.14  47 2.14  58 2.15  62 2.17
  31  0.498  0.498  0.652-  61 2.13  46 2.13  63 2.17  62 2.17  53 2.17
  32  0.751  0.249  0.649-  54 2.11  64 2.12  62 2.13  45 2.14  61 2.14
  33  0.000  0.750  0.450-   1 2.14   3 2.14   4 2.14  11 2.14  20 2.14   5 2.15
  34  0.250  0.000  0.450-   2 2.14   3 2.14   4 2.14  12 2.14  19 2.14   6 2.14
  35  0.000  0.000  0.350-   3 2.14   2 2.14   1 2.14   9 2.14  18 2.14
  36  0.250  0.750  0.350-   4 2.14   2 2.14   1 2.14  10 2.14  17 2.14
  37  0.001  0.750  0.651-   8 2.11  24 2.13   7 2.14  15 2.14   5 2.15
  38  0.250  0.000  0.651-   7 2.13  16 2.13  23 2.14   8 2.14   6 2.16
  39  0.000  0.000  0.550-   7 2.13   6 2.14  13 2.14   3 2.14   5 2.14  22 2.14
  40  0.250  0.750  0.550-   8 2.12  14 2.14   6 2.14  21 2.14   4 2.14   5 2.14
  41  0.000  0.250  0.450-   9 2.14   3 2.14  11 2.14  12 2.14  28 2.14  13 2.14
  42  0.250  0.500  0.450-  10 2.14   4 2.14  11 2.14  12 2.14  27 2.14  14 2.15
  43  0.000  0.500  0.350-  11 2.14   9 2.14  10 2.14   1 2.14  26 2.14
  44  0.250  0.250  0.350-  12 2.14   9 2.14  10 2.14   2 2.14  25 2.14
  45  0.000  0.250  0.651-   7 2.13  16 2.13  15 2.14  32 2.14  13 2.16
  46  0.249  0.500  0.651-  15 2.11  31 2.13  16 2.14   8 2.14  14 2.15
  47  1.000  0.500  0.550-  15 2.12  13 2.14   5 2.14  30 2.14  11 2.14  14 2.14
  48  0.250  0.250  0.550-  16 2.13  29 2.14  14 2.14   6 2.14  13 2.14  12 2.14
  49  0.500  0.750  0.450-  17 2.14   4 2.14  19 2.14  20 2.14  27 2.14  21 2.15
  50  0.750  0.000  0.450-  18 2.14   3 2.14  19 2.14  20 2.14  28 2.14  22 2.15
  51  0.500  0.000  0.350-  19 2.14  17 2.14  18 2.14   2 2.14  25 2.14
  52  0.750  0.750  0.350-  20 2.14  17 2.14  18 2.14   1 2.14  26 2.14
  53  0.498  0.752  0.652-  23 2.13   8 2.13  21 2.17  31 2.17  24 2.17
  54  0.750  0.001  0.651-  32 2.11  24 2.13   7 2.14  23 2.14  22 2.15
  55  0.500  1.000  0.550-  23 2.12   6 2.14  22 2.14  21 2.14  19 2.14  29 2.14
  56  0.750  0.750  0.551-  30 2.13  21 2.13  22 2.14   5 2.14  20 2.15  24 2.17
  57  0.500  0.250  0.450-  25 2.14  19 2.14  12 2.14  27 2.14  28 2.14  29 2.15
  58  0.750  0.500  0.450-  26 2.14  20 2.14  11 2.14  27 2.14  28 2.14  30 2.15
  59  0.500  0.500  0.350-  27 2.14  17 2.14  25 2.14  26 2.14  10 2.14
  60  0.750  0.250  0.350-  28 2.14  18 2.14  25 2.14  26 2.14   9 2.14
  61  0.500  0.249  0.651-  23 2.11  31 2.13  16 2.14  32 2.14  29 2.15
  62  0.752  0.498  0.652-  15 2.13  32 2.13  30 2.17  31 2.17  24 2.17
  63  0.500  0.500  0.551-  30 2.13  21 2.13  29 2.14  14 2.14  27 2.15  31 2.17
  64  0.750  0.250  0.550-  32 2.12  29 2.14  13 2.14  30 2.14  28 2.14  22 2.14


IMPORTANT INFORMATION: All symmetrisations will be switched off!
NOSYMM: (Re-)initialisation of all symmetry stuff for point group C_1.


----------------------------------------------------------------------------------------

                                     Primitive cell                                     

  volume of cell :    1563.6717

  direct lattice vectors                    reciprocal lattice vectors
     8.546113626  0.000000000  0.000000000     0.117012252  0.000000000  0.000000000
     0.000000000  8.546113626  0.000000000     0.000000000  0.117012252  0.000000000
     0.000000000  0.000000000 21.409585219     0.000000000  0.000000000  0.046708051

  length of vectors
     8.546113626  8.546113626 21.409585219     0.117012252  0.117012252  0.046708051

  position of ions in fractional coordinates (direct lattice)
     0.000000000  0.750000000  0.350310383
     0.250000000  0.000000000  0.350310383
     0.000000000  0.000000000  0.450103461
     0.250000000  0.750000000  0.450103461
     0.999674252  0.750051947  0.550437484
     0.250084252  0.000063431  0.550220237
     0.000610343  0.000610344  0.649381764
     0.248533863  0.750610463  0.649234544
     0.000000000  0.250000000  0.350310383
     0.250000000  0.500000000  0.350310383
     0.000000000  0.500000000  0.450103461
     0.250000000  0.250000000  0.450103461
     0.000063429  0.250084255  0.550220236
     0.250544462  0.500073023  0.550469990
     0.001705900  0.499619075  0.649233676
     0.249650879  0.249650881  0.649419949
     0.500000000  0.750000000  0.350310383
     0.750000000  0.000000000  0.350310383
     0.500000000  0.000000000  0.450103461
     0.750000000  0.750000000  0.450103461
     0.500604685  0.749503550  0.550330800
     0.750051946  0.999674252  0.550437483
     0.499619072  0.001705907  0.649233675
     0.752516077  0.752516079  0.651819518
     0.500000000  0.250000000  0.350310383
     0.750000000  0.500000000  0.350310383
     0.500000000  0.500000000  0.450103461
     0.750000000  0.250000000  0.450103461
     0.500073021  0.250544464  0.550469990
     0.749503547  0.500604688  0.550330800
     0.497887102  0.497887100  0.652030816
     0.750610463  0.248533868  0.649234543
     0.000000000  0.750000000  0.450103461
     0.250000000  0.000000000  0.450103461
     0.000000000  0.000000000  0.350310383
     0.250000000  0.750000000  0.350310383
     0.001397713  0.750355047  0.650879985
     0.249826297  0.000411573  0.651167066
     0.000074825  0.000074824  0.549905667
     0.250479047  0.750048529  0.550004386
     0.000000000  0.250000000  0.450103461
     0.250000000  0.500000000  0.450103461
     0.000000000  0.500000000  0.350310383
     0.250000000  0.250000000  0.350310383
     0.000411568  0.249826300  0.651167065
     0.248925468  0.499890982  0.650964099
     0.999692605  0.500065754  0.550007403
     0.250083176  0.250083176  0.549928201
     0.500000000  0.750000000  0.450103461
     0.750000000  0.000000000  0.450103461
     0.500000000  0.000000000  0.350310383
     0.750000000  0.750000000  0.350310383
     0.498103301  0.752177901  0.651593367
     0.750355046  0.001397714  0.650879984
     0.500065751  0.999692607  0.550007403
     0.749781762  0.749781764  0.550618747
     0.500000000  0.250000000  0.450103461
     0.750000000  0.500000000  0.450103461
     0.500000000  0.500000000  0.350310383
     0.750000000  0.250000000  0.350310383
     0.499890982  0.248925470  0.650964098
     0.752177900  0.498103302  0.651593364
     0.500368842  0.500368844  0.550648800
     0.750048529  0.250479050  0.550004385

  ion indices of the primitive-cell ions
   primitive index   ion index
                 1           1
                 2           2
                 3           3
                 4           4
                 5           5
                 6           6
                 7           7
                 8           8
                 9           9
                10          10
                11          11
                12          12
                13          13
                14          14
                15          15
                16          16
                17          17
                18          18
                19          19
                20          20
                21          21
                22          22
                23          23
                24          24
                25          25
                26          26
                27          27
                28          28
                29          29
                30          30
                31          31
                32          32
                33          33
                34          34
                35          35
                36          36
                37          37
                38          38
                39          39
                40          40
                41          41
                42          42
                43          43
                44          44
                45          45
                46          46
                47          47
                48          48
                49          49
                50          50
                51          51
                52          52
                53          53
                54          54
                55          55
                56          56
                57          57
                58          58
                59          59
                60          60
                61          61
                62          62
                63          63
                64          64

----------------------------------------------------------------------------------------



 KPOINTS: pymatgen v2020.8.13 with grid density = 

Automatic generation of k-mesh.
 Grid dimensions read from file:
 generate k-points for:    2    2    1

 Generating k-lattice:

  Cartesian coordinates                     Fractional coordinates (reciprocal lattice)
     0.058506126  0.000000000  0.000000000     0.500000000  0.000000000  0.000000000
     0.000000000  0.058506126  0.000000000     0.000000000  0.500000000  0.000000000
     0.000000000  0.000000000  0.046708051     0.000000000  0.000000000  1.000000000

  Length of vectors
     0.058506126  0.058506126  0.046708051

  Shift w.r.t. Gamma in fractional coordinates (k-lattice)
     0.000000000  0.000000000  0.000000000

 
 Subroutine IBZKPT returns following result:
 ===========================================
 
 Found      4 irreducible k-points:
 
 Following reciprocal coordinates:
            Coordinates               Weight
  0.000000  0.000000  0.000000      1.000000
  0.500000  0.000000  0.000000      1.000000
  0.000000  0.500000  0.000000      1.000000
  0.500000  0.500000  0.000000      1.000000
 
 Following cartesian coordinates:
            Coordinates               Weight
  0.000000  0.000000  0.000000      1.000000
  0.058506  0.000000  0.000000      1.000000
  0.000000  0.058506  0.000000      1.000000
  0.058506  0.058506  0.000000      1.000000
 
 
 Subroutine IBZKPT_HF returns following result:
 ==============================================
 
 Found      4 k-points in 1st BZ
 the following      4 k-points will be used (e.g. in the exchange kernel)
 Following reciprocal coordinates:   # in IRBZ
  0.000000  0.000000  0.000000    0.25000000   1 t-inv F
  0.500000  0.000000  0.000000    0.25000000   2 t-inv F
  0.000000  0.500000  0.000000    0.25000000   3 t-inv F
  0.500000  0.500000  0.000000    0.25000000   4 t-inv F


--------------------------------------------------------------------------------------------------------




 Dimension of arrays:
   k-points           NKPTS =      4   k-points in BZ     NKDIM =      4   number of bands    NBANDS=    320
   number of dos      NEDOS =    301   number of ions     NIONS =     64
   non local maximal  LDIM  =      5   non local SUM 2l+1 LMDIM =     13
   total plane-waves  NPLWV = 882000
   max r-space proj   IRMAX =      1   max aug-charges    IRDMAX=  11315
   dimension x,y,z NGX =    70 NGY =   70 NGZ =  180
   dimension x,y,z NGXF=   140 NGYF=  140 NGZF=  360
   support grid    NGXF=   140 NGYF=  140 NGZF=  360
   ions per type =              32  32
   NGX,Y,Z   is equivalent  to a cutoff of  13.62, 13.62, 13.98 a.u.
   NGXF,Y,Z  is equivalent  to a cutoff of  27.23, 27.23, 27.95 a.u.

 SYSTEM =  MgO-rocksalt                            
 POSCAR =  Mg  O                                   

--------------------------------------------------------------------------------------------------------


  energy-cutoff  :      600.00
  volume of cell :     1563.67
      direct lattice vectors                 reciprocal lattice vectors
     8.546113626  0.000000000  0.000000000     0.117012252  0.000000000  0.000000000
     0.000000000  8.546113626  0.000000000     0.000000000  0.117012252  0.000000000
     0.000000000  0.000000000 21.409585219     0.000000000  0.000000000  0.046708051

  length of vectors
     8.546113626  8.546113626 21.409585219     0.117012252  0.117012252  0.046708051



 k-points in units of 2pi/SCALE and weight: pymatgen v2020.8.13 with grid density = 
   0.00000000  0.00000000  0.00000000       0.250
   0.05850613  0.00000000  0.00000000       0.250
   0.00000000  0.05850613  0.00000000       0.250
   0.05850613  0.05850613  0.00000000       0.250

 k-points in reciprocal lattice and weights: pymatgen v2020.8.13 with grid density = 
   0.00000000  0.00000000  0.00000000       0.250
   0.50000000  0.00000000  0.00000000       0.250
   0.00000000  0.50000000  0.00000000       0.250
   0.50000000  0.50000000  0.00000000       0.250

 position of ions in fractional coordinates (direct lattice) 
   0.00000000  0.75000000  0.35031038
   0.25000000  0.00000000  0.35031038
   0.00000000  0.00000000  0.45010346
   0.25000000  0.75000000  0.45010346
   0.99967425  0.75005195  0.55043748
   0.25008425  0.00006343  0.55022024
   0.00061034  0.00061034  0.64938176
   0.24853386  0.75061046  0.64923454
   0.00000000  0.25000000  0.35031038
   0.25000000  0.50000000  0.35031038
   0.00000000  0.50000000  0.45010346
   0.25000000  0.25000000  0.45010346
   0.00006343  0.25008426  0.55022024
   0.25054446  0.50007302  0.55046999
   0.00170590  0.49961907  0.64923368
   0.24965088  0.24965088  0.64941995
   0.50000000  0.75000000  0.35031038
   0.75000000  0.00000000  0.35031038
   0.50000000  0.00000000  0.45010346
   0.75000000  0.75000000  0.45010346
   0.50060469  0.74950355  0.55033080
   0.75005195  0.99967425  0.55043748
   0.49961907  0.00170591  0.64923368
   0.75251608  0.75251608  0.65181952
   0.50000000  0.25000000  0.35031038
   0.75000000  0.50000000  0.35031038
   0.50000000  0.50000000  0.45010346
   0.75000000  0.25000000  0.45010346
   0.50007302  0.25054446  0.55046999
   0.74950355  0.50060469  0.55033080
   0.49788710  0.49788710  0.65203082
   0.75061046  0.24853387  0.64923454
   0.00000000  0.75000000  0.45010346
   0.25000000  0.00000000  0.45010346
   0.00000000  0.00000000  0.35031038
   0.25000000  0.75000000  0.35031038
   0.00139771  0.75035505  0.65087999
   0.24982630  0.00041157  0.65116707
   0.00007482  0.00007482  0.54990567
   0.25047905  0.75004853  0.55000439
   0.00000000  0.25000000  0.45010346
   0.25000000  0.50000000  0.45010346
   0.00000000  0.50000000  0.35031038
   0.25000000  0.25000000  0.35031038
   0.00041157  0.24982630  0.65116707
   0.24892547  0.49989098  0.65096410
   0.99969260  0.50006575  0.55000740
   0.25008318  0.25008318  0.54992820
   0.50000000  0.75000000  0.45010346
   0.75000000  0.00000000  0.45010346
   0.50000000  0.00000000  0.35031038
   0.75000000  0.75000000  0.35031038
   0.49810330  0.75217790  0.65159337
   0.75035505  0.00139771  0.65087998
   0.50006575  0.99969261  0.55000740
   0.74978176  0.74978176  0.55061875
   0.50000000  0.25000000  0.45010346
   0.75000000  0.50000000  0.45010346
   0.50000000  0.50000000  0.35031038
   0.75000000  0.25000000  0.35031038
   0.49989098  0.24892547  0.65096410
   0.75217790  0.49810330  0.65159336
   0.50036884  0.50036884  0.55064880
   0.75004853  0.25047905  0.55000439

 position of ions in cartesian coordinates  (Angst):
   0.00000000  6.40958522  7.50000000
   2.13652841  0.00000000  7.50000000
   0.00000000  0.00000000  9.63652841
   2.13652841  6.40958522  9.63652841
   8.54332974  6.41002917 11.78463822
   2.13724843  0.00054209 11.77998705
   0.00521606  0.00521607 13.90299422
   2.12399863  6.41480231 13.89984230
   0.00000000  2.13652841  7.50000000
   2.13652841  4.27305681  7.50000000
   0.00000000  4.27305681  9.63652841
   2.13652841  2.13652841  9.63652841
   0.00054207  2.13724846 11.77998704
   2.14118144  4.27368088 11.78533416
   0.01457882  4.26980138 13.89982372
   2.13354478  2.13354479 13.90381174
   4.27305681  6.40958522  7.50000000
   6.40958522  0.00000000  7.50000000
   4.27305681  0.00000000  9.63652841
   6.40958522  6.40958522  9.63652841
   4.27822452  6.40534250 11.78235416
   6.41002916  8.54332975 11.78463820
   4.26980136  0.01457888 13.89982370
   6.43108790  6.43108792 13.95518553
   4.27305681  2.13652841  7.50000000
   6.40958522  4.27305681  7.50000000
   4.27305681  4.27305681  9.63652841
   6.40958522  2.13652841  9.63652841
   4.27368086  2.14118146 11.78533416
   6.40534248  4.27822454 11.78235416
   4.25499975  4.25499973 13.95970931
   6.41480230  2.12399868 13.89984227
   0.00000000  6.40958522  9.63652841
   2.13652841  0.00000000  9.63652841
   0.00000000  0.00000000  7.50000000
   2.13652841  6.40958522  7.50000000
   0.01194501  6.41261949 13.93507051
   2.13504392  0.00351735 13.94121678
   0.00063946  0.00063946 11.77325223
   2.14062239  6.40999995 11.77536578
   0.00000000  2.13652841  9.63652841
   2.13652841  4.27305681  9.63652841
   0.00000000  4.27305681  7.50000000
   2.13652841  2.13652841  7.50000000
   0.00351731  2.13504394 13.94121678
   2.12734533  4.27212513 13.93687135
   8.54348659  4.27361875 11.77543037
   2.13723924  2.13723924 11.77373469
   4.27305681  6.40958522  9.63652841
   6.40958522  0.00000000  9.63652841
   4.27305681  0.00000000  7.50000000
   6.40958522  6.40958522  7.50000000
   4.25684741  6.42819781 13.95034372
   6.41261948  0.01194503 13.93507049
   4.27361873  8.54348661 11.77543037
   6.40772014  6.40772015 11.78851899
   4.27305681  2.13652841  9.63652841
   6.40958522  4.27305681  9.63652841
   4.27305681  4.27305681  7.50000000
   6.40958522  2.13652841  7.50000000
   4.27212513  2.12734535 13.93687133
   6.42819780  4.25684742 13.95034365
   4.27620898  4.27620899 11.78916241
   6.40999995  2.14062242 11.77536576



--------------------------------------------------------------------------------------------------------

--------------------------------------- Iteration      FINAL  ---------------------------------------


--------------------OUTCAR has been truncated-------------------------


--------------------OUTCAR has been truncated-------------------------


--------------------OUTCAR has been truncated-------------------------


--------------------OUTCAR has been truncated-------------------------


--------------------OUTCAR has been truncated-------------------------


--------------------OUTCAR has been truncated-------------------------


--------------------OUTCAR has been truncated-------------------------


--------------------OUTCAR has been truncated-------------------------


--------------------OUTCAR has been truncated-------------------------


--------------------OUTCAR has been truncated-------------------------


  DFT-D2 method for vdW energy calculation
  -------------------------------------------------------------------

  Parameters of vdW forcefield:
         C6(Jnm^6/mol)     R0(A)
   -----------------------------
   Mg       0.630          1.243
   O        0.700          1.342

  vdW correction parametrized for the method ðÛý      

  IVDW =   1
  VDW_RADIUS =    50.000 A
  VDW_S6 =     1.050
  VDW_SR =     1.000
  VDW_D =    20.000
  LVDW_EWALD = F

  Number of pair interactions contributing to vdW energy:  705322
  Edisp (eV):   -4.82968
    FORVDW:  cpu time      0.1710: real time      0.1710

 VOLUME and BASIS-vectors are now :
 -----------------------------------------------------------------------------
  energy-cutoff  :      600.00
  volume of cell :     1563.67
      direct lattice vectors                 reciprocal lattice vectors
     8.546113626  0.000000000  0.000000000     0.117012252  0.000000000  0.000000000
     0.000000000  8.546113626  0.000000000     0.000000000  0.117012252  0.000000000
     0.000000000  0.000000000 21.409585219     0.000000000  0.000000000  0.046708051

  length of vectors
     8.546113626  8.546113626 21.409585219     0.117012252  0.117012252  0.046708051


 FORCES acting on ions:
    Electron-Ion                     Ewald-Force                    Non-Local-Force
 -----------------------------------------------------------------------------------------------
   0.146E+00 0.127E+00 0.201E+04   -.147E+00 -.126E+00 -.200E+04   0.804E-03 -.360E-03 -.633E+01
   -.126E+00 0.113E+00 0.201E+04   0.126E+00 -.112E+00 -.200E+04   0.119E-03 -.617E-03 -.633E+01
   0.705E+00 0.705E+00 0.666E+03   -.713E+00 -.713E+00 -.666E+03   0.473E-02 0.472E-02 0.377E+00
   -.343E+00 0.756E+00 0.665E+03   0.351E+00 -.767E+00 -.665E+03   -.531E-02 0.719E-02 0.361E+00
   0.248E+01 0.125E+01 -.667E+03   -.265E+01 -.133E+01 0.667E+03   0.134E+00 0.497E-01 -.237E+00
   -.114E+01 0.105E+01 -.666E+03   0.121E+01 -.112E+01 0.666E+03   -.487E-01 0.434E-01 -.141E+00
   0.192E+01 0.192E+01 -.199E+04   -.154E+01 -.154E+01 0.199E+04   -.297E+00 -.297E+00 0.570E+01
   -.641E+01 0.239E+01 -.199E+04   0.662E+01 -.203E+01 0.199E+04   -.222E-01 -.276E+00 0.563E+01
   0.113E+00 -.126E+00 0.201E+04   -.112E+00 0.126E+00 -.200E+04   -.651E-03 0.154E-03 -.633E+01
   -.155E+00 -.113E+00 0.201E+04   0.157E+00 0.112E+00 -.200E+04   -.141E-02 0.442E-03 -.634E+01
   0.307E+00 -.694E+00 0.665E+03   -.304E+00 0.707E+00 -.665E+03   -.124E-02 -.790E-02 0.361E+00
   -.740E+00 -.740E+00 0.666E+03   0.757E+00 0.757E+00 -.666E+03   -.108E-01 -.108E-01 0.383E+00
   0.105E+01 -.114E+01 -.666E+03   -.112E+01 0.121E+01 0.666E+03   0.434E-01 -.487E-01 -.141E+00
   -.249E+01 -.116E+01 -.668E+03   0.267E+01 0.123E+01 0.668E+03   -.151E+00 -.449E-01 -.229E+00
   0.632E+01 -.245E+01 -.199E+04   -.654E+01 0.209E+01 0.199E+04   0.383E-01 0.283E+00 0.563E+01
   -.187E+01 -.187E+01 -.199E+04   0.150E+01 0.150E+01 0.199E+04   0.290E+00 0.290E+00 0.569E+01
   -.145E+00 0.155E+00 0.201E+04   0.147E+00 -.157E+00 -.200E+04   -.120E-02 0.130E-02 -.634E+01
   0.127E+00 0.146E+00 0.201E+04   -.126E+00 -.147E+00 -.200E+04   -.314E-03 0.825E-03 -.633E+01
   -.694E+00 0.307E+00 0.665E+03   0.707E+00 -.304E+00 -.665E+03   -.791E-02 -.121E-02 0.361E+00
   0.374E+00 0.374E+00 0.662E+03   -.369E+00 -.369E+00 -.662E+03   -.175E-02 -.175E-02 0.531E+00
   -.308E+01 0.307E+01 -.674E+03   0.321E+01 -.322E+01 0.674E+03   -.114E+00 0.131E+00 -.316E+00
   0.125E+01 0.248E+01 -.667E+03   -.133E+01 -.265E+01 0.667E+03   0.498E-01 0.134E+00 -.237E+00
   -.245E+01 0.632E+01 -.199E+04   0.209E+01 -.654E+01 0.199E+04   0.283E+00 0.383E-01 0.563E+01
   0.109E+02 0.109E+02 -.201E+04   -.108E+02 -.108E+02 0.201E+04   -.334E+00 -.334E+00 0.607E+01
   -.113E+00 -.155E+00 0.201E+04   0.112E+00 0.157E+00 -.200E+04   0.452E-03 -.136E-02 -.634E+01
   0.155E+00 -.145E+00 0.201E+04   -.157E+00 0.147E+00 -.200E+04   0.135E-02 -.122E-02 -.634E+01
   -.310E+00 -.310E+00 0.662E+03   0.309E+00 0.309E+00 -.662E+03   0.186E-04 -.709E-06 0.535E+00
   0.756E+00 -.343E+00 0.665E+03   -.767E+00 0.351E+00 -.665E+03   0.723E-02 -.532E-02 0.361E+00
   -.116E+01 -.249E+01 -.668E+03   0.123E+01 0.267E+01 0.668E+03   -.449E-01 -.151E+00 -.229E+00
   0.307E+01 -.308E+01 -.674E+03   -.322E+01 0.321E+01 0.674E+03   0.131E+00 -.114E+00 -.316E+00
   -.108E+02 -.108E+02 -.201E+04   0.106E+02 0.106E+02 0.201E+04   0.322E+00 0.322E+00 0.608E+01
   0.239E+01 -.641E+01 -.199E+04   -.203E+01 0.662E+01 0.199E+04   -.276E+00 -.222E-01 0.563E+01
   0.548E+00 0.400E+00 0.498E+03   -.520E+00 -.409E+00 -.498E+03   -.337E-01 0.107E-01 -.962E-01
   -.386E+00 0.350E+00 0.499E+03   0.389E+00 -.360E+00 -.499E+03   -.308E-02 0.112E-01 -.672E-01
   0.111E+00 0.111E+00 0.151E+04   -.112E+00 -.112E+00 -.151E+04   0.106E-02 0.106E-02 0.315E+01
   -.868E-01 0.120E+00 0.151E+04   0.868E-01 -.121E+00 -.151E+04   -.874E-04 0.179E-02 0.315E+01
   0.384E+01 0.197E+01 -.151E+04   -.381E+01 -.219E+01 0.151E+04   -.118E+00 0.233E+00 -.391E+01
   -.156E+01 0.154E+01 -.151E+04   0.177E+01 -.175E+01 0.152E+04   -.232E+00 0.226E+00 -.433E+01
   0.951E+00 0.951E+00 -.494E+03   -.949E+00 -.949E+00 0.493E+03   -.494E-02 -.494E-02 0.371E+00
   -.158E+01 0.106E+01 -.495E+03   0.170E+01 -.105E+01 0.494E+03   -.166E+00 -.122E-01 0.359E+00
   0.350E+00 -.386E+00 0.499E+03   -.360E+00 0.389E+00 -.499E+03   0.112E-01 -.307E-02 -.672E-01
   -.551E+00 -.343E+00 0.498E+03   0.514E+00 0.345E+00 -.497E+03   0.448E-01 -.267E-02 -.104E+00
   0.777E-01 -.111E+00 0.151E+04   -.775E-01 0.112E+00 -.151E+04   -.290E-03 -.867E-03 0.315E+01
   -.120E+00 -.120E+00 0.151E+04   0.121E+00 0.121E+00 -.151E+04   -.152E-02 -.150E-02 0.315E+01
   0.154E+01 -.156E+01 -.151E+04   -.175E+01 0.177E+01 0.152E+04   0.226E+00 -.232E+00 -.433E+01
   -.378E+01 -.196E+01 -.151E+04   0.376E+01 0.217E+01 0.151E+04   0.980E-01 -.229E+00 -.391E+01
   0.151E+01 -.103E+01 -.495E+03   -.163E+01 0.102E+01 0.494E+03   0.163E+00 0.936E-02 0.361E+00
   -.986E+00 -.986E+00 -.494E+03   0.980E+00 0.980E+00 0.494E+03   0.749E-02 0.749E-02 0.370E+00
   -.533E+00 0.564E+00 0.497E+03   0.490E+00 -.528E+00 -.497E+03   0.518E-01 -.428E-01 -.998E-01
   0.400E+00 0.548E+00 0.498E+03   -.409E+00 -.520E+00 -.498E+03   0.107E-01 -.337E-01 -.962E-01
   -.111E+00 0.777E-01 0.151E+04   0.112E+00 -.775E-01 -.151E+04   -.871E-03 -.312E-03 0.315E+01
   0.863E-01 0.863E-01 0.151E+04   -.868E-01 -.868E-01 -.151E+04   0.663E-03 0.639E-03 0.315E+01
   -.740E+01 0.724E+01 -.151E+04   0.755E+01 -.739E+01 0.151E+04   -.869E-02 -.381E-02 -.367E+01
   0.197E+01 0.384E+01 -.151E+04   -.219E+01 -.381E+01 0.151E+04   0.233E+00 -.118E+00 -.391E+01
   -.103E+01 0.151E+01 -.495E+03   0.102E+01 -.163E+01 0.494E+03   0.937E-02 0.163E+00 0.361E+00
   0.196E+01 0.196E+01 -.508E+03   -.204E+01 -.204E+01 0.508E+03   0.117E+00 0.117E+00 -.202E+00
   -.343E+00 -.551E+00 0.498E+03   0.345E+00 0.514E+00 -.497E+03   -.266E-02 0.448E-01 -.104E+00
   0.564E+00 -.533E+00 0.497E+03   -.528E+00 0.490E+00 -.497E+03   -.428E-01 0.518E-01 -.998E-01
   -.779E-01 -.779E-01 0.151E+04   0.776E-01 0.776E-01 -.151E+04   0.327E-03 0.342E-03 0.315E+01
   0.120E+00 -.868E-01 0.151E+04   -.121E+00 0.868E-01 -.151E+04   0.180E-02 -.852E-04 0.315E+01
   -.196E+01 -.378E+01 -.151E+04   0.217E+01 0.376E+01 0.151E+04   -.229E+00 0.980E-01 -.391E+01
   0.724E+01 -.740E+01 -.151E+04   -.739E+01 0.755E+01 0.151E+04   -.382E-02 -.869E-02 -.367E+01
   -.189E+01 -.189E+01 -.509E+03   0.197E+01 0.197E+01 0.509E+03   -.118E+00 -.118E+00 -.248E+00
   0.106E+01 -.158E+01 -.495E+03   -.105E+01 0.170E+01 0.494E+03   -.122E-01 -.166E+00 0.359E+00
 -----------------------------------------------------------------------------------------------
   0.161E-01 0.160E-01 0.980E+01   0.197E-12 0.303E-12 -.409E-11   -.141E-01 -.141E-01 -.862E+01


 POSITION                                       TOTAL-FORCE (eV/Angst)
 -----------------------------------------------------------------------------------
      0.00000      6.40959      7.50000        -0.000190      0.000055      0.629604
      2.13653      0.00000      7.50000        -0.000043      0.000211      0.629273
      0.00000      0.00000      9.63653        -0.002300     -0.002307      0.008632
      2.13653      6.40959      9.63653         0.001842     -0.003207      0.029963
      8.54333      6.41003     11.78464        -0.013917     -0.020850     -0.072799
      2.13725      0.00054     11.77999         0.021249     -0.020306     -0.032820
      0.00522      0.00522     13.90299         0.052640      0.052642     -0.350130
      2.12400      6.41480     13.89984         0.170231      0.048180     -0.306764
      0.00000      2.13653      7.50000         0.000212     -0.000029      0.629278
      2.13653      4.27306      7.50000         0.000390     -0.000140      0.630015
      0.00000      4.27306      9.63653         0.001371      0.003866      0.030703
      2.13653      2.13653      9.63653         0.005134      0.005138      0.009666
      0.00054      2.13725     11.77999        -0.020307      0.021250     -0.032827
      2.14118      4.27368     11.78533         0.014152      0.019859     -0.072558
      0.01458      4.26980     13.89982        -0.170194     -0.049052     -0.305864
      2.13354      2.13354     13.90381        -0.052284     -0.052289     -0.350972
      4.27306      6.40959      7.50000         0.000355     -0.000435      0.629527
      6.40959      0.00000      7.50000         0.000066     -0.000187      0.629568
      4.27306      0.00000      9.63653         0.003856      0.001399      0.030708
      6.40959      6.40959      9.63653         0.002408      0.002408      0.027916
      4.27822      6.40534     11.78235         0.002027     -0.003081      0.122190
      6.41003      8.54333     11.78464        -0.020845     -0.013914     -0.072806
      4.26980      0.01458     13.89982        -0.049037     -0.170190     -0.305835
      6.43109      6.43109     13.95519        -0.205767     -0.205754     -0.667306
      4.27306      2.13653      7.50000        -0.000139      0.000410      0.629943
      6.40959      4.27306      7.50000        -0.000426      0.000354      0.629425
      4.27306      4.27306      9.63653        -0.001138     -0.001152      0.028880
      6.40959      2.13653      9.63653        -0.003196      0.001827      0.029988
      4.27368      2.14118     11.78533         0.019865      0.014157     -0.072571
      6.40534      4.27822     11.78235        -0.003082      0.002026      0.122171
      4.25500      4.25500     13.95971         0.198373      0.198374     -0.688338
      6.41480      2.12400     13.89984         0.048185      0.170227     -0.306735
      0.00000      6.40959      9.63653        -0.010624      0.003063      0.040438
      2.13653      0.00000      9.63653        -0.000834      0.003209      0.028408
      0.00000      0.00000      7.50000         0.000369      0.000374     -0.274422
      2.13653      6.40959      7.50000        -0.000032      0.000643     -0.274247
      0.01195      6.41262     13.93507        -0.103050      0.047047      0.017045
      2.13504      0.00352     13.94122        -0.048055      0.046573     -0.118065
      0.00064      0.00064     11.77325        -0.002985     -0.002971      0.062037
      2.14062      6.41000     11.77537        -0.068595     -0.003349      0.027462
      0.00000      2.13653      9.63653         0.003217     -0.000837      0.028419
      2.13653      4.27306      9.63653         0.013698     -0.000761      0.040709
      0.00000      4.27306      7.50000        -0.000106     -0.000338     -0.274242
      2.13653      2.13653      7.50000        -0.000524     -0.000553     -0.274723
      0.00352      2.13504     13.94122         0.046559     -0.048058     -0.118061
      2.12735      4.27213     13.93687         0.095906     -0.046128      0.013438
      8.54349      4.27362     11.77543         0.067526      0.003874      0.027637
      2.13724      2.13724     11.77373         0.002389      0.002394      0.061408
      4.27306      6.40959      9.63653         0.015824     -0.013086      0.029276
      6.40959      0.00000      9.63653         0.003062     -0.010618      0.040426
      4.27306      0.00000      7.50000        -0.000314     -0.000087     -0.274310
      6.40959      6.40959      7.50000         0.000219      0.000238     -0.274303
      4.25685      6.42820     13.95034         0.158142     -0.159571      0.018199
      6.41262      0.01195     13.93507         0.047047     -0.103046      0.017054
      4.27362      8.54349     11.77543         0.003878      0.067546      0.027641
      6.40772      6.40772     11.78852         0.052695      0.052695     -0.006941
      4.27306      2.13653      9.63653        -0.000752      0.013687      0.040701
      6.40959      4.27306      9.63653        -0.013085      0.015829      0.029288
      4.27306      4.27306      7.50000         0.000114      0.000085     -0.274603
      6.40959      2.13653      7.50000         0.000598     -0.000045     -0.274259
      4.27213      2.12735     13.93687        -0.046127      0.095904      0.013444
      6.42820      4.25685     13.95034        -0.159569      0.158131      0.018215
      4.27621      4.27621     11.78916        -0.052719     -0.052719     -0.009670
      6.41000      2.14062     11.77537        -0.003359     -0.068613      0.027476
 -----------------------------------------------------------------------------------
    total drift:                                0.000563      0.000528      0.000249


--------------------------------------------------------------------------------------------------------



  FREE ENERGIE OF THE ION-ELECTRON SYSTEM (eV)
  ---------------------------------------------------
  free  energy   TOTEN  =      -437.10484103 eV

  energy  without entropy=     -437.10484103  energy(sigma->0) =     -437.10484103



--------------------------------------------------------------------------------------------------------


    POTLOK:  cpu time      0.8219: real time      0.8220


--------------------------------------------------------------------------------------------------------


     LOOP+:  cpu time   5314.0315: real time   5315.4316
    4ORBIT:  cpu time      0.0000: real time      0.0000

 total amount of memory used by VASP MPI-rank0   193378. kBytes
=======================================================================

   base      :      30000. kBytes
   nonl-proj :      12234. kBytes
   fftplans  :       7997. kBytes
   grid      :       7379. kBytes
   one-center:         64. kBytes
   HF        :         67. kBytes
   nonlr-proj:       7045. kBytes
   wavefun   :       6450. kBytes
   fock_wrk  :     122142. kBytes

  
  
 General timing and accounting informations for this job:
 ========================================================
  
                  Total CPU time used (sec):     5351.387
                            User time (sec):     5340.630
                          System time (sec):       10.758
                         Elapsed time (sec):     5365.346
  
                   Maximum memory used (kb):      446944.
                   Average memory used (kb):          N/A
  
                          Minor page faults:       289363
                          Major page faults:           50
                 Voluntary context switches:        15129
