 **********************************************************************
                          MRCC program system
 **********************************************************************
 
                              Written by
     Mihaly Kallay, Peter R. Nagy, David Mester, Laszlo Gyevi-Nagy,
        Jozsef Csoka, P. Bernat Szabo, Zoltan Rolik, Gyula Samu,
     Jozsef Csontos, Bence Hegely, Adam Ganyecz, Istvan Ladjanszki,
       Lorant Szegedy, Bence Ladoczki, Klara Petrov, Mate Farkas,
                    Pal D. Mezei, and Reka A. Horvath
 
        Department of Physical Chemistry and Materials Science
            Budapest University of Technology and Economics
                  Budapest P.O.Box 91, H-1521 Hungary
 
                              www.mrcc.hu
 
                      Release date: March 18, 2022

 ************************ 2023-02-07 22:22:14 *************************
 Executing minp...

 Reading input from MINP...
 
 Input file:
 
calc=FNO-CCSD(T)
verbosity=3
mem=220GB
unit=angs
scfiguess=small
scfalg=locfit1
ccmaxit=400
ccsdalg=dfdirect
ccsdthreads=4
ccsdmkl=thr
ptthreads=4
lnoepsv=1e-5
naf_cor=1e-2
basis=aug-cc-pVTZ
basis_sm=def2-SVP
dfbasis_scf=def2-QZVPP-RI-JK
dfbasis_cor=aug-cc-pVTZ-RI
unit=angs
geom=xyz
24

C     8.91743909     9.38861166    16.94386881
C     5.39043169     6.77043676    16.96372580
C     8.00607278     3.27806493    16.96650180
C    11.50091996     5.85103456    16.93856975
H     8.77937038     9.17436022    18.01572156
H     9.32474419     7.57458841    16.20042911
H     9.96120462     9.68473591    16.75955150
H     8.26216376    10.20870566    16.63144535
H     5.62104886     6.61569915    18.02985674
H     7.19266907     7.20768543    16.20481162
H     5.07879877     7.81332482    16.80230521
H     4.57390209     6.11070185    16.65132737
H     8.16761995     3.51291001    18.03069694
H     7.56045335     5.07715886    16.20067817
H     6.96269365     2.96357801    16.81281908
H     8.66602896     2.46206947    16.65295800
H    11.28826038     5.99608128    18.00997076
H     9.68539973     5.44621463    16.19473390
H    11.79288236     4.80523239    16.75951410
H    12.32302124     6.50195744    16.62167972
O     8.58013534     8.23566087    16.14248498
O     6.53598138     6.45977854    16.14177089
O     8.30924475     4.42059882    16.13812694
O    10.34897249     6.18933226    16.13686330

--------------------Output has been truncated-------------------------


--------------------Output has been truncated-------------------------


--------------------Output has been truncated-------------------------


--------------------Output has been truncated-------------------------


--------------------Output has been truncated-------------------------


--------------------Output has been truncated-------------------------


--------------------Output has been truncated-------------------------


--------------------Output has been truncated-------------------------


--------------------Output has been truncated-------------------------


--------------------Output has been truncated-------------------------


 
 Reference energy [au]:                      -460.381496106049
 DF-MP2 singlet pair energy [au]:              -1.364909140352
 DF-MP2 triplet pair energy [au]:              -0.413683921570
 DF-SCS-MP2 correlation energy [au]:           -1.775785608946
 DF-SCS-MP2 energy [au]:                     -462.157281714995
 DF-SOS-MP2 correlation energy [au]:           -1.774381882458
 DF-SOS-MP2 energy [au]:                     -462.155877988507
 DF-MP2 correlation energy [au]:               -1.778593061922
 DF-MP2 energy [au]:                         -462.160089167971

 Results in FNO basis:
 
 
 Reference energy [au]:                      -460.381496106049
 DF-MP2 singlet pair energy [au]:              -1.361330011800
 DF-MP2 triplet pair energy [au]:              -0.413262337566
 DF-SCS-MP2 correlation energy [au]:           -1.771350126682
 DF-SCS-MP2 energy [au]:                     -462.152846232730
 DF-SOS-MP2 correlation energy [au]:           -1.769729015339
 DF-SOS-MP2 energy [au]:                     -462.151225121388
 DF-MP2 correlation energy [au]:               -1.774592349366
 DF-MP2 energy [au]:                         -462.156088455414

 Results in NAF basis:
 
 
 Reference energy [au]:                      -460.381496106049
 DF-MP2 singlet pair energy [au]:              -1.361009342820
 DF-MP2 triplet pair energy [au]:              -0.413545040949
 DF-SCS-MP2 correlation energy [au]:           -1.771059558366
 DF-SCS-MP2 energy [au]:                     -462.152555664415
 DF-SOS-MP2 correlation energy [au]:           -1.769312145665
 DF-SOS-MP2 energy [au]:                     -462.150808251714
 DF-MP2 correlation energy [au]:               -1.774554383768
 DF-MP2 energy [au]:                         -462.156050489817

 ************************ 2023-02-07 22:27:34 *************************
 Executing ccsd...

 Allocation of 220.0 Gbytes of memory...

 Direct DF-CCSD(T) calculation
 
 Convergence criterion:  1.0E-06
 
 Number of occupied/virtual/auxiliary orbitals:    28   484  1292
  18898.50 MB is the minimal memory requirement for (T)
   4995.69 MB is the minimal memory requirement for CCSD
 
 Reference energy [au]:            -460.381496106049
 T1 contribution [au]:                0.000000000000
 Same spin MP2 energy [au]:          -0.413403261434
 Opposite spin MP2 energy [au]:      -1.361168597792
 MP2 correlation energy [au]:        -1.774571859226
 Total MP2 energy [au]:            -462.156067965275
 MP2 correction [au]:                -0.004021202696
 
 
 CPU time [min]:     4.561                   Wall time [min]:     1.516
 
 Starting CCSD iterations...
 
                     Residual norm          Energy
 Iteration  1        0.386118001823     -462.174063228941
 Iteration  2        0.089813528922     -462.214721401626
 Iteration  3        0.033102814525     -462.223438386862
 Iteration  4        0.007793826509     -462.222642556107
 Iteration  5        0.002532758332     -462.222691522460
 Iteration  6        0.000673307510     -462.222740761694
 Iteration  7        0.000263921327     -462.222728123271
 Iteration  8        0.000082430146     -462.222724833285
 Iteration  9        0.000032855786     -462.222725270470
 Iteration 10        0.000012257311     -462.222725071476
 Iteration 11        0.000004780502     -462.222724935028
 
 CCSD iteration has converged in 11 steps.
   214849.19 MB memory was utilized by CCSD
 
 T1 diagnostic:      1.039E-02            D1 diagnostic:      2.992E-02
 
 T1 contribution [au]:                                  0.000000000000
 PPL energy contribution [au]:                          0.413742723152
 Scaled PPL energy contribution [au]:                   0.414694365136

 OS-PPL energy contribution [au]:                       0.350843720740
 Scaled OS-PPL energy contribution [au]:                0.351855473087
 SS-PPL energy contribution [au]:                       0.062899002412
 Scaled SS-PPL energy contribution [au]:                0.062923193965

 Opposite spin CCSD energy [au]:                       -1.466920616040
 Same spin CCSD energy [au]:                           -0.374381199017
 CCSD correlation energy [au]:                         -1.841301815058
 CCSD correlation energy + MP2 correction [au]:        -1.845323017754
 CCSD correlation energy + MP2 + PPL corr. [au]:       -1.844371375770
 Total CCSD energy [au]:                             -462.222797921106
 Total CCSD energy + MP2 correction [au]:            -462.226819123802
 Total CCSD energy + MP2 + PPL corr. [au]:           -462.225867481818
 
 CPU time [min]:  1151.744                   Wall time [min]:    40.584
 
 Calculation of (T) correction...
 
 
    37879.00 MB memory is utilized for (T)

 0%       25%       50%       75%       100%
 |---------|---------|---------|---------| 
 
 (T) correction [au]:                                    -0.068414148816
 (T*) correction [au]:                                   -0.068569176158
 (T+) correction [au]:                                   -0.068568040372
 CCSD(T) correlation energy [au]:                        -1.909715963873
 CCSD(T) correlation energy + MP2 correction [au]:       -1.913737166569
 CCSD(T+) correlation en. + MP2 + PPL corr. [au]:        -1.912939416142
 Total CCSD(T) energy [au]:                            -462.291212069922
 Total CCSD(T) energy + MP2 correction [au]:           -462.295233272618
 Total CCSD(T+) energy + MP2 + PPL corr. [au]:         -462.294435522190
 
 CPU time [min]:  3998.254                   Wall time [min]:   122.082
 
 ************************ 2023-02-08 00:29:41 *************************
                      Normal termination of mrcc.
 **********************************************************************
