 vasp.6.3.0 20Jan22 (build Apr  1 2022 16:44:48) complex                         
 executed on        HPECrayEX_GCC date 2022.11.06  19:18:30
 running  512 mpi-ranks, with    1 threads/rank
 distrk:  each k-point on  512 cores,    1 groups
 distr:  one band on NCORE=   8 cores,   64 groups


--------------------------------------------------------------------------------------------------------


 INCAR:
   SYSTEM = MgO-rocksalt
   ISMEAR = 0
   SIGMA = 0.05
   EDIFF = 1E-6
   ALGO = ALL
   ISTART = 0
   IBRION = -1
   NSW = 0
   ISYM = 0
   DIPOL = 0.5 0.5 0.5
   IDIPOL = 3
   LDIPOL = .TRUE.
   GGA = RE
   AGGAC = 0.0
   LUSE_VDW = .TRUE.
   LASPH = .TRUE.
   ENCUT = 600
   PREC = Accurate
   LASPH = .TRUE.
   LREAL = .FALSE.
   ISPIN = 1
   NELM = 200
   NELMIN = 8
   NCORE = 8
   KPAR = 1
   LWAVE = .FALSE.
   LCHARG = .FALSE.

 POTCAR:    PAW_PBE Mg_pv 13Apr2007               
 POTCAR:    PAW_PBE O 08Apr2002                   
 -----------------------------------------------------------------------------
|                                                                             |
|               ----> ADVICE to this user running VASP <----                  |
|                                                                             |
|     You have switched on vdW-DFT.                                           |
|     This routine was written and supplied by Jiri Klimes. We recommend      |
|     that you carefully read and cite the following publications:            |
|       J. Klimes, D.R. Bowler, A. Michelides                                 |
|          J. Phys.: Cond Matt. 22 022201 (2010)                              |
|       J. Klimes, D.R. Bowler, A. Michelides                                 |
|          Phys. Rev. B. 83, 195131 (2011)                                    |
|     and references therein.                                                 |
|                                                                             |
 -----------------------------------------------------------------------------

 POTCAR:    PAW_PBE Mg_pv 13Apr2007               
   SHA256 =  f474ac0dd33840b9ae76c01d57fea79fdf77cdfbb07d5ade72c65f83c709b62b Mg_pv/POTCAR          
   COPYR  = (c) Copyright 13Apr2007 Georg Kresse                                                    
   COPYR  = This file is part of the software VASP. Any use, copying, and all other rights are regul
   COPYR  = If you do not have a valid VASP license, you may not use, copy or distribute this file. 
   VRHFIN =Mg: p6s2                                                                                 
   LEXCH  = PE                                                                                      
   EATOM  =  1056.7344 eV,   77.6678 Ry                                                             
                                                                                                    
   TITEL  = PAW_PBE Mg_pv 13Apr2007                                                                 
   LULTRA =        F    use ultrasoft PP ?                                                          
   IUNSCR =        1    unscreen: 0-lin 1-nonlin 2-no                                               
   RPACOR =    1.500    partial core radius                                                         
   POMASS =   24.305; ZVAL   =    8.000    mass and valenz                                          
   RCORE  =    2.000    outmost cutoff radius                                                       
   RWIGS  =    2.000; RWIGS  =    1.058    wigner-seitz radius (au A)                               
   ENMAX  =  403.929; ENMIN  =  302.947 eV                                                          
   RCLOC  =    1.506    cutoff for local pot                                                        
   LCOR   =        T    correct aug charges                                                         
   LPAW   =        T    paw PP                                                                      
   EAUG   =  758.780                                                                                
   DEXC   =    0.000                                                                                
   RMAX   =    2.045    core radius for proj-oper                                                   
   RAUG   =    1.300    factor for augmentation sphere                                              
   RDEP   =    2.025    radius for radial grids                                                     
   RDEPT  =    1.557    core radius for aug-charge                                                  
                                                                                                    
   Atomic configuration                                                                             
    5 entries                                                                                       
     n  l   j            E        occ.                                                              
     1  0  0.50     -1259.6230   2.0000                                                             
     2  0  0.50       -79.8442   2.0000                                                             
     2  1  1.50       -46.6121   6.0000                                                             
     3  0  0.50        -4.7055   2.0000                                                             
     3  2  1.50        -1.3606   0.0000                                                             
   Description                                                                                      
     l       E           TYP  RCUT    TYP  RCUT                                                     
     1    -46.6121073     23  1.600                                                                 
     1      2.7211652     23  1.600                                                                 
     0     -4.7054661     23  2.000                                                                 
     0     61.2262170     23  2.000                                                                 
     2     -1.3605826     23  2.000                                                                 
  local pseudopotential read in
  partial core-charges read in
  partial kinetic energy density read in
  atomic valenz-charges read in
  non local Contribution for L=           1  read in
    real space projection operators read in
  non local Contribution for L=           1  read in
    real space projection operators read in
  non local Contribution for L=           0  read in
    real space projection operators read in
  non local Contribution for L=           0  read in
    real space projection operators read in
  non local Contribution for L=           2  read in
    real space projection operators read in
    PAW grid and wavefunctions read in

   number of l-projection  operators is LMAX  =           5
   number of lm-projection operators is LMMAX =          13

 POTCAR:    PAW_PBE O 08Apr2002                   
   SHA256 =  818f92134a0a090dccd8ba1447fa70422a3b330e708bb4f08108d8ae51209ddf O/POTCAR              
   COPYR  = (c) Copyright 08Apr2002 Georg Kresse                                                    
   COPYR  = This file is part of the software VASP. Any use, copying, and all other rights are regul
   COPYR  = If you do not have a valid VASP license, you may not use, copy or distribute this file. 
   VRHFIN =O: s2p4                                                                                  
   LEXCH  = PE                                                                                      
   EATOM  =   432.3788 eV,   31.7789 Ry                                                             
                                                                                                    
   TITEL  = PAW_PBE O 08Apr2002                                                                     
   LULTRA =        F    use ultrasoft PP ?                                                          
   IUNSCR =        1    unscreen: 0-lin 1-nonlin 2-no                                               
   RPACOR =    1.200    partial core radius                                                         
   POMASS =   16.000; ZVAL   =    6.000    mass and valenz                                          
   RCORE  =    1.520    outmost cutoff radius                                                       
   RWIGS  =    1.550; RWIGS  =    0.820    wigner-seitz radius (au A)                               
   ENMAX  =  400.000; ENMIN  =  300.000 eV                                                          
   ICORE  =        2    local potential                                                             
   LCOR   =        T    correct aug charges                                                         
   LPAW   =        T    paw PP                                                                      
   EAUG   =  605.392                                                                                
   DEXC   =    0.000                                                                                
   RMAX   =    1.553    core radius for proj-oper                                                   
   RAUG   =    1.300    factor for augmentation sphere                                              
   RDEP   =    1.550    radius for radial grids                                                     
   RDEPT  =    1.329    core radius for aug-charge                                                  
                                                                                                    
   Atomic configuration                                                                             
    4 entries                                                                                       
     n  l   j            E        occ.                                                              
     1  0  0.50      -514.6923   2.0000                                                             
     2  0  0.50       -23.9615   2.0000                                                             
     2  1  0.50        -9.0305   4.0000                                                             
     3  2  1.50        -9.5241   0.0000                                                             
   Description                                                                                      
     l       E           TYP  RCUT    TYP  RCUT                                                     
     0    -23.9615318     23  1.200                                                                 
     0     -9.5240782     23  1.200                                                                 
     1     -9.0304911     23  1.520                                                                 
     1      8.1634956     23  1.520                                                                 
     2     -9.5240782      7  1.500                                                                 
  local pseudopotential read in
  partial core-charges read in
  partial kinetic energy density read in
  kinetic energy density of atom read in
  atomic valenz-charges read in
  non local Contribution for L=           0  read in
    real space projection operators read in
  non local Contribution for L=           0  read in
    real space projection operators read in
  non local Contribution for L=           1  read in
    real space projection operators read in
  non local Contribution for L=           1  read in
    real space projection operators read in
    PAW grid and wavefunctions read in

   number of l-projection  operators is LMAX  =           4
   number of lm-projection operators is LMMAX =           8

 -----------------------------------------------------------------------------
|                                                                             |
|               ----> ADVICE to this user running VASP <----                  |
|                                                                             |
|     You have a (more or less) 'large supercell' and for larger cells it     |
|     might be more efficient to use real-space projection operators.         |
|     Therefore, try LREAL= Auto in the INCAR file.                           |
|     Mind: For very accurate calculation, you might also keep the            |
|     reciprocal projection scheme (i.e. LREAL=.FALSE.).                      |
|                                                                             |
 -----------------------------------------------------------------------------

 -----------------------------------------------------------------------------
|                                                                             |
|               ----> ADVICE to this user running VASP <----                  |
|                                                                             |
|     You enforced a specific xc type in the INCAR file but a different       |
|     type was found in the POTCAR file.                                      |
|     I HOPE YOU KNOW WHAT YOU ARE DOING!                                     |
|                                                                             |
 -----------------------------------------------------------------------------

  PAW_PBE Mg_pv 13Apr2007               :
 energy of atom  1       EATOM=-1056.7344
 kinetic energy error for atom=    0.0221 (will be added to EATOM!!)
  PAW_PBE O 08Apr2002                   :
 energy of atom  2       EATOM= -432.3788
 kinetic energy error for atom=    0.0168 (will be added to EATOM!!)


 POSCAR: Mg  O
  positions in direct lattice
  No initial velocities read in
 exchange correlation table for  LEXCH =       40
   RHO(1)=    0.500       N(1)  =     2000
   RHO(2)=  100.500       N(2)  =     4000



--------------------------------------------------------------------------------------------------------


 ion  position               nearest neighbor table
   1  0.000  0.750  0.352-  33 2.11  35 2.11  36 2.11  43 2.11  52 2.11
   2  0.250  0.000  0.352-  34 2.11  35 2.11  36 2.11  44 2.11  51 2.11
   3  0.000  0.000  0.451-  35 2.11  34 2.11  33 2.11  41 2.11  50 2.11  39 2.12
   4  0.250  0.750  0.451-  36 2.11  34 2.11  33 2.11  42 2.11  49 2.11  40 2.12
   5  0.000  0.750  0.550-  40 2.11  56 2.11  39 2.11  47 2.11  33 2.13  37 2.15
   6  0.250  1.000  0.550-  55 2.11  39 2.11  40 2.11  48 2.11  34 2.13  38 2.15
   7  0.000  1.000  0.649-  37 2.11  45 2.11  38 2.11  54 2.11  39 2.11
   8  0.250  0.750  0.649-  40 2.10  37 2.11  38 2.11  46 2.11  53 2.11
   9  0.000  0.250  0.352-  41 2.11  35 2.11  43 2.11  44 2.11  60 2.11
  10  0.250  0.500  0.352-  42 2.11  36 2.11  43 2.11  44 2.11  59 2.11
  11  0.000  0.500  0.451-  43 2.11  41 2.11  42 2.11  33 2.11  58 2.11  47 2.12
  12  0.250  0.250  0.451-  44 2.11  41 2.11  42 2.11  34 2.11  57 2.11  48 2.12
  13  1.000  0.250  0.550-  64 2.11  48 2.11  39 2.11  47 2.11  41 2.13  45 2.15
  14  0.250  0.500  0.550-  63 2.11  48 2.11  40 2.11  47 2.11  42 2.13  46 2.15
  15  0.000  0.500  0.649-  46 2.11  62 2.11  37 2.11  45 2.11  47 2.11
  16  0.250  0.250  0.649-  48 2.10  45 2.11  38 2.11  46 2.11  61 2.11
  17  0.500  0.750  0.352-  49 2.11  36 2.11  51 2.11  52 2.11  59 2.11
  18  0.750  0.000  0.352-  50 2.11  35 2.11  51 2.11  52 2.11  60 2.11
  19  0.500  0.000  0.451-  51 2.11  49 2.11  50 2.11  34 2.11  57 2.11  55 2.12
  20  0.750  0.750  0.451-  52 2.11  49 2.11  50 2.11  33 2.11  58 2.11  56 2.12
  21  0.500  0.750  0.550-  63 2.11  40 2.11  56 2.11  55 2.11  49 2.13  53 2.15
  22  0.750  1.000  0.550-  55 2.11  39 2.11  56 2.11  64 2.11  50 2.13  54 2.15
  23  0.500  1.000  0.649-  54 2.11  38 2.11  61 2.11  53 2.11  55 2.11
  24  0.750  0.750  0.649-  56 2.10  37 2.11  54 2.11  62 2.11  53 2.11
  25  0.500  0.250  0.352-  57 2.11  51 2.11  44 2.11  59 2.11  60 2.11
  26  0.750  0.500  0.352-  58 2.11  52 2.11  43 2.11  59 2.11  60 2.11
  27  0.500  0.500  0.451-  59 2.11  49 2.11  57 2.11  58 2.11  42 2.11  63 2.12
  28  0.750  0.250  0.451-  60 2.11  50 2.11  57 2.11  58 2.11  41 2.11  64 2.12
  29  0.500  0.250  0.550-  63 2.11  64 2.11  48 2.11  55 2.11  57 2.13  61 2.15
  30  0.750  0.500  0.550-  63 2.11  56 2.11  64 2.11  47 2.11  58 2.13  62 2.15
  31  0.500  0.500  0.649-  61 2.11  53 2.11  62 2.11  46 2.11  63 2.12
  32  0.750  0.250  0.649-  64 2.10  45 2.11  54 2.11  62 2.11  61 2.11
  33  0.000  0.750  0.451-   1 2.11   3 2.11   4 2.11  11 2.11  20 2.11   5 2.13
  34  0.250  0.000  0.451-   2 2.11   3 2.11   4 2.11  12 2.11  19 2.11   6 2.13
  35  0.000  0.000  0.352-   3 2.11   2 2.11   1 2.11   9 2.11  18 2.11
  36  0.250  0.750  0.352-   4 2.11   2 2.11   1 2.11  10 2.11  17 2.11
  37  0.000  0.750  0.651-   7 2.11   8 2.11  24 2.11  15 2.11   5 2.15
  38  0.250  1.000  0.651-  23 2.11   8 2.11  16 2.11   7 2.11   6 2.15
  39  0.000  1.000  0.550-  13 2.11   5 2.11  22 2.11   6 2.11   7 2.11   3 2.12
  40  0.250  0.750  0.550-   8 2.10   5 2.11  14 2.11   6 2.11  21 2.11   4 2.12
  41  0.000  0.250  0.451-   9 2.11   3 2.11  11 2.11  12 2.11  28 2.11  13 2.13
  42  0.250  0.500  0.451-  10 2.11   4 2.11  11 2.11  12 2.11  27 2.11  14 2.13
  43  0.000  0.500  0.352-  11 2.11   9 2.11  10 2.11   1 2.11  26 2.11
  44  0.250  0.250  0.352-  12 2.11   9 2.11  10 2.11   2 2.11  25 2.11
  45  0.000  0.250  0.651-   7 2.11  32 2.11  16 2.11  15 2.11  13 2.15
  46  0.250  0.500  0.651-  31 2.11  15 2.11   8 2.11  16 2.11  14 2.15
  47  0.000  0.500  0.550-  13 2.11   5 2.11  30 2.11  14 2.11  15 2.11  11 2.12
  48  0.250  0.250  0.550-  16 2.10  13 2.11  14 2.11   6 2.11  29 2.11  12 2.12
  49  0.500  0.750  0.451-  17 2.11   4 2.11  19 2.11  20 2.11  27 2.11  21 2.13
  50  0.750  0.000  0.451-  18 2.11   3 2.11  19 2.11  20 2.11  28 2.11  22 2.13
  51  0.500  0.000  0.352-  19 2.11  17 2.11  18 2.11   2 2.11  25 2.11
  52  0.750  0.750  0.352-  20 2.11  17 2.11  18 2.11   1 2.11  26 2.11
  53  0.500  0.750  0.651-  31 2.11  23 2.11  24 2.11   8 2.11  21 2.15
  54  0.750  1.000  0.651-  23 2.11  32 2.11  24 2.11   7 2.11  22 2.15
  55  0.500  1.000  0.550-  22 2.11   6 2.11  29 2.11  21 2.11  23 2.11  19 2.12
  56  0.750  0.750  0.550-  24 2.10   5 2.11  30 2.11  22 2.11  21 2.11  20 2.12
  57  0.500  0.250  0.451-  25 2.11  19 2.11  12 2.11  27 2.11  28 2.11  29 2.13
  58  0.750  0.500  0.451-  26 2.11  20 2.11  11 2.11  27 2.11  28 2.11  30 2.13
  59  0.500  0.500  0.352-  27 2.11  17 2.11  25 2.11  26 2.11  10 2.11
  60  0.750  0.250  0.352-  28 2.11  18 2.11  25 2.11  26 2.11   9 2.11
  61  0.500  0.250  0.651-  31 2.11  23 2.11  32 2.11  16 2.11  29 2.15
  62  0.750  0.500  0.651-  31 2.11  15 2.11  32 2.11  24 2.11  30 2.15
  63  0.500  0.500  0.550-  14 2.11  30 2.11  29 2.11  21 2.11  31 2.12  27 2.12
  64  0.750  0.250  0.550-  32 2.10  13 2.11  30 2.11  22 2.11  29 2.11  28 2.12


IMPORTANT INFORMATION: All symmetrisations will be switched off!
NOSYMM: (Re-)initialisation of all symmetry stuff for point group C_1.


----------------------------------------------------------------------------------------

                                     Primitive cell                                     

  volume of cell :    1519.8199

  direct lattice vectors                    reciprocal lattice vectors
     8.440984654  0.000000000  0.000000000     0.118469591  0.000000000  0.000000000
     0.000000000  8.440984654  0.000000000     0.000000000  0.118469591  0.000000000
     0.000000000  0.000000000 21.330738491     0.000000000  0.000000000  0.046880702

  length of vectors
     8.440984654  8.440984654 21.330738491     0.118469591  0.118469591  0.046880702

  position of ions in fractional coordinates (direct lattice)
     0.000000000  0.750000000  0.351605267
     0.250000000  0.000000000  0.351605267
     0.000000000  0.000000000  0.450535089
     0.250000000  0.750000000  0.450535089
     0.000000032  0.750000308  0.550157654
     0.250001804  0.999999985  0.550156830
     0.000000025  0.999999965  0.649044687
     0.249949639  0.750019913  0.648553984
     0.000000000  0.250000000  0.351605267
     0.250000000  0.500000000  0.351605267
     0.000000000  0.500000000  0.450535089
     0.250000000  0.250000000  0.450535089
     0.999999999  0.249999656  0.550157653
     0.250064324  0.499999978  0.550190700
     0.000000039  0.499999976  0.649021210
     0.249949646  0.249980067  0.648553964
     0.500000000  0.750000000  0.351605267
     0.750000000  0.000000000  0.351605267
     0.500000000  0.000000000  0.450535089
     0.750000000  0.750000000  0.450535089
     0.500000024  0.749952785  0.550165678
     0.749998232  0.999999984  0.550156825
     0.500000028  0.999999995  0.648979984
     0.750050384  0.750019928  0.648553979
     0.500000000  0.250000000  0.351605267
     0.750000000  0.500000000  0.351605267
     0.500000000  0.500000000  0.450535089
     0.750000000  0.250000000  0.450535089
     0.500000019  0.250047199  0.550165663
     0.749935743  0.499999993  0.550190720
     0.500000026  0.499999955  0.649075882
     0.750050382  0.249980033  0.648553973
     0.000000000  0.750000000  0.450535089
     0.250000000  0.000000000  0.450535089
     0.000000000  0.000000000  0.351605267
     0.250000000  0.750000000  0.351605267
     0.000000028  0.750053908  0.650888780
     0.250061307  0.999999979  0.650913268
     0.000000014  0.999999991  0.549896427
     0.249990992  0.749996648  0.549890507
     0.000000000  0.250000000  0.450535089
     0.250000000  0.500000000  0.450535089
     0.000000000  0.500000000  0.351605267
     0.250000000  0.250000000  0.351605267
     0.000000011  0.249946034  0.650888759
     0.250016454  0.499999995  0.650957230
     0.000000016  0.499999976  0.549906709
     0.249990989  0.250003322  0.549890505
     0.500000000  0.750000000  0.450535089
     0.750000000  0.000000000  0.450535089
     0.500000000  0.000000000  0.351605267
     0.750000000  0.750000000  0.351605267
     0.500000019  0.749946102  0.650910523
     0.749938711  0.999999990  0.650913287
     0.500000024  0.999999994  0.549886279
     0.750009067  0.749996662  0.549890515
     0.500000000  0.250000000  0.450535089
     0.750000000  0.500000000  0.450535089
     0.500000000  0.500000000  0.351605267
     0.750000000  0.250000000  0.351605267
     0.500000030  0.250053852  0.650910528
     0.749983571  0.499999967  0.650957227
     0.500000021  0.499999991  0.549922592
     0.750009042  0.250003314  0.549890512

  ion indices of the primitive-cell ions
   primitive index   ion index
                 1           1
                 2           2
                 3           3
                 4           4
                 5           5
                 6           6
                 7           7
                 8           8
                 9           9
                10          10
                11          11
                12          12
                13          13
                14          14
                15          15
                16          16
                17          17
                18          18
                19          19
                20          20
                21          21
                22          22
                23          23
                24          24
                25          25
                26          26
                27          27
                28          28
                29          29
                30          30
                31          31
                32          32
                33          33
                34          34
                35          35
                36          36
                37          37
                38          38
                39          39
                40          40
                41          41
                42          42
                43          43
                44          44
                45          45
                46          46
                47          47
                48          48
                49          49
                50          50
                51          51
                52          52
                53          53
                54          54
                55          55
                56          56
                57          57
                58          58
                59          59
                60          60
                61          61
                62          62
                63          63
                64          64

----------------------------------------------------------------------------------------



 KPOINTS: pymatgen v2020.8.13 with grid density = 

Automatic generation of k-mesh.
 Grid dimensions read from file:
 generate k-points for:    2    2    1

 Generating k-lattice:

  Cartesian coordinates                     Fractional coordinates (reciprocal lattice)
     0.059234796  0.000000000  0.000000000     0.500000000  0.000000000  0.000000000
     0.000000000  0.059234796  0.000000000     0.000000000  0.500000000  0.000000000
     0.000000000  0.000000000  0.046880702     0.000000000  0.000000000  1.000000000

  Length of vectors
     0.059234796  0.059234796  0.046880702

  Shift w.r.t. Gamma in fractional coordinates (k-lattice)
     0.000000000  0.000000000  0.000000000

 
 Subroutine IBZKPT returns following result:
 ===========================================
 
 Found      4 irreducible k-points:
 
 Following reciprocal coordinates:
            Coordinates               Weight
  0.000000  0.000000  0.000000      1.000000
  0.500000  0.000000  0.000000      1.000000
  0.000000  0.500000  0.000000      1.000000
  0.500000  0.500000  0.000000      1.000000
 
 Following cartesian coordinates:
            Coordinates               Weight
  0.000000  0.000000  0.000000      1.000000
  0.059235  0.000000  0.000000      1.000000
  0.000000  0.059235  0.000000      1.000000
  0.059235  0.059235  0.000000      1.000000
 


--------------------------------------------------------------------------------------------------------




 Dimension of arrays:
   k-points           NKPTS =      4   k-points in BZ     NKDIM =      4   number of bands    NBANDS=    320
   number of dos      NEDOS =    301   number of ions     NIONS =     64
   non local maximal  LDIM  =      5   non local SUM 2l+1 LMDIM =     13
   total plane-waves  NPLWV = 882000
   max r-space proj   IRMAX =      1   max aug-charges    IRDMAX=  11635
   dimension x,y,z NGX =    70 NGY =   70 NGZ =  180
   dimension x,y,z NGXF=   140 NGYF=  140 NGZF=  360
   support grid    NGXF=   140 NGYF=  140 NGZF=  360
   ions per type =              32  32
   NGX,Y,Z   is equivalent  to a cutoff of  13.79, 13.79, 14.03 a.u.
   NGXF,Y,Z  is equivalent  to a cutoff of  27.57, 27.57, 28.06 a.u.

 SYSTEM =  MgO-rocksalt                            
 POSCAR =  Mg  O                                   

--------------------------------------------------------------------------------------------------------


  energy-cutoff  :      600.00
  volume of cell :     1519.82
      direct lattice vectors                 reciprocal lattice vectors
     8.440984654  0.000000000  0.000000000     0.118469591  0.000000000  0.000000000
     0.000000000  8.440984654  0.000000000     0.000000000  0.118469591  0.000000000
     0.000000000  0.000000000 21.330738491     0.000000000  0.000000000  0.046880702

  length of vectors
     8.440984654  8.440984654 21.330738491     0.118469591  0.118469591  0.046880702



 k-points in units of 2pi/SCALE and weight: pymatgen v2020.8.13 with grid density = 
   0.00000000  0.00000000  0.00000000       0.250
   0.05923480  0.00000000  0.00000000       0.250
   0.00000000  0.05923480  0.00000000       0.250
   0.05923480  0.05923480  0.00000000       0.250

 k-points in reciprocal lattice and weights: pymatgen v2020.8.13 with grid density = 
   0.00000000  0.00000000  0.00000000       0.250
   0.50000000  0.00000000  0.00000000       0.250
   0.00000000  0.50000000  0.00000000       0.250
   0.50000000  0.50000000  0.00000000       0.250

 position of ions in fractional coordinates (direct lattice) 
   0.00000000  0.75000000  0.35160527
   0.25000000  0.00000000  0.35160527
   0.00000000  0.00000000  0.45053509
   0.25000000  0.75000000  0.45053509
   0.00000003  0.75000031  0.55015765
   0.25000180  0.99999999  0.55015683
   0.00000003  0.99999997  0.64904469
   0.24994964  0.75001991  0.64855398
   0.00000000  0.25000000  0.35160527
   0.25000000  0.50000000  0.35160527
   0.00000000  0.50000000  0.45053509
   0.25000000  0.25000000  0.45053509
   1.00000000  0.24999966  0.55015765
   0.25006432  0.49999998  0.55019070
   0.00000004  0.49999998  0.64902121
   0.24994965  0.24998007  0.64855396
   0.50000000  0.75000000  0.35160527
   0.75000000  0.00000000  0.35160527
   0.50000000  0.00000000  0.45053509
   0.75000000  0.75000000  0.45053509
   0.50000002  0.74995279  0.55016568
   0.74999823  0.99999998  0.55015682
   0.50000003  1.00000000  0.64897998
   0.75005038  0.75001993  0.64855398
   0.50000000  0.25000000  0.35160527
   0.75000000  0.50000000  0.35160527
   0.50000000  0.50000000  0.45053509
   0.75000000  0.25000000  0.45053509
   0.50000002  0.25004720  0.55016566
   0.74993574  0.49999999  0.55019072
   0.50000003  0.49999996  0.64907588
   0.75005038  0.24998003  0.64855397
   0.00000000  0.75000000  0.45053509
   0.25000000  0.00000000  0.45053509
   0.00000000  0.00000000  0.35160527
   0.25000000  0.75000000  0.35160527
   0.00000003  0.75005391  0.65088878
   0.25006131  0.99999998  0.65091327
   0.00000001  0.99999999  0.54989643
   0.24999099  0.74999665  0.54989051
   0.00000000  0.25000000  0.45053509
   0.25000000  0.50000000  0.45053509
   0.00000000  0.50000000  0.35160527
   0.25000000  0.25000000  0.35160527
   0.00000001  0.24994603  0.65088876
   0.25001645  0.49999999  0.65095723
   0.00000002  0.49999998  0.54990671
   0.24999099  0.25000332  0.54989051
   0.50000000  0.75000000  0.45053509
   0.75000000  0.00000000  0.45053509
   0.50000000  0.00000000  0.35160527
   0.75000000  0.75000000  0.35160527
   0.50000002  0.74994610  0.65091052
   0.74993871  0.99999999  0.65091329
   0.50000002  0.99999999  0.54988628
   0.75000907  0.74999666  0.54989052
   0.50000000  0.25000000  0.45053509
   0.75000000  0.50000000  0.45053509
   0.50000000  0.50000000  0.35160527
   0.75000000  0.25000000  0.35160527
   0.50000003  0.25005385  0.65091053
   0.74998357  0.49999997  0.65095723
   0.50000002  0.49999999  0.54992259
   0.75000904  0.25000331  0.54989051

 position of ions in cartesian coordinates  (Angst):
   0.00000000  6.33073849  7.50000000
   2.11024616  0.00000000  7.50000000
   0.00000000  0.00000000  9.61024616
   2.11024616  6.33073849  9.61024616
   0.00000027  6.33074109 11.73526904
   2.11026139  8.44098453 11.73525146
   0.00000021  8.44098436 13.84460249
   2.10982106  6.33090657 13.83413543
   0.00000000  2.11024616  7.50000000
   2.11024616  4.22049233  7.50000000
   0.00000000  4.22049233  9.61024616
   2.11024616  2.11024616  9.61024616
   8.44098465  2.11024326 11.73526903
   2.11078912  4.22049214 11.73597394
   0.00000033  4.22049212 13.84410170
   2.10982113  2.11007791 13.83413500
   4.22049233  6.33073849  7.50000000
   6.33073849  0.00000000  7.50000000
   4.22049233  0.00000000  9.61024616
   6.33073849  6.33073849  9.61024616
   4.22049253  6.33033995 11.73544020
   6.33072357  8.44098452 11.73525136
   4.22049256  8.44098461 13.84322233
   6.33116378  6.33090670 13.83413532
   4.22049233  2.11024616  7.50000000
   6.33073849  4.22049233  7.50000000
   4.22049233  4.22049233  9.61024616
   6.33073849  2.11024616  9.61024616
   4.22049248  2.11064457 11.73543989
   6.33019609  4.22049226 11.73597437
   4.22049255  4.22049195 13.84526790
   6.33116377  2.11007762 13.83413519
   0.00000000  6.33073849  9.61024616
   2.11024616  0.00000000  9.61024616
   0.00000000  0.00000000  7.50000000
   2.11024616  6.33073849  7.50000000
   0.00000023  6.33119353 13.88393835
   2.11076366  8.44098447 13.88446070
   0.00000011  8.44098458 11.72969688
   2.11017013  6.33071020 11.72957061
   0.00000000  2.11024616  9.61024616
   2.11024616  4.22049233  9.61024616
   0.00000000  4.22049233  7.50000000
   2.11024616  2.11024616  7.50000000
   0.00000010  2.10979064 13.88393791
   2.11038505  4.22049228 13.88539843
   0.00000013  4.22049213 11.72991621
   2.11017010  2.11027420 11.72957056
   4.22049233  6.33073849  9.61024616
   6.33073849  0.00000000  9.61024616
   4.22049233  0.00000000  7.50000000
   6.33073849  6.33073849  7.50000000
   4.22049249  6.33028353 13.88440214
   6.33022115  8.44098457 13.88446110
   4.22049253  8.44098461 11.72948042
   6.33081503  6.33071032 11.72957078
   4.22049233  2.11024616  9.61024616
   6.33073849  4.22049233  9.61024616
   4.22049233  4.22049233  7.50000000
   6.33073849  2.11024616  7.50000000
   4.22049258  2.11070073 13.88440225
   6.33059982  4.22049205 13.88539837
   4.22049251  4.22049226 11.73025500
   6.33081481  2.11027413 11.72957072



--------------------------------------------------------------------------------------------------------

--------------------------------------- Iteration      FINAL  ---------------------------------------


--------------------OUTCAR has been truncated-------------------------


--------------------OUTCAR has been truncated-------------------------


--------------------OUTCAR has been truncated-------------------------


--------------------OUTCAR has been truncated-------------------------


--------------------OUTCAR has been truncated-------------------------


--------------------OUTCAR has been truncated-------------------------


--------------------OUTCAR has been truncated-------------------------


--------------------OUTCAR has been truncated-------------------------


--------------------OUTCAR has been truncated-------------------------


--------------------OUTCAR has been truncated-------------------------


  FORCE on cell =-STRESS in cart. coord.  units (eV):
  Direction    XX          YY          ZZ          XY          YZ          ZX
  --------------------------------------------------------------------------------------
  Alpha Z   875.25928   875.25928   875.25928
  Ewald  161136.22059161136.20851************    -0.00000    -0.00007     0.00006
  Hartree171166.00479171165.99715************     0.00000    -0.00004     0.00003
  E(xc)   -2522.51505 -2522.51507 -2525.22071    -0.00000    -0.00000     0.00000
  Local  ************************342553.42352    -0.00001     0.00011    -0.00009
  n-local -2813.42828 -2813.42843 -2833.14860    -0.00000    -0.00000     0.00000
  augment  1077.71307  1077.71303  1068.76663     0.00000    -0.00000     0.00000
  Kinetic  7327.41433  7327.41455  7361.86980     0.00002     0.00001    -0.00001
  Fock        0.00000     0.00000     0.00000     0.00000     0.00000     0.00000
  -------------------------------------------------------------------------------------
  Total      -9.29328    -9.29323    12.35264     0.00001     0.00001    -0.00001
  in kB      -9.79688    -9.79682    13.02202     0.00001     0.00001    -0.00001
  external pressure =       -2.19 kB  Pullay stress =        0.00 kB


 VOLUME and BASIS-vectors are now :
 -----------------------------------------------------------------------------
  energy-cutoff  :      600.00
  volume of cell :     1519.82
      direct lattice vectors                 reciprocal lattice vectors
     8.440984654  0.000000000  0.000000000     0.118469591  0.000000000  0.000000000
     0.000000000  8.440984654  0.000000000     0.000000000  0.118469591  0.000000000
     0.000000000  0.000000000 21.330738491     0.000000000  0.000000000  0.046880702

  length of vectors
     8.440984654  8.440984654 21.330738491     0.118469591  0.118469591  0.046880702


 FORCES acting on ions:
    Electron-Ion                     Ewald-Force                    Non-Local-Force
 -----------------------------------------------------------------------------------------------
   0.169E-05 0.121E-01 0.207E+04   -.243E-05 -.123E-01 -.206E+04   0.240E-05 0.127E-03 -.647E+01
   -.837E-03 0.989E-06 0.207E+04   0.670E-03 -.341E-05 -.206E+04   0.122E-03 0.102E-05 -.647E+01
   -.542E-05 0.865E-05 0.683E+03   0.528E-05 -.113E-04 -.684E+03   0.563E-07 0.240E-05 0.472E+00
   -.500E-03 0.466E-01 0.683E+03   -.413E-03 -.491E-01 -.684E+03   0.666E-03 0.174E-02 0.490E+00
   0.117E-05 0.841E-01 -.690E+03   -.309E-05 -.836E-01 0.690E+03   0.213E-05 -.642E-03 -.206E+00
   0.424E-02 0.206E-04 -.690E+03   -.512E-02 -.214E-04 0.690E+03   0.376E-03 -.273E-06 -.200E+00
   0.222E-04 -.172E-04 -.205E+04   -.172E-04 0.158E-04 0.205E+04   -.167E-05 -.163E-05 0.542E+01
   -.951E-01 0.851E-02 -.205E+04   0.100E+00 -.524E-02 0.204E+04   0.100E-02 -.417E-02 0.540E+01
   0.100E-06 -.121E-01 0.207E+04   -.183E-05 0.123E-01 -.206E+04   0.261E-05 -.128E-03 -.647E+01
   0.327E-02 -.101E-05 0.207E+04   -.319E-02 0.353E-05 -.206E+04   -.740E-04 -.281E-05 -.647E+01
   0.142E-04 -.114E-04 0.683E+03   -.185E-04 0.122E-04 -.683E+03   0.333E-05 -.135E-05 0.474E+00
   -.483E-03 -.466E-01 0.683E+03   -.433E-03 0.491E-01 -.684E+03   0.670E-03 -.174E-02 0.490E+00
   -.481E-04 -.841E-01 -.690E+03   0.454E-04 0.836E-01 0.690E+03   0.275E-05 0.642E-03 -.206E+00
   0.185E+00 -.376E-04 -.691E+03   -.183E+00 0.405E-04 0.691E+03   -.685E-02 0.532E-06 -.202E+00
   0.622E-04 0.121E-04 -.205E+04   -.621E-04 -.106E-04 0.205E+04   -.341E-05 -.157E-06 0.542E+01
   -.951E-01 -.848E-02 -.205E+04   0.100E+00 0.522E-02 0.204E+04   0.100E-02 0.417E-02 0.540E+01
   -.549E-05 0.805E-02 0.207E+04   0.255E-05 -.846E-02 -.206E+04   0.252E-05 0.305E-03 -.647E+01
   0.844E-03 0.759E-06 0.207E+04   -.670E-03 -.392E-05 -.206E+04   -.126E-03 0.145E-05 -.647E+01
   0.653E-05 0.227E-04 0.683E+03   -.677E-05 -.255E-04 -.684E+03   -.789E-06 0.174E-05 0.469E+00
   0.508E-03 0.466E-01 0.683E+03   0.407E-03 -.491E-01 -.684E+03   -.668E-03 0.174E-02 0.490E+00
   -.106E-04 -.108E+00 -.690E+03   0.927E-05 0.103E+00 0.690E+03   0.187E-05 0.756E-02 -.211E+00
   -.426E-02 0.348E-04 -.690E+03   0.514E-02 -.341E-04 0.690E+03   -.376E-03 -.100E-06 -.200E+00
   0.909E-04 0.589E-04 -.205E+04   -.910E-04 -.547E-04 0.205E+04   -.239E-05 -.577E-05 0.541E+01
   0.950E-01 0.858E-02 -.205E+04   -.100E+00 -.531E-02 0.204E+04   -.999E-03 -.417E-02 0.540E+01
   0.125E-07 -.805E-02 0.207E+04   0.217E-05 0.846E-02 -.206E+04   -.172E-06 -.304E-03 -.647E+01
   -.327E-02 -.436E-05 0.207E+04   0.318E-02 0.392E-05 -.206E+04   0.740E-04 0.482E-06 -.647E+01
   -.274E-04 -.270E-04 0.683E+03   0.296E-04 0.271E-04 -.683E+03   -.133E-05 -.581E-06 0.484E+00
   0.491E-03 -.466E-01 0.683E+03   0.423E-03 0.491E-01 -.684E+03   -.668E-03 -.174E-02 0.490E+00
   0.144E-04 0.108E+00 -.690E+03   -.113E-04 -.103E+00 0.690E+03   -.104E-05 -.755E-02 -.211E+00
   -.185E+00 -.316E-04 -.691E+03   0.183E+00 0.321E-04 0.691E+03   0.684E-02 -.873E-06 -.202E+00
   0.471E-04 -.696E-04 -.205E+04   -.436E-04 0.657E-04 0.205E+04   -.126E-05 0.178E-05 0.541E+01
   0.950E-01 -.856E-02 -.205E+04   -.100E+00 0.530E-02 0.204E+04   -.100E-02 0.417E-02 0.540E+01
   0.122E-04 0.418E-01 0.512E+03   -.118E-04 -.422E-01 -.512E+03   0.108E-05 0.477E-03 -.862E-01
   -.396E-02 0.477E-05 0.512E+03   0.409E-02 -.776E-05 -.512E+03   -.192E-03 0.240E-06 -.853E-01
   0.257E-07 0.206E-05 0.155E+04   -.286E-06 -.213E-05 -.156E+04   -.163E-05 -.252E-06 0.355E+01
   0.526E-03 0.778E-02 0.155E+04   -.644E-03 -.809E-02 -.156E+04   0.167E-03 0.429E-03 0.355E+01
   0.492E-04 0.118E+00 -.156E+04   -.550E-04 -.126E+00 0.156E+04   0.325E-05 0.477E-02 -.506E+01
   0.286E-01 -.310E-04 -.156E+04   -.268E-01 0.364E-04 0.156E+04   -.762E-02 -.179E-05 -.508E+01
   -.135E-04 0.324E-04 -.513E+03   0.147E-04 -.323E-04 0.513E+03   -.158E-05 -.268E-05 0.185E+00
   -.125E-01 0.237E-01 -.511E+03   0.117E-01 -.212E-01 0.511E+03   0.208E-02 -.325E-02 0.310E+00
   0.398E-05 -.418E-01 0.512E+03   -.167E-05 0.422E-01 -.512E+03   -.783E-06 -.480E-03 -.862E-01
   0.279E-01 -.734E-05 0.512E+03   -.316E-01 0.144E-04 -.512E+03   0.475E-02 -.105E-05 -.913E-01
   0.359E-05 0.558E-06 0.155E+04   -.290E-05 0.211E-05 -.156E+04   0.551E-06 -.726E-06 0.355E+01
   0.528E-03 -.779E-02 0.155E+04   -.645E-03 0.809E-02 -.156E+04   0.169E-03 -.427E-03 0.355E+01
   -.214E-04 -.118E+00 -.156E+04   0.211E-04 0.126E+00 0.156E+04   0.849E-06 -.476E-02 -.506E+01
   0.102E+00 0.113E-04 -.156E+04   -.935E-01 -.677E-05 0.156E+04   -.140E-01 -.521E-05 -.509E+01
   -.298E-04 -.280E-04 -.513E+03   0.330E-04 0.263E-04 0.513E+03   -.572E-05 0.368E-05 0.204E+00
   -.125E-01 -.237E-01 -.511E+03   0.116E-01 0.212E-01 0.511E+03   0.209E-02 0.325E-02 0.310E+00
   -.929E-05 0.126E-01 0.512E+03   0.640E-05 -.975E-02 -.512E+03   0.276E-05 -.386E-02 -.854E-01
   0.397E-02 0.120E-04 0.512E+03   -.409E-02 -.109E-04 -.512E+03   0.197E-03 0.116E-06 -.853E-01
   0.504E-05 0.120E-05 0.155E+04   0.368E-06 -.358E-05 -.156E+04   -.757E-06 0.826E-07 0.355E+01
   -.526E-03 0.779E-02 0.155E+04   0.644E-03 -.810E-02 -.156E+04   -.163E-03 0.431E-03 0.355E+01
   0.273E-04 -.175E+00 -.156E+04   -.309E-04 0.180E+00 0.156E+04   0.174E-05 -.548E-03 -.508E+01
   -.286E-01 0.369E-04 -.156E+04   0.269E-01 -.356E-04 0.156E+04   0.762E-02 -.158E-05 -.508E+01
   0.235E-04 0.292E-04 -.513E+03   -.225E-04 -.271E-04 0.512E+03   -.269E-05 -.582E-06 0.203E+00
   0.125E-01 0.237E-01 -.511E+03   -.117E-01 -.212E-01 0.511E+03   -.209E-02 -.325E-02 0.310E+00
   -.566E-06 -.126E-01 0.512E+03   0.475E-05 0.975E-02 -.512E+03   0.981E-06 0.386E-02 -.854E-01
   -.279E-01 -.832E-05 0.512E+03   0.316E-01 0.135E-04 -.512E+03   -.474E-02 -.313E-05 -.913E-01
   -.341E-05 -.175E-05 0.155E+04   0.328E-05 0.361E-05 -.156E+04   -.131E-06 -.151E-05 0.355E+01
   -.531E-03 -.779E-02 0.155E+04   0.645E-03 0.810E-02 -.156E+04   -.161E-03 -.429E-03 0.355E+01
   0.709E-04 0.175E+00 -.156E+04   -.719E-04 -.180E+00 0.156E+04   -.186E-05 0.553E-03 -.508E+01
   -.102E+00 -.479E-04 -.156E+04   0.936E-01 0.482E-04 0.156E+04   0.140E-01 0.101E-05 -.509E+01
   -.371E-04 -.288E-04 -.513E+03   0.370E-04 0.343E-04 0.513E+03   -.383E-05 -.434E-05 0.177E+00
   0.125E-01 -.237E-01 -.511E+03   -.117E-01 0.212E-01 0.511E+03   -.209E-02 0.325E-02 0.310E+00
 -----------------------------------------------------------------------------------------------
   0.498E-04 0.224E-04 0.171E+02   -.432E-12 0.167E-12 0.364E-11   0.253E-05 0.471E-06 -.171E+02


 POSITION                                       TOTAL-FORCE (eV/Angst)
 -----------------------------------------------------------------------------------
      0.00000      6.33074      7.50000         0.000001     -0.000046      0.152443
      2.11025      0.00000      7.50000        -0.000045     -0.000002      0.152342
      0.00000      0.00000      9.61025        -0.000001     -0.000001      0.050494
      2.11025      6.33074      9.61025        -0.000243     -0.000717      0.046503
      0.00000      6.33074     11.73527        -0.000001     -0.000097      0.033026
      2.11026      8.44098     11.73525        -0.000497     -0.000001      0.034462
      0.00000      8.44098     13.84460         0.000003     -0.000003      0.155044
      2.10982      6.33091     13.83414         0.006119     -0.000910      0.227699
      0.00000      2.11025      7.50000         0.000000      0.000048      0.152446
      2.11025      4.22049      7.50000         0.000014     -0.000001      0.152517
      0.00000      4.22049      9.61025        -0.000002     -0.000001      0.052526
      2.11025      2.11025      9.61025        -0.000243      0.000716      0.046502
      8.44098      2.11024     11.73527        -0.000001      0.000096      0.033024
      2.11079      4.22049     11.73597        -0.005591      0.000003      0.030802
      0.00000      4.22049     13.84410        -0.000004      0.000001      0.161437
      2.10982      2.11008     13.83413         0.006119      0.000912      0.227706
      4.22049      6.33074      7.50000        -0.000001     -0.000099      0.152309
      6.33074      0.00000      7.50000         0.000046     -0.000002      0.152345
      4.22049      0.00000      9.61025        -0.000002     -0.000001      0.050721
      6.33074      6.33074      9.61025         0.000243     -0.000718      0.046503
      4.22049      6.33034     11.73544        -0.000000      0.003271      0.035397
      6.33072      8.44098     11.73525         0.000494      0.000000      0.034462
      4.22049      8.44098     13.84322        -0.000003     -0.000002      0.167223
      6.33116      6.33091     13.83414        -0.006121     -0.000915      0.227700
      4.22049      2.11025      7.50000         0.000001      0.000102      0.152312
      6.33074      4.22049      7.50000        -0.000010     -0.000000      0.152514
      4.22049      4.22049      9.61025         0.000000     -0.000001      0.049936
      6.33074      2.11025      9.61025         0.000241      0.000718      0.046504
      4.22049      2.11064     11.73544         0.000001     -0.003271      0.035400
      6.33020      4.22049     11.73597         0.005588     -0.000001      0.030799
      4.22049      4.22049     13.84527         0.000001     -0.000002      0.159291
      6.33116      2.11008     13.83414        -0.006120      0.000916      0.227702
      0.00000      6.33074      9.61025         0.000001      0.000048      0.075116
      2.11025      0.00000      9.61025        -0.000068     -0.000003      0.075258
      0.00000      0.00000      7.50000        -0.000003     -0.000001     -0.560944
      2.11025      6.33074      7.50000         0.000048      0.000119     -0.560750
      0.00000      6.33119     13.88394        -0.000003     -0.003105      0.058138
      2.11076      8.44098     13.88446        -0.005870      0.000003      0.053657
      0.00000      8.44098     11.72970        -0.000001     -0.000003      0.010913
      2.11017      6.33071     11.72957         0.001243     -0.000706     -0.005197
      0.00000      2.11025      9.61025         0.000001     -0.000053      0.075119
      2.11025      4.22049      9.61025         0.001083      0.000006      0.077091
      0.00000      4.22049      7.50000         0.000000      0.000002     -0.561038
      2.11025      2.11025      7.50000         0.000051     -0.000120     -0.560755
      0.00000      2.10979     13.88394        -0.000000      0.003106      0.058139
      2.11039      4.22049     13.88540        -0.005509     -0.000001      0.050291
      0.00000      4.22049     11.72992        -0.000003      0.000002      0.011488
      2.11017      2.11027     11.72957         0.001240      0.000707     -0.005195
      4.22049      6.33074      9.61025        -0.000001     -0.000970      0.076187
      6.33074      0.00000      9.61025         0.000067      0.000001      0.075257
      4.22049      0.00000      7.50000         0.000004     -0.000003     -0.560843
      6.33074      6.33074      7.50000        -0.000046      0.000123     -0.560751
      4.22049      6.33028     13.88440        -0.000003      0.004570      0.053164
      6.33022      8.44098     13.88446         0.005880     -0.000001      0.053654
      4.22049      8.44098     11.72948        -0.000003      0.000001      0.010987
      6.33082      6.33071     11.72957        -0.001241     -0.000706     -0.005202
      4.22049      2.11025      9.61025         0.000004      0.000973      0.076189
      6.33074      4.22049      9.61025        -0.001075      0.000002      0.077089
      4.22049      4.22049      7.50000        -0.000001     -0.000000     -0.561019
      6.33074      2.11025      7.50000        -0.000048     -0.000124     -0.560751
      4.22049      2.11070     13.88440        -0.000004     -0.004565      0.053160
      6.33060      4.22049     13.88540         0.005512      0.000001      0.050296
      4.22049      4.22049     11.73026        -0.000005      0.000001      0.006360
      6.33081      2.11027     11.72957        -0.001239      0.000706     -0.005200
 -----------------------------------------------------------------------------------
    total drift:                                0.000052      0.000023      0.007306


--------------------------------------------------------------------------------------------------------



  FREE ENERGIE OF THE ION-ELECTRON SYSTEM (eV)
  ---------------------------------------------------
  free  energy   TOTEN  =      -227.45405033 eV

  energy  without entropy=     -227.45405033  energy(sigma->0) =     -227.45405033



--------------------------------------------------------------------------------------------------------


    POTLOK:  cpu time      2.2701: real time      2.2706


--------------------------------------------------------------------------------------------------------


     LOOP+:  cpu time    165.0769: real time    165.3017
    4ORBIT:  cpu time      0.0000: real time      0.0000

 total amount of memory used by VASP MPI-rank0    60508. kBytes
=======================================================================

   base      :      30000. kBytes
   nonl-proj :      11878. kBytes
   fftplans  :       4923. kBytes
   grid      :       7379. kBytes
   one-center:         64. kBytes
   wavefun   :       6264. kBytes

  
  
 General timing and accounting informations for this job:
 ========================================================
  
                  Total CPU time used (sec):      197.811
                            User time (sec):      196.344
                          System time (sec):        1.467
                         Elapsed time (sec):      207.491
  
                   Maximum memory used (kb):      267164.
                   Average memory used (kb):          N/A
  
                          Minor page faults:        67656
                          Major page faults:            0
                 Voluntary context switches:        12746
