 **********************************************************************
                          MRCC program system
 **********************************************************************
 
                              Written by
     Mihaly Kallay, Peter R. Nagy, David Mester, Laszlo Gyevi-Nagy,
        Jozsef Csoka, P. Bernat Szabo, Zoltan Rolik, Gyula Samu,
     Jozsef Csontos, Bence Hegely, Adam Ganyecz, Istvan Ladjanszki,
       Lorant Szegedy, Bence Ladoczki, Klara Petrov, Mate Farkas,
                    Pal D. Mezei, and Reka A. Horvath
 
        Department of Physical Chemistry and Materials Science
            Budapest University of Technology and Economics
                  Budapest P.O.Box 91, H-1521 Hungary
 
                              www.mrcc.hu
 
                      Release date: March 18, 2022

 ************************ 2023-02-05 13:23:02 *************************
 Executing minp...

 Reading input from MINP...
 
 Input file:
 
calc=FNO-CCSD(T)
verbosity=3
mem=220GB
unit=angs
scfiguess=small
scfalg=locfit1
ccmaxit=400
ccsdalg=dfdirect
ccsdthreads=4
ccsdmkl=thr
ptthreads=4
lnoepsv=1e-5
naf_cor=1e-2
basis=aug-cc-pVQZ
basis_sm=def2-SVP
dfbasis_scf=def2-QZVPP-RI-JK
dfbasis_cor=aug-cc-pVQZ-RI
unit=angs
geom=xyz
16

C    34.41670262    34.07107264    10.41543014
C    33.11117461    33.45680459    10.91530835
H    34.24160149    35.00442132     9.86225048
H    34.94674030    33.36940783     9.75379242
H    35.10002891    34.30603621    11.24227357
H    32.42643037    33.26105434    10.07939442
H    32.59136835    34.12756100    11.61262818
H    33.28915165    32.50678735    11.43686767
C    51.29867193    42.51205729    10.41543014
C    49.99314392    41.89778925    10.91530835
H    51.12357080    43.44540598     9.86225048
H    51.82870961    41.81039248     9.75379242
H    51.98199822    42.74702086    11.24227357
H    49.30839968    41.70203900    10.07939442
H    49.47333766    42.56854565    11.61262818
H    50.17112096    40.94777201    11.43686767

--------------------Output has been truncated-------------------------


--------------------Output has been truncated-------------------------


--------------------Output has been truncated-------------------------


--------------------Output has been truncated-------------------------


--------------------Output has been truncated-------------------------


--------------------Output has been truncated-------------------------


--------------------Output has been truncated-------------------------


--------------------Output has been truncated-------------------------


--------------------Output has been truncated-------------------------


--------------------Output has been truncated-------------------------


 
 Reference energy [au]:                       -79.264437034680
 DF-MP2 singlet pair energy [au]:              -0.317722282646
 DF-MP2 triplet pair energy [au]:              -0.076906316312
 DF-SCS-MP2 correlation energy [au]:           -0.406902177945
 DF-SCS-MP2 energy [au]:                      -79.671339212626
 DF-SOS-MP2 correlation energy [au]:           -0.413038967439
 DF-SOS-MP2 energy [au]:                      -79.677476002119
 DF-MP2 correlation energy [au]:               -0.394628598958
 DF-MP2 energy [au]:                          -79.659065633638

 Results in FNO basis:
 
 
 Reference energy [au]:                       -79.264437034680
 DF-MP2 singlet pair energy [au]:              -0.312548722511
 DF-MP2 triplet pair energy [au]:              -0.076620435294
 DF-SCS-MP2 correlation energy [au]:           -0.400598612112
 DF-SCS-MP2 energy [au]:                      -79.665035646792
 DF-SOS-MP2 correlation energy [au]:           -0.406313339265
 DF-SOS-MP2 energy [au]:                      -79.670750373945
 DF-MP2 correlation energy [au]:               -0.389169157806
 DF-MP2 energy [au]:                          -79.653606192486

 Results in NAF basis:
 
 
 Reference energy [au]:                       -79.264437034680
 DF-MP2 singlet pair energy [au]:              -0.312527760301
 DF-MP2 triplet pair energy [au]:              -0.076628441773
 DF-SCS-MP2 correlation energy [au]:           -0.400576126286
 DF-SCS-MP2 energy [au]:                      -79.665013160966
 DF-SOS-MP2 correlation energy [au]:           -0.406286088392
 DF-SOS-MP2 energy [au]:                      -79.670723123072
 DF-MP2 correlation energy [au]:               -0.389156202075
 DF-MP2 energy [au]:                          -79.653593236755

 ************************ 2023-02-05 13:24:24 *************************
 Executing ccsd...

 Allocation of 220.0 Gbytes of memory...

 Direct DF-CCSD(T) calculation
 
 Convergence criterion:  1.0E-06
 
 Number of occupied/virtual/auxiliary orbitals:     7   175   551
    851.32 MB is the minimal memory requirement for (T)
    190.43 MB is the minimal memory requirement for CCSD
 
 Reference energy [au]:             -79.264437034680
 T1 contribution [au]:                0.000000000000
 Same spin MP2 energy [au]:          -0.076624435971
 Opposite spin MP2 energy [au]:      -0.312538236699
 MP2 correlation energy [au]:        -0.389162672670
 Total MP2 energy [au]:             -79.653599707350
 MP2 correction [au]:                -0.005465926288
 
 
 CPU time [min]:     0.403                   Wall time [min]:     0.050
 
 Starting CCSD iterations...
 
                     Residual norm          Energy
 Iteration  1        0.179604446249      -79.671512643564
 Iteration  2        0.044511310595      -79.681094807257
 Iteration  3        0.013089807359      -79.682230531403
 Iteration  4        0.002650290019      -79.682237754120
 Iteration  5        0.000560968340      -79.682243619367
 Iteration  6        0.000156931294      -79.682245670220
 Iteration  7        0.000037096202      -79.682245445166
 Iteration  8        0.000009998710      -79.682245809054
 
 CCSD iteration has converged in  8 steps.
     3804.92 MB memory was utilized by CCSD
 
 T1 diagnostic:      8.231E-03            D1 diagnostic:      1.428E-02
 
 T1 contribution [au]:                                  0.000000000000
 PPL energy contribution [au]:                          0.108935358965
 Scaled PPL energy contribution [au]:                   0.110475079740

 OS-PPL energy contribution [au]:                       0.095542152718
 Scaled OS-PPL energy contribution [au]:                0.097137055521
 SS-PPL energy contribution [au]:                       0.013393206248
 Scaled SS-PPL energy contribution [au]:                0.013441283268

 Opposite spin CCSD energy [au]:                       -0.345140091651
 Same spin CCSD energy [au]:                           -0.072676435538
 CCSD correlation energy [au]:                         -0.417816527188
 CCSD correlation energy + MP2 correction [au]:        -0.423282453476
 CCSD correlation energy + MP2 + PPL corr. [au]:       -0.421742732701
 Total CCSD energy [au]:                              -79.682253561868
 Total CCSD energy + MP2 correction [au]:             -79.687719488156
 Total CCSD energy + MP2 + PPL corr. [au]:            -79.686179767381
 
 CPU time [min]:     6.729                   Wall time [min]:     0.244
 
 Calculation of (T) correction...
 
 
      783.34 MB memory is utilized for (T)

 0%       25%       50%       75%       100%
 |---------|---------|---------|---------| 
 
 (T) correction [au]:                                    -0.014762650956
 (T*) correction [au]:                                   -0.014969997568
 (T+) correction [au]:                                   -0.014966466137
 CCSD(T) correlation energy [au]:                        -0.432579178144
 CCSD(T) correlation energy + MP2 correction [au]:       -0.438045104432
 CCSD(T+) correlation en. + MP2 + PPL corr. [au]:        -0.436709198838
 Total CCSD(T) energy [au]:                             -79.697016212824
 Total CCSD(T) energy + MP2 correction [au]:            -79.702482139112
 Total CCSD(T+) energy + MP2 + PPL corr. [au]:          -79.701146233519
 
 CPU time [min]:     8.451                   Wall time [min]:     0.301
 
 ************************ 2023-02-05 13:24:42 *************************
                      Normal termination of mrcc.
 **********************************************************************
