 **********************************************************************
                          MRCC program system
 **********************************************************************
 
                              Written by
     Mihaly Kallay, Peter R. Nagy, David Mester, Laszlo Gyevi-Nagy,
        Jozsef Csoka, P. Bernat Szabo, Zoltan Rolik, Gyula Samu,
     Jozsef Csontos, Bence Hegely, Adam Ganyecz, Istvan Ladjanszki,
       Lorant Szegedy, Bence Ladoczki, Klara Petrov, Mate Farkas,
                    Pal D. Mezei, and Reka A. Horvath
 
        Department of Physical Chemistry and Materials Science
            Budapest University of Technology and Economics
                  Budapest P.O.Box 91, H-1521 Hungary
 
                              www.mrcc.hu
 
                      Release date: March 18, 2022

 ************************ 2023-02-04 11:53:48 *************************
 Executing minp...

 Reading input from MINP...
 
 Input file:
 
calc=FNO-CCSD(T)
verbosity=3
mem=220GB
unit=angs
scfiguess=small
scfalg=locfit1
ccmaxit=400
ccsdalg=dfdirect
ccsdthreads=4
ccsdmkl=thr
ptthreads=4
lnoepsv=1e-5
naf_cor=1e-2
basis=aug-cc-pVTZ
basis_sm=def2-SVP
dfbasis_scf=def2-QZVPP-RI-JK
dfbasis_cor=aug-cc-pVTZ-RI
unit=angs
geom=xyz
10

C    29.54344629    29.54344629    16.97505516
H    29.54344670    30.44187631    17.60392580
H    29.54344662    28.64496649    17.60393442
H    30.44658454    29.54342777    16.34911135
H    28.64030918    29.54342779    16.34911130
C    21.10246164    37.98443094    16.97505516
H    21.10246204    38.88286097    17.60392580
H    21.10246196    37.08595114    17.60393442
H    22.00559989    37.98441242    16.34911135
H    20.19932453    37.98441244    16.34911130

--------------------Output has been truncated-------------------------


--------------------Output has been truncated-------------------------


--------------------Output has been truncated-------------------------


--------------------Output has been truncated-------------------------


--------------------Output has been truncated-------------------------


--------------------Output has been truncated-------------------------


--------------------Output has been truncated-------------------------


--------------------Output has been truncated-------------------------


--------------------Output has been truncated-------------------------


--------------------Output has been truncated-------------------------


 
 Reference energy [au]:                       -80.426028062345
 DF-MP2 singlet pair energy [au]:              -0.328838208495
 DF-MP2 triplet pair energy [au]:              -0.073189542678
 DF-SCS-MP2 correlation energy [au]:           -0.419002364420
 DF-SCS-MP2 energy [au]:                      -80.845030426766
 DF-SOS-MP2 correlation energy [au]:           -0.427489671044
 DF-SOS-MP2 energy [au]:                      -80.853517733389
 DF-MP2 correlation energy [au]:               -0.402027751173
 DF-MP2 energy [au]:                          -80.828055813519

 Results in FNO basis:
 
 
 Reference energy [au]:                       -80.426028062345
 DF-MP2 singlet pair energy [au]:              -0.327537603615
 DF-MP2 triplet pair energy [au]:              -0.073101993022
 DF-SCS-MP2 correlation energy [au]:           -0.417412455345
 DF-SCS-MP2 energy [au]:                      -80.843440517690
 DF-SOS-MP2 correlation energy [au]:           -0.425798884699
 DF-SOS-MP2 energy [au]:                      -80.851826947045
 DF-MP2 correlation energy [au]:               -0.400639596637
 DF-MP2 energy [au]:                          -80.826667658982

 Results in NAF basis:
 
 
 Reference energy [au]:                       -80.426028062345
 DF-MP2 singlet pair energy [au]:              -0.327473950580
 DF-MP2 triplet pair energy [au]:              -0.073141687395
 DF-SCS-MP2 correlation energy [au]:           -0.417349303161
 DF-SCS-MP2 energy [au]:                      -80.843377365507
 DF-SOS-MP2 correlation energy [au]:           -0.425716135754
 DF-SOS-MP2 energy [au]:                      -80.851744198100
 DF-MP2 correlation energy [au]:               -0.400615637976
 DF-MP2 energy [au]:                          -80.826643700321

 ************************ 2023-02-04 11:54:07 *************************
 Executing ccsd...

 Allocation of 220.0 Gbytes of memory...

 Direct DF-CCSD(T) calculation
 
 Convergence criterion:  1.0E-06
 
 Number of occupied/virtual/auxiliary orbitals:     8   166   443
    715.53 MB is the minimal memory requirement for (T)
    155.43 MB is the minimal memory requirement for CCSD
 
 Reference energy [au]:             -80.426028062345
 T1 contribution [au]:                0.000000000000
 Same spin MP2 energy [au]:          -0.073121787060
 Opposite spin MP2 energy [au]:      -0.327505615685
 MP2 correlation energy [au]:        -0.400627402745
 Total MP2 energy [au]:             -80.826655465091
 MP2 correction [au]:                -0.001400348428
 
 
 CPU time [min]:     0.353                   Wall time [min]:     0.016
 
 Starting CCSD iterations...
 
                     Residual norm          Energy
 Iteration  1        0.182589336998      -80.855591841906
 Iteration  2        0.046511359289      -80.866584261765
 Iteration  3        0.011383038613      -80.867573475766
 Iteration  4        0.002649538817      -80.867576847736
 Iteration  5        0.000501953533      -80.867589763723
 Iteration  6        0.000102255233      -80.867589949043
 Iteration  7        0.000024620932      -80.867591130756
 Iteration  8        0.000004318338      -80.867591168436
 Iteration  9        0.000000872785      -80.867591151716
 
 CCSD iteration has converged in  9 steps.
     3072.80 MB memory was utilized by CCSD
 
 T1 diagnostic:      7.475E-03            D1 diagnostic:      1.210E-02
 
 T1 contribution [au]:                                  0.000000000000
 PPL energy contribution [au]:                          0.114976583298
 Scaled PPL energy contribution [au]:                   0.115380945142

 OS-PPL energy contribution [au]:                       0.101746329424
 Scaled OS-PPL energy contribution [au]:                0.102169109790
 SS-PPL energy contribution [au]:                       0.013230253875
 Scaled SS-PPL energy contribution [au]:                0.013239168293

 Opposite spin CCSD energy [au]:                       -0.370937689413
 Same spin CCSD energy [au]:                           -0.070645239077
 CCSD correlation energy [au]:                         -0.441582928489
 CCSD correlation energy + MP2 correction [au]:        -0.442983276917
 CCSD correlation energy + MP2 + PPL corr. [au]:       -0.442578915074
 Total CCSD energy [au]:                              -80.867610990835
 Total CCSD energy + MP2 correction [au]:             -80.869011339263
 Total CCSD energy + MP2 + PPL corr. [au]:            -80.868606977419
 
 CPU time [min]:     5.383                   Wall time [min]:     0.157
 
 Calculation of (T) correction...
 
 
      698.30 MB memory is utilized for (T)

 0%       25%       50%       75%       100%
 |---------|---------|---------|---------| 
 
 (T) correction [au]:                                    -0.013137985317
 (T*) correction [au]:                                   -0.013183907680
 (T+) correction [au]:                                   -0.013183841667
 CCSD(T) correlation energy [au]:                        -0.454720913806
 CCSD(T) correlation energy + MP2 correction [au]:       -0.456121262234
 CCSD(T+) correlation en. + MP2 + PPL corr. [au]:        -0.455762756741
 Total CCSD(T) energy [au]:                             -80.880748976152
 Total CCSD(T) energy + MP2 correction [au]:            -80.882149324580
 Total CCSD(T+) energy + MP2 + PPL corr. [au]:          -80.881790819086
 
 CPU time [min]:     7.317                   Wall time [min]:     0.224
 
 ************************ 2023-02-04 11:54:21 *************************
                      Normal termination of mrcc.
 **********************************************************************
