 vasp.6.3.0 20Jan22 (build Dec 25 2023 18:06:01) complex                         
 executed on        HPECrayEX_GCC date 2024.01.24  04:14:30
 running  768 mpi-ranks, with    1 threads/rank
 distrk:  each k-point on  768 cores,    1 groups
 distr:  one band on NCORE=   8 cores,   96 groups


--------------------------------------------------------------------------------------------------------


 INCAR:
   SYSTEM = MgO-rocksalt
   ISMEAR = 0
   SIGMA = 0.05
   EDIFF = 1E-8
   ALGO = ALL
   ISTART = 0
   IBRION = 5
   POTIM = 0.01
   NFREE = 2
   ISYM = 0
   DIPOL = 0.5 0.5 0.5
   IDIPOL = 4
   LDIPOL = .TRUE.
   GGA = RE
   AGGAC = 0.0
   LUSE_VDW = .TRUE.
   LASPH = .TRUE.
   ENCUT = 600
   PREC = Accurate
   LASPH = .TRUE.
   LREAL = .FALSE.
   ISPIN = 1
   NELM = 200
   NELMIN = 8
   NCORE = 8
   KPAR = 1
   LWAVE = .FALSE.
   LCHARG = .FALSE.

 POTCAR:    PAW_PBE H 15Jun2001                   
 POTCAR:    PAW_PBE O 08Apr2002                   
 -----------------------------------------------------------------------------
|                                                                             |
|               ----> ADVICE to this user running VASP <----                  |
|                                                                             |
|     You have switched on vdW-DFT.                                           |
|     This routine was written and supplied by Jiri Klimes. We recommend      |
|     that you carefully read and cite the following publications:            |
|       J. Klimes, D.R. Bowler, A. Michelides                                 |
|          J. Phys.: Cond Matt. 22 022201 (2010)                              |
|       J. Klimes, D.R. Bowler, A. Michelides                                 |
|          Phys. Rev. B. 83, 195131 (2011)                                    |
|     and references therein.                                                 |
|                                                                             |
 -----------------------------------------------------------------------------

 POTCAR:    PAW_PBE H 15Jun2001                   
   SHA256 =  030f79b5d3ab3cf0e668861823c8fb652ff669f3e15e46930bd03bfd63a607b6 H/POTCAR              
   COPYR  = (c) Copyright 15Jun2001 Georg Kresse                                                    
   COPYR  = This file is part of the software VASP. Any use, copying, and all other rights are regul
   COPYR  = If you do not have a valid VASP license, you may not use, copy or distribute this file. 
   VRHFIN =H: ultrasoft test                                                                        
   LEXCH  = PE                                                                                      
   EATOM  =    12.4884 eV,    0.9179 Ry                                                             
                                                                                                    
   TITEL  = PAW_PBE H 15Jun2001                                                                     
   LULTRA =        F    use ultrasoft PP ?                                                          
   IUNSCR =        0    unscreen: 0-lin 1-nonlin 2-no                                               
   RPACOR =    0.000    partial core radius                                                         
   POMASS =    1.000; ZVAL   =    1.000    mass and valenz                                          
   RCORE  =    1.100    outmost cutoff radius                                                       
   RWIGS  =    0.700; RWIGS  =    0.370    wigner-seitz radius (au A)                               
   ENMAX  =  250.000; ENMIN  =  200.000 eV                                                          
   RCLOC  =    0.701    cutoff for local pot                                                        
   LCOR   =        T    correct aug charges                                                         
   LPAW   =        T    paw PP                                                                      
   EAUG   =  400.000                                                                                
   RMAX   =    1.123    core radius for proj-oper                                                   
   RAUG   =    1.200    factor for augmentation sphere                                              
   RDEP   =    1.112    radius for radial grids                                                     
   RDEPT  =    0.926    core radius for aug-charge                                                  
                                                                                                    
   Atomic configuration                                                                             
    2 entries                                                                                       
     n  l   j            E        occ.                                                              
     1  0  0.50        -6.4927   1.0000                                                             
     2  1  0.50        -3.4015   0.0000                                                             
   Description                                                                                      
     l       E           TYP  RCUT    TYP  RCUT                                                     
     0     -6.4927494     23  1.100                                                                 
     0      6.8029130     23  1.100                                                                 
     1     -4.0817478     23  1.100                                                                 
  local pseudopotential read in
  atomic valenz-charges read in
  non local Contribution for L=           0  read in
    real space projection operators read in
  non local Contribution for L=           0  read in
    real space projection operators read in
  non local Contribution for L=           1  read in
    real space projection operators read in
    PAW grid and wavefunctions read in

   number of l-projection  operators is LMAX  =           3
   number of lm-projection operators is LMMAX =           5

 POTCAR:    PAW_PBE O 08Apr2002                   
   SHA256 =  818f92134a0a090dccd8ba1447fa70422a3b330e708bb4f08108d8ae51209ddf O/POTCAR              
   COPYR  = (c) Copyright 08Apr2002 Georg Kresse                                                    
   COPYR  = This file is part of the software VASP. Any use, copying, and all other rights are regul
   COPYR  = If you do not have a valid VASP license, you may not use, copy or distribute this file. 
   VRHFIN =O: s2p4                                                                                  
   LEXCH  = PE                                                                                      
   EATOM  =   432.3788 eV,   31.7789 Ry                                                             
                                                                                                    
   TITEL  = PAW_PBE O 08Apr2002                                                                     
   LULTRA =        F    use ultrasoft PP ?                                                          
   IUNSCR =        1    unscreen: 0-lin 1-nonlin 2-no                                               
   RPACOR =    1.200    partial core radius                                                         
   POMASS =   16.000; ZVAL   =    6.000    mass and valenz                                          
   RCORE  =    1.520    outmost cutoff radius                                                       
   RWIGS  =    1.550; RWIGS  =    0.820    wigner-seitz radius (au A)                               
   ENMAX  =  400.000; ENMIN  =  300.000 eV                                                          
   ICORE  =        2    local potential                                                             
   LCOR   =        T    correct aug charges                                                         
   LPAW   =        T    paw PP                                                                      
   EAUG   =  605.392                                                                                
   DEXC   =    0.000                                                                                
   RMAX   =    1.553    core radius for proj-oper                                                   
   RAUG   =    1.300    factor for augmentation sphere                                              
   RDEP   =    1.550    radius for radial grids                                                     
   RDEPT  =    1.329    core radius for aug-charge                                                  
                                                                                                    
   Atomic configuration                                                                             
    4 entries                                                                                       
     n  l   j            E        occ.                                                              
     1  0  0.50      -514.6923   2.0000                                                             
     2  0  0.50       -23.9615   2.0000                                                             
     2  1  0.50        -9.0305   4.0000                                                             
     3  2  1.50        -9.5241   0.0000                                                             
   Description                                                                                      
     l       E           TYP  RCUT    TYP  RCUT                                                     
     0    -23.9615318     23  1.200                                                                 
     0     -9.5240782     23  1.200                                                                 
     1     -9.0304911     23  1.520                                                                 
     1      8.1634956     23  1.520                                                                 
     2     -9.5240782      7  1.500                                                                 
  local pseudopotential read in
  partial core-charges read in
  partial kinetic energy density read in
  kinetic energy density of atom read in
  atomic valenz-charges read in
  non local Contribution for L=           0  read in
    real space projection operators read in
  non local Contribution for L=           0  read in
    real space projection operators read in
  non local Contribution for L=           1  read in
    real space projection operators read in
  non local Contribution for L=           1  read in
    real space projection operators read in
    PAW grid and wavefunctions read in

   number of l-projection  operators is LMAX  =           4
   number of lm-projection operators is LMMAX =           8

 -----------------------------------------------------------------------------
|                                                                             |
|               ----> ADVICE to this user running VASP <----                  |
|                                                                             |
|     You enforced a specific xc type in the INCAR file but a different       |
|     type was found in the POTCAR file.                                      |
|     I HOPE YOU KNOW WHAT YOU ARE DOING!                                     |
|                                                                             |
 -----------------------------------------------------------------------------

  PAW_PBE H 15Jun2001                   :
 energy of atom  1       EATOM=  -12.4884
 kinetic energy error for atom=    0.0004 (will be added to EATOM!!)
  PAW_PBE O 08Apr2002                   :
 energy of atom  2       EATOM= -432.3788
 kinetic energy error for atom=    0.0168 (will be added to EATOM!!)


 POSCAR:  H  O
  positions in direct lattice
  No initial velocities read in
 exchange correlation table for  LEXCH =       40
   RHO(1)=    0.500       N(1)  =     2000
   RHO(2)=  100.500       N(2)  =     4000



--------------------------------------------------------------------------------------------------------


 ion  position               nearest neighbor table
   1  0.460  0.522  0.519-   3 0.97
   2  0.539  0.483  0.483-   3 0.97
   3  0.480  0.477  0.481-   2 0.97   1 0.97


IMPORTANT INFORMATION: All symmetrisations will be switched off!
NOSYMM: (Re-)initialisation of all symmetry stuff for point group C_1.


----------------------------------------------------------------------------------------

                                     Primitive cell                                     

  volume of cell :    3996.6467

  direct lattice vectors                    reciprocal lattice vectors
    16.338178105  0.000000000  0.000000000     0.061206335  0.000000000  0.000000000
     0.000000000 15.693561663  0.000000000     0.000000000  0.063720398  0.000000000
     0.000000000  0.000000000 15.587289781     0.000000000  0.000000000  0.064154835

  length of vectors
    16.338178105 15.693561663 15.587289781     0.061206335  0.063720398  0.064154835

  position of ions in fractional coordinates (direct lattice)
     0.460447545  0.521865619  0.518588546
     0.539452787  0.482501141  0.482605468
     0.480227994  0.477277389  0.480638394

  ion indices of the primitive-cell ions
   primitive index   ion index
                 1           1
                 2           2
                 3           3

----------------------------------------------------------------------------------------



 KPOINTS: pymatgen v2020.8.13 with grid density = 

Automatic generation of k-mesh.
 Grid dimensions read from file:
 generate k-points for:    3    3    1

 Generating k-lattice:

  Cartesian coordinates                     Fractional coordinates (reciprocal lattice)
     0.020402112  0.000000000  0.000000000     0.333333333  0.000000000  0.000000000
     0.000000000  0.021240133  0.000000000     0.000000000  0.333333333  0.000000000
     0.000000000  0.000000000  0.064154835     0.000000000  0.000000000  1.000000000

  Length of vectors
     0.020402112  0.021240133  0.064154835

  Shift w.r.t. Gamma in fractional coordinates (k-lattice)
     0.000000000  0.000000000  0.000000000

 
 Subroutine IBZKPT returns following result:
 ===========================================
 
 Found      5 irreducible k-points:
 
 Following reciprocal coordinates:
            Coordinates               Weight
  0.000000  0.000000  0.000000      1.000000
  0.333333  0.000000  0.000000      2.000000
  0.000000  0.333333  0.000000      2.000000
  0.333333  0.333333  0.000000      2.000000
 -0.333333  0.333333  0.000000      2.000000
 
 Following cartesian coordinates:
            Coordinates               Weight
  0.000000  0.000000  0.000000      1.000000
  0.020402  0.000000  0.000000      2.000000
  0.000000  0.021240  0.000000      2.000000
  0.020402  0.021240  0.000000      2.000000
 -0.020402  0.021240  0.000000      2.000000
 
 
 Subroutine IBZKPT_HF returns following result:
 ==============================================
 
 Found      9 k-points in 1st BZ
 the following      9 k-points will be used (e.g. in the exchange kernel)
 Following reciprocal coordinates:   # in IRBZ
  0.000000  0.000000  0.000000    0.11111111   1 t-inv F
  0.333333  0.000000  0.000000    0.11111111   2 t-inv F
  0.000000  0.333333  0.000000    0.11111111   3 t-inv F
  0.333333  0.333333  0.000000    0.11111111   4 t-inv F
 -0.333333  0.333333  0.000000    0.11111111   5 t-inv F
 -0.333333 -0.000000 -0.000000    0.11111111   2 t-inv T
 -0.000000 -0.333333 -0.000000    0.11111111   3 t-inv T
 -0.333333 -0.333333 -0.000000    0.11111111   4 t-inv T
  0.333333 -0.333333 -0.000000    0.11111111   5 t-inv T


--------------------------------------------------------------------------------------------------------




 Dimension of arrays:
   k-points           NKPTS =      5   k-points in BZ     NKDIM =      5   number of bands    NBANDS=     96
   number of dos      NEDOS =    301   number of ions     NIONS =      3
   non local maximal  LDIM  =      4   non local SUM 2l+1 LMDIM =      8
   total plane-waves  NPLWV = ******
   max r-space proj   IRMAX =      1   max aug-charges    IRDMAX=   7414
   dimension x,y,z NGX =   140 NGY =  126 NGZ =  126
   dimension x,y,z NGXF=   280 NGYF=  252 NGZF=  252
   support grid    NGXF=   280 NGYF=  252 NGZF=  252
   ions per type =               2   1
   NGX,Y,Z   is equivalent  to a cutoff of  14.25, 13.35, 13.44 a.u.
   NGXF,Y,Z  is equivalent  to a cutoff of  28.49, 26.70, 26.88 a.u.

 SYSTEM =  MgO-rocksalt                            
 POSCAR =   H  O                                   

--------------------------------------------------------------------------------------------------------


  energy-cutoff  :      600.00
  volume of cell :     3996.65
      direct lattice vectors                 reciprocal lattice vectors
    16.338178105  0.000000000  0.000000000     0.061206335  0.000000000  0.000000000
     0.000000000 15.693561663  0.000000000     0.000000000  0.063720398  0.000000000
     0.000000000  0.000000000 15.587289781     0.000000000  0.000000000  0.064154835

  length of vectors
    16.338178105 15.693561663 15.587289781     0.061206335  0.063720398  0.064154835



 k-points in units of 2pi/SCALE and weight: pymatgen v2020.8.13 with grid density = 
   0.00000000  0.00000000  0.00000000       0.111
   0.02040211  0.00000000  0.00000000       0.222
   0.00000000  0.02124013  0.00000000       0.222
   0.02040211  0.02124013  0.00000000       0.222
  -0.02040211  0.02124013  0.00000000       0.222

 k-points in reciprocal lattice and weights: pymatgen v2020.8.13 with grid density = 
   0.00000000  0.00000000  0.00000000       0.111
   0.33333333  0.00000000  0.00000000       0.222
   0.00000000  0.33333333  0.00000000       0.222
   0.33333333  0.33333333  0.00000000       0.222
  -0.33333333  0.33333333  0.00000000       0.222

 position of ions in fractional coordinates (direct lattice) 
   0.46044755  0.52186562  0.51858855
   0.53945279  0.48250114  0.48260547
   0.48022799  0.47727739  0.48063839

 position of ions in cartesian coordinates  (Angst):
   7.52287400  8.18993027  8.08338994
   8.81367572  7.57216140  7.52251128
   7.84605050  7.49018214  7.49184992



--------------------------------------------------------------------------------------------------------

--------------------------------------- Iteration      FINAL  ---------------------------------------


--------------------OUTCAR has been truncated-------------------------


--------------------OUTCAR has been truncated-------------------------


--------------------OUTCAR has been truncated-------------------------


--------------------OUTCAR has been truncated-------------------------


--------------------OUTCAR has been truncated-------------------------


--------------------OUTCAR has been truncated-------------------------


--------------------OUTCAR has been truncated-------------------------


--------------------OUTCAR has been truncated-------------------------


--------------------OUTCAR has been truncated-------------------------


--------------------OUTCAR has been truncated-------------------------


  FORCE on cell =-STRESS in cart. coord.  units (eV):
  Direction    XX          YY          ZZ          XY          YZ          ZX
  --------------------------------------------------------------------------------------
  Alpha Z     0.05611     0.05611     0.05611
  Ewald      74.58203    20.91318     8.90236   -16.56560    40.52912   -17.10263
  Hartree   171.44294   164.65859   162.90293    -2.89193     7.39414    -3.00074
  E(xc)     -36.96294   -37.35597   -37.44629    -0.10827     0.28997    -0.11329
  Local    -323.50314  -279.92218  -269.98242    14.84623   -35.63001    15.27608
  n-local   -30.40713   -30.80228   -30.82278    -0.29702     0.11559    -0.26688
  augment     6.21216     7.33061     7.59496     0.29795    -0.84429     0.31463
  Kinetic   138.49258   154.91479   158.62921     4.76966   -11.98278     4.93688
  Fock        0.00000     0.00000     0.00000     0.00000     0.00000     0.00000
  -------------------------------------------------------------------------------------
  Total      -0.08739    -0.20715    -0.16592     0.05101    -0.12826     0.04406
  in kB      -0.03503    -0.08304    -0.06651     0.02045    -0.05142     0.01766
  external pressure =       -0.06 kB  Pullay stress =        0.00 kB


 VOLUME and BASIS-vectors are now :
 -----------------------------------------------------------------------------
  energy-cutoff  :      600.00
  volume of cell :     3996.65
      direct lattice vectors                 reciprocal lattice vectors
    16.338178105  0.000000000  0.000000000     0.061206335  0.000000000  0.000000000
     0.000000000 15.693561663  0.000000000     0.000000000  0.063720398  0.000000000
     0.000000000  0.000000000 15.587289781     0.000000000  0.000000000  0.064154835

  length of vectors
    16.338178105 15.693561663 15.587289781     0.061206335  0.063720398  0.064154835


 FORCES acting on ions:
    Electron-Ion                     Ewald-Force                    Non-Local-Force
 -----------------------------------------------------------------------------------------------
   0.320E+02 -.615E+02 -.529E+02   -.350E+02 0.671E+02 0.578E+02   0.299E+01 -.581E+01 -.500E+01
   -.877E+02 -.480E+01 -.146E+01   0.961E+02 0.527E+01 0.161E+01   -.838E+01 -.485E+00 -.162E+00
   0.343E+02 0.406E+02 0.333E+02   -.611E+02 -.723E+02 -.594E+02   0.268E+02 0.320E+02 0.263E+02
 -----------------------------------------------------------------------------------------------
   -.214E+02 -.257E+02 -.211E+02   0.711E-14 0.000E+00 -.711E-14   0.214E+02 0.257E+02 0.211E+02


 POSITION                                       TOTAL-FORCE (eV/Angst)
 -----------------------------------------------------------------------------------
      7.52287      8.18993      8.08339         0.069041     -0.205240     -0.175387
      8.81368      7.57216      7.52251         0.003075     -0.018492     -0.015589
      7.84605      7.49018      7.48185        -0.072116      0.223732      0.190976
 -----------------------------------------------------------------------------------
    total drift:                                0.000010      0.000600     -0.000072


--------------------------------------------------------------------------------------------------------



  FREE ENERGIE OF THE ION-ELECTRON SYSTEM (eV)
  ---------------------------------------------------
  free  energy   TOTEN  =       -12.20337297 eV

  energy  without entropy=      -12.20337297  energy(sigma->0) =      -12.20337297

 d Force = 0.5324674E-04[-0.382E-02, 0.393E-02]  d Energy = 0.3883476E-04 0.144E-04
 d Force = 0.1170768E+01[ 0.119E+01, 0.115E+01]  d Ewald  = 0.1170922E+01-0.154E-03


--------------------------------------------------------------------------------------------------------


    POTLOK:  cpu time      0.9588: real time      0.9608


--------------------------------------------------------------------------------------------------------


 Finite differences progress:
  Degree of freedom:   9/  9
  Displacement:        2/  2
  Total:              18/ 18

 SECOND DERIVATIVES (NOT SYMMETRIZED)
 ------------------------------------
               1X          1Y          1Z          2X          2Y          2Z          3X          3Y          3Z 
  1X   -10.519346   11.502066    9.924380    1.819541   -3.613504   -3.061017    8.699805   -7.888562   -6.863363
  1Y    11.511178  -24.947879  -21.105110    0.902669    0.061932    0.016924  -12.413847   24.885947   21.088186
  1Z     9.930415  -21.101680  -17.832370    0.680618    0.187200    0.135550  -10.611033   20.914480   17.696820
  2X     1.819159    0.904286    0.677970  -48.725279   -2.511842   -0.206246   46.906120    1.607555   -0.471724
  2Y    -3.612492    0.059514    0.189862   -2.507487   -2.801475   -2.224670    6.119979    2.741961    2.034808
  2Z    -3.058725    0.015954    0.130799   -0.204398   -2.225636   -1.833110    3.263124    2.209682    1.702311
  3X     8.691279  -12.403807  -10.601940   46.896441    6.127968    3.267945  -55.587720    6.275839    7.333995
  3Y    -7.893442   24.888094   20.911562    1.598453    2.741270    2.207076    6.294988  -27.629364  -23.118638
  3Z    -6.864351   21.077593   17.680774   -0.468082    2.034499    1.683051    7.332434  -23.112092  -19.363825


 Eigenvectors and eigenvalues of the dynamical matrix
 ----------------------------------------------------


   1 f  =  114.074552 THz   716.751548 2PiTHz 3805.117466 cm-1   471.774226 meV
             X         Y         Z           dx          dy          dz
      7.522874  8.189930  8.083390    -0.224343    0.486601    0.411373  
      8.813676  7.572161  7.522511    -0.683646   -0.057600   -0.021447  
      7.846050  7.490182  7.491850     0.226972   -0.107254   -0.097431  

   2 f  =  110.846003 THz   696.465977 2PiTHz 3697.424667 cm-1   458.422027 meV
             X         Y         Z           dx          dy          dz
      7.522874  8.189930  8.083390     0.280634   -0.488166   -0.414789  
      8.813676  7.572161  7.522511    -0.688350   -0.018430    0.011227  
      7.846050  7.490182  7.491850     0.101922    0.126630    0.100866  

   3 f  =   48.376933 THz   303.961236 2PiTHz 1613.680795 cm-1   200.070830 meV
             X         Y         Z           dx          dy          dz
      7.522874  8.189930  8.083390     0.636665    0.195819    0.137577  
      8.813676  7.572161  7.522511    -0.044955    0.522140    0.433885  
      7.846050  7.490182  7.491850    -0.147883   -0.179536   -0.142738  

   4 f  =    0.510913 THz     3.210159 2PiTHz   17.042211 cm-1     2.112964 meV
             X         Y         Z           dx          dy          dz
      7.522874  8.189930  8.083390    -0.297681   -0.020678    0.099374  
      8.813676  7.572161  7.522511    -0.056037   -0.017894    0.652176  
      7.846050  7.490182  7.491850    -0.183007    0.179978    0.637499  

   5 f  =    0.174357 THz     1.095517 2PiTHz    5.815922 cm-1     0.721082 meV
             X         Y         Z           dx          dy          dz
      7.522874  8.189930  8.083390    -0.287009   -0.027764   -0.098071  
      8.813676  7.572161  7.522511    -0.227606    0.103713   -0.106093  
      7.846050  7.490182  7.491850    -0.872048   -0.104762   -0.248954  

   6 f/i=    0.001408 THz     0.008846 2PiTHz    0.046960 cm-1     0.005822 meV
             X         Y         Z           dx          dy          dz
      7.522874  8.189930  8.083390     0.004906   -0.229309    0.047407  
      8.813676  7.572161  7.522511     0.005131   -0.232053    0.050754  
      7.846050  7.490182  7.491850     0.020173   -0.921978    0.195562  

   7 f/i=    0.671299 THz     4.217897 2PiTHz   22.392127 cm-1     2.776269 meV
             X         Y         Z           dx          dy          dz
      7.522874  8.189930  8.083390     0.185337   -0.041372    0.331012  
      8.813676  7.572161  7.522511    -0.040870    0.331073   -0.599718  
      7.846050  7.490182  7.491850    -0.149438    0.035693    0.599852  

   8 f/i=    1.092493 THz     6.864337 2PiTHz   36.441647 cm-1     4.518186 meV
             X         Y         Z           dx          dy          dz
      7.522874  8.189930  8.083390     0.509677    0.202221    0.148277  
      8.813676  7.572161  7.522511    -0.011825   -0.739575   -0.014326  
      7.846050  7.490182  7.491850    -0.315456    0.155371    0.079876  

   9 f/i=    2.074503 THz    13.034486 2PiTHz   69.197969 cm-1     8.579451 meV
             X         Y         Z           dx          dy          dz
      7.522874  8.189930  8.083390     0.020958    0.624646   -0.697496  
      8.813676  7.572161  7.522511    -0.000263    0.046969   -0.110115  
      7.846050  7.490182  7.491850     0.004015   -0.146298    0.295174  

 Finite differences POTIM=   1.0000000000000000E-002
     LOOP+:  cpu time     46.0212: real time     46.2211
    4ORBIT:  cpu time      0.0000: real time      0.0000

 total amount of memory used by VASP MPI-rank0    71104. kBytes
=======================================================================

   base      :      30000. kBytes
   nonl-proj :      11492. kBytes
   fftplans  :      10534. kBytes
   grid      :      15043. kBytes
   one-center:          3. kBytes
   wavefun   :       4032. kBytes

  
  
 General timing and accounting informations for this job:
 ========================================================
  
                  Total CPU time used (sec):      983.704
                            User time (sec):      974.608
                          System time (sec):        9.096
                         Elapsed time (sec):      995.072
  
                   Maximum memory used (kb):      400208.
                   Average memory used (kb):          N/A
  
                          Minor page faults:        92640
                          Major page faults:         8118
                 Voluntary context switches:        38918
