 vasp.6.3.0 20Jan22 (build Mar 11 2022 13:48:16) complex                        
  
 executed on             LinuxIFC date 2024.01.22  16:07:23
 running on  304 total cores
 distrk:  each k-point on  304 cores,    1 groups
 distr:  one band on NCORE=   2 cores,  152 groups


--------------------------------------------------------------------------------------------------------


 INCAR:
   SYSTEM = TiO2
   ISMEAR = 0
   SIGMA = 0.05
   EDIFF = 1E-5
   ALGO = ALL
   ISTART = 0
   IBRION = -1
   NSW = 0
   ISYM = 0
   ISIF = 2
   EDIFFG = -0.01
   DIPOL = 0.5 0.5 0.5
   IDIPOL = 3
   LDIPOL = .TRUE.
   GGA = RE
   IVDW = 13
   VDW_S8 = 1.7468
   VDW_A1 = 0.5363
   VDW_A2 = 3.0726
   ENCUT = 600
   PREC = Accurate
   LASPH = .TRUE.
   LREAL = .FALSE.
   ISPIN = 1
   NELM = 200
   NELMIN = 8
   NCORE = 2
   KPAR = 1
   LWAVE = .FALSE.
   LCHARG = .FALSE.

 POTCAR:    PAW_PBE C 08Apr2002                   
 POTCAR:    PAW_PBE O 08Apr2002                   
 POTCAR:    PAW_PBE Ti_pv 07Sep2000               
 POTCAR:    PAW_PBE O 08Apr2002                   
 -----------------------------------------------------------------------------
|                                                                             |
|           W    W    AA    RRRRR   N    N  II  N    N   GGGG   !!!           |
|           W    W   A  A   R    R  NN   N  II  NN   N  G    G  !!!           |
|           W    W  A    A  R    R  N N  N  II  N N  N  G       !!!           |
|           W WW W  AAAAAA  RRRRR   N  N N  II  N  N N  G  GGG   !            |
|           WW  WW  A    A  R   R   N   NN  II  N   NN  G    G                |
|           W    W  A    A  R    R  N    N  II  N    N   GGGG   !!!           |
|                                                                             |
|     For optimal performance we recommend to set                             |
|       NCORE = 2 up to number-of-cores-per-socket                            |
|     NCORE specifies how many cores store one orbital (NPAR=cpu/NCORE).      |
|     This setting can greatly improve the performance of VASP for DFT.       |
|     The default, NCORE=1 might be grossly inefficient on modern             |
|     multi-core architectures or massively parallel machines. Do your        |
|     own testing! More info at https://www.vasp.at/wiki/index.php/NCORE      |
|     Unfortunately you need to use the default for GW and RPA                |
|     calculations (for HF NCORE is supported but not extensively tested      |
|     yet).                                                                   |
|                                                                             |
 -----------------------------------------------------------------------------

 POTCAR:    PAW_PBE C 08Apr2002                   
   SHA256 =  253f7b50bb8d59471dbedb8285d89021f4a42ed1a2c5d38a03a736e69125dd95 C/POTCAR              
   COPYR  = (c) Copyright 08Apr2002 Georg Kresse                                                    
   COPYR  = This file is part of the software VASP. Any use, copying, and all other rights are regul
   COPYR  = If you do not have a valid VASP license, you may not use, copy or distribute this file. 
   VRHFIN =C: s2p2                                                                                  
   LEXCH  = PE                                                                                      
   EATOM  =   147.1560 eV,   10.8157 Ry                                                             
                                                                                                    
   TITEL  = PAW_PBE C 08Apr2002                                                                     
   LULTRA =        F    use ultrasoft PP ?                                                          
   IUNSCR =        1    unscreen: 0-lin 1-nonlin 2-no                                               
   RPACOR =    1.200    partial core radius                                                         
   POMASS =   12.011; ZVAL   =    4.000    mass and valenz                                          
   RCORE  =    1.500    outmost cutoff radius                                                       
   RWIGS  =    1.630; RWIGS  =    0.863    wigner-seitz radius (au A)                               
   ENMAX  =  400.000; ENMIN  =  300.000 eV                                                          
   ICORE  =        2    local potential                                                             
   LCOR   =        T    correct aug charges                                                         
   LPAW   =        T    paw PP                                                                      
   EAUG   =  644.873                                                                                
   DEXC   =    0.000                                                                                
   RMAX   =    1.529    core radius for proj-oper                                                   
   RAUG   =    1.300    factor for augmentation sphere                                              
   RDEP   =    1.501    radius for radial grids                                                     
   RDEPT  =    1.300    core radius for aug-charge                                                  
                                                                                                    
   Atomic configuration                                                                             
    4 entries                                                                                       
     n  l   j            E        occ.                                                              
     1  0  0.50      -273.3789   2.0000                                                             
     2  0  0.50       -13.7508   2.0000                                                             
     2  1  0.50        -5.2854   2.0000                                                             
     3  2  1.50        -5.4423   0.0000                                                             
   Description                                                                                      
     l       E           TYP  RCUT    TYP  RCUT                                                     
     0    -13.7508458     23  1.200                                                                 
     0     -8.2022199     23  1.200                                                                 
     1     -5.2854383     23  1.500                                                                 
     1     34.0145650     23  1.500                                                                 
     2     -5.4423304      7  1.500                                                                 
  local pseudopotential read in
  partial core-charges read in
  partial kinetic energy density read in
  atomic valenz-charges read in
  non local Contribution for L=           0  read in
    real space projection operators read in
  non local Contribution for L=           0  read in
    real space projection operators read in
  non local Contribution for L=           1  read in
    real space projection operators read in
  non local Contribution for L=           1  read in
    real space projection operators read in
    PAW grid and wavefunctions read in
 
   number of l-projection  operators is LMAX  =           4
   number of lm-projection operators is LMMAX =           8
 
 POTCAR:    PAW_PBE O 08Apr2002                   
   SHA256 =  818f92134a0a090dccd8ba1447fa70422a3b330e708bb4f08108d8ae51209ddf O/POTCAR              
   COPYR  = (c) Copyright 08Apr2002 Georg Kresse                                                    
   COPYR  = This file is part of the software VASP. Any use, copying, and all other rights are regul
   COPYR  = If you do not have a valid VASP license, you may not use, copy or distribute this file. 
   VRHFIN =O: s2p4                                                                                  
   LEXCH  = PE                                                                                      
   EATOM  =   432.3788 eV,   31.7789 Ry                                                             
                                                                                                    
   TITEL  = PAW_PBE O 08Apr2002                                                                     
   LULTRA =        F    use ultrasoft PP ?                                                          
   IUNSCR =        1    unscreen: 0-lin 1-nonlin 2-no                                               
   RPACOR =    1.200    partial core radius                                                         
   POMASS =   16.000; ZVAL   =    6.000    mass and valenz                                          
   RCORE  =    1.520    outmost cutoff radius                                                       
   RWIGS  =    1.550; RWIGS  =    0.820    wigner-seitz radius (au A)                               
   ENMAX  =  400.000; ENMIN  =  300.000 eV                                                          
   ICORE  =        2    local potential                                                             
   LCOR   =        T    correct aug charges                                                         
   LPAW   =        T    paw PP                                                                      
   EAUG   =  605.392                                                                                
   DEXC   =    0.000                                                                                
   RMAX   =    1.553    core radius for proj-oper                                                   
   RAUG   =    1.300    factor for augmentation sphere                                              
   RDEP   =    1.550    radius for radial grids                                                     
   RDEPT  =    1.329    core radius for aug-charge                                                  
                                                                                                    
   Atomic configuration                                                                             
    4 entries                                                                                       
     n  l   j            E        occ.                                                              
     1  0  0.50      -514.6923   2.0000                                                             
     2  0  0.50       -23.9615   2.0000                                                             
     2  1  0.50        -9.0305   4.0000                                                             
     3  2  1.50        -9.5241   0.0000                                                             
   Description                                                                                      
     l       E           TYP  RCUT    TYP  RCUT                                                     
     0    -23.9615318     23  1.200                                                                 
     0     -9.5240782     23  1.200                                                                 
     1     -9.0304911     23  1.520                                                                 
     1      8.1634956     23  1.520                                                                 
     2     -9.5240782      7  1.500                                                                 
  local pseudopotential read in
  partial core-charges read in
  partial kinetic energy density read in
  kinetic energy density of atom read in
  atomic valenz-charges read in
  non local Contribution for L=           0  read in
    real space projection operators read in
  non local Contribution for L=           0  read in
    real space projection operators read in
  non local Contribution for L=           1  read in
    real space projection operators read in
  non local Contribution for L=           1  read in
    real space projection operators read in
    PAW grid and wavefunctions read in
 
   number of l-projection  operators is LMAX  =           4
   number of lm-projection operators is LMMAX =           8
 
 POTCAR:    PAW_PBE Ti_pv 07Sep2000               
   SHA256 =  f757a1b2c6d082f4c628fa3d987464a8763bf92e53844ac0500b0e2ddc9ce5c0 Ti_pv/POTCAR          
   COPYR  = (c) Copyright 07Sep2000 Georg Kresse                                                    
   COPYR  = This file is part of the software VASP. Any use, copying, and all other rights are regul
   COPYR  = If you do not have a valid VASP license, you may not use, copy or distribute this file. 
   VRHFIN =Ti: d3 s1                                                                                
   LEXCH  = PE                                                                                      
   EATOM  =  1042.5995 eV,   76.6289 Ry                                                             
                                                                                                    
   TITEL  = PAW_PBE Ti_pv 07Sep2000                                                                 
   LULTRA =        F    use ultrasoft PP ?                                                          
   IUNSCR =        1    unscreen: 0-lin 1-nonlin 2-no                                               
   RPACOR =    2.200    partial core radius                                                         
   POMASS =   47.880; ZVAL   =   10.000    mass and valenz                                          
   RCORE  =    2.500    outmost cutoff radius                                                       
   RWIGS  =    2.500; RWIGS  =    1.323    wigner-seitz radius (au A)                               
   ENMAX  =  222.335; ENMIN  =  166.751 eV                                                          
   RCLOC  =    1.701    cutoff for local pot                                                        
   LCOR   =        T    correct aug charges                                                         
   LPAW   =        T    paw PP                                                                      
   EAUG   =  482.848                                                                                
   DEXC   =    0.000                                                                                
   RMAX   =    2.564    core radius for proj-oper                                                   
   RAUG   =    1.300    factor for augmentation sphere                                              
   RDEP   =    2.538    radius for radial grids                                                     
   RDEPT  =    1.952    core radius for aug-charge                                                  
                                                                                                    
   Atomic configuration                                                                             
    8 entries                                                                                       
     n  l   j            E        occ.                                                              
     1  0  0.50     -4865.3608   2.0000                                                             
     2  0  0.50      -533.1368   2.0000                                                             
     2  1  1.50      -440.5031   6.0000                                                             
     3  0  0.50       -59.3186   2.0000                                                             
     3  1  1.50       -35.7012   6.0000                                                             
     3  2  2.50        -1.9157   3.0000                                                             
     4  0  0.50        -3.7291   1.0000                                                             
     4  3  2.50        -1.3606   0.0000                                                             
   Description                                                                                      
     l       E           TYP  RCUT    TYP  RCUT                                                     
     1    -35.7012140     23  2.300                                                                 
     1     -1.3605826     23  2.300                                                                 
     2     -1.9156996     23  2.500                                                                 
     2     -0.4063033     23  2.500                                                                 
     0     -3.7290856     23  2.500                                                                 
     0     20.4087390     23  2.500                                                                 
  local pseudopotential read in
  partial core-charges read in
  partial kinetic energy density read in
  atomic valenz-charges read in
  non local Contribution for L=           1  read in
    real space projection operators read in
  non local Contribution for L=           1  read in
    real space projection operators read in
  non local Contribution for L=           2  read in
    real space projection operators read in
  non local Contribution for L=           2  read in
    real space projection operators read in
  non local Contribution for L=           0  read in
    real space projection operators read in
  non local Contribution for L=           0  read in
    real space projection operators read in
    PAW grid and wavefunctions read in
 
   number of l-projection  operators is LMAX  =           6
   number of lm-projection operators is LMMAX =          18
 
 POTCAR:    PAW_PBE O 08Apr2002                   
   SHA256 =  818f92134a0a090dccd8ba1447fa70422a3b330e708bb4f08108d8ae51209ddf O/POTCAR              
   COPYR  = (c) Copyright 08Apr2002 Georg Kresse                                                    
   COPYR  = This file is part of the software VASP. Any use, copying, and all other rights are regul
   COPYR  = If you do not have a valid VASP license, you may not use, copy or distribute this file. 
   VRHFIN =O: s2p4                                                                                  
   LEXCH  = PE                                                                                      
   EATOM  =   432.3788 eV,   31.7789 Ry                                                             
                                                                                                    
   TITEL  = PAW_PBE O 08Apr2002                                                                     
   LULTRA =        F    use ultrasoft PP ?                                                          
   IUNSCR =        1    unscreen: 0-lin 1-nonlin 2-no                                               
   RPACOR =    1.200    partial core radius                                                         
   POMASS =   16.000; ZVAL   =    6.000    mass and valenz                                          
   RCORE  =    1.520    outmost cutoff radius                                                       
   RWIGS  =    1.550; RWIGS  =    0.820    wigner-seitz radius (au A)                               
   ENMAX  =  400.000; ENMIN  =  300.000 eV                                                          
   ICORE  =        2    local potential                                                             
   LCOR   =        T    correct aug charges                                                         
   LPAW   =        T    paw PP                                                                      
   EAUG   =  605.392                                                                                
   DEXC   =    0.000                                                                                
   RMAX   =    1.553    core radius for proj-oper                                                   
   RAUG   =    1.300    factor for augmentation sphere                                              
   RDEP   =    1.550    radius for radial grids                                                     
   RDEPT  =    1.329    core radius for aug-charge                                                  
                                                                                                    
   Atomic configuration                                                                             
    4 entries                                                                                       
     n  l   j            E        occ.                                                              
     1  0  0.50      -514.6923   2.0000                                                             
     2  0  0.50       -23.9615   2.0000                                                             
     2  1  0.50        -9.0305   4.0000                                                             
     3  2  1.50        -9.5241   0.0000                                                             
   Description                                                                                      
     l       E           TYP  RCUT    TYP  RCUT                                                     
     0    -23.9615318     23  1.200                                                                 
     0     -9.5240782     23  1.200                                                                 
     1     -9.0304911     23  1.520                                                                 
     1      8.1634956     23  1.520                                                                 
     2     -9.5240782      7  1.500                                                                 
  local pseudopotential read in
  partial core-charges read in
  partial kinetic energy density read in
  kinetic energy density of atom read in
  atomic valenz-charges read in
  non local Contribution for L=           0  read in
    real space projection operators read in
  non local Contribution for L=           0  read in
    real space projection operators read in
  non local Contribution for L=           1  read in
    real space projection operators read in
  non local Contribution for L=           1  read in
    real space projection operators read in
    PAW grid and wavefunctions read in
 
   number of l-projection  operators is LMAX  =           4
   number of lm-projection operators is LMMAX =           8
 
 -----------------------------------------------------------------------------
|                                                                             |
|               ----> ADVICE to this user running VASP <----                  |
|                                                                             |
|     You have a (more or less) 'large supercell' and for larger cells it     |
|     might be more efficient to use real-space projection operators.         |
|     Therefore, try LREAL= Auto in the INCAR file.                           |
|     Mind: For very accurate calculation, you might also keep the            |
|     reciprocal projection scheme (i.e. LREAL=.FALSE.).                      |
|                                                                             |
 -----------------------------------------------------------------------------

 -----------------------------------------------------------------------------
|                                                                             |
|               ----> ADVICE to this user running VASP <----                  |
|                                                                             |
|     You enforced a specific xc type in the INCAR file but a different       |
|     type was found in the POTCAR file.                                      |
|     I HOPE YOU KNOW WHAT YOU ARE DOING!                                     |
|                                                                             |
 -----------------------------------------------------------------------------

  PAW_PBE C 08Apr2002                   :
 energy of atom  1       EATOM= -147.1560
 kinetic energy error for atom=    0.0057 (will be added to EATOM!!)
  PAW_PBE O 08Apr2002                   :
 energy of atom  2       EATOM= -432.3788
 kinetic energy error for atom=    0.0168 (will be added to EATOM!!)
  PAW_PBE Ti_pv 07Sep2000               :
 energy of atom  3       EATOM=-1042.5995
 kinetic energy error for atom=    0.0007 (will be added to EATOM!!)
  PAW_PBE O 08Apr2002                   :
 energy of atom  4       EATOM= -432.3788
 kinetic energy error for atom=    0.0168 (will be added to EATOM!!)
 
 
 POSCAR:  C  O Ti  O
  positions in direct lattice
  No initial velocities read in
 -----------------------------------------------------------------------------
|                                                                             |
|           W    W    AA    RRRRR   N    N  II  N    N   GGGG   !!!           |
|           W    W   A  A   R    R  NN   N  II  NN   N  G    G  !!!           |
|           W    W  A    A  R    R  N N  N  II  N N  N  G       !!!           |
|           W WW W  AAAAAA  RRRRR   N  N N  II  N  N N  G  GGG   !            |
|           WW  WW  A    A  R   R   N   NN  II  N   NN  G    G                |
|           W    W  A    A  R    R  N    N  II  N    N   GGGG   !!!           |
|                                                                             |
|     Specifying the vdW parameters                                           |
|     VDW_S8 = 1.747                                                          |
|     VDW_A1 = 0.536                                                          |
|     VDW_A2 = 3.073                                                          |
|     in the INCAR file will overwrite the defaults for revpbe. Please        |
|     make sure that is what you intended.                                    |
|                                                                             |
 -----------------------------------------------------------------------------

 exchange correlation table for  LEXCH =       40
   RHO(1)=    0.500       N(1)  =     2000
   RHO(2)=  100.500       N(2)  =     4000
 


--------------------------------------------------------------------------------------------------------


 ion  position               nearest neighbor table
   1  0.500  0.606  0.835-   2 1.16   3 1.17
   2  0.500  0.702  0.844-   1 1.16
   3  0.500  0.510  0.824-   1 1.17  83 2.54
   4  0.750  0.625  0.264-  85 1.94 145 1.94 144 1.94  84 1.94 166 1.97  87 1.97  14 2.94  34 2.94

   5  0.000  0.750  0.264-  87 1.94 107 1.94 106 1.94  86 1.94  88 1.97  35 2.94  15 2.94
   6  0.000  0.625  0.382-  89 1.94 149 1.94 148 1.94  88 1.94  90 1.97  91 1.97  16 2.94  36 2.94

   7  0.750  0.750  0.382- 171 1.94 191 1.94  90 1.94 110 1.94  92 1.97  85 1.97  17 2.94  37 2.94

   8  0.750  0.625  0.500-  92 1.94  93 1.94 152 1.94 153 1.94  95 1.97 174 1.97  18 2.94  38 2.94

   9  0.000  0.750  0.500-  94 1.94  95 1.94 114 1.94 115 1.94  89 1.97  96 1.98  19 2.94  39 2.94

  10  0.000  0.625  0.615-  96 1.89 156 1.89  99 1.94  98 1.94  97 1.99 157 1.99  20 2.94  40 2.94

  11  0.750  0.750  0.622- 100 1.87 199 1.96 179 1.96  98 1.96 118 1.96  93 2.08  21 2.94  41 2.94

  12  0.750  0.625  0.743- 101 1.83 161 1.83 103 2.02 182 2.02 100 2.07 160 2.07  22 2.94  42 2.94

  13  1.000  0.750  0.731-  97 1.82 122 1.93 123 1.93 102 1.93 103 1.93  23 2.94  43 2.94
  14  0.750  0.875  0.264-  85 1.94 105 1.94 104 1.94  84 1.94 186 1.97 107 1.97   4 2.94  24 2.94

  15  0.000  0.000  0.264- 107 1.94 127 1.94 126 1.94 106 1.94 108 1.97  25 2.94   5 2.94
  16  0.000  0.875  0.382-  89 1.94 109 1.94 108 1.94  88 1.94 110 1.97 111 1.97   6 2.94  26 2.94

  17  0.750  0.000  0.382- 191 1.94 211 1.94 110 1.94 130 1.94 112 1.97 105 1.97   7 2.94  27 2.94

  18  0.750  0.875  0.500-  92 1.94  93 1.94 112 1.94 113 1.94 115 1.97 194 1.97   8 2.94  28 2.94

  19  0.000  0.000  0.500- 114 1.94 115 1.94 134 1.94 135 1.94 109 1.97 116 1.98   9 2.94  29 2.94

  20  0.000  0.875  0.616-  96 1.89 116 1.89 119 1.94 118 1.94 117 1.99  97 1.99  30 2.94  10 2.94

  21  0.750  0.000  0.622- 120 1.86 219 1.96 199 1.96 138 1.96 118 1.96 113 2.08  31 2.94  11 2.94

  22  0.750  0.875  0.743- 121 1.83 101 1.83 202 2.02 123 2.02 120 2.07 100 2.07  12 2.94  32 2.94

  23  1.000  0.000  0.731- 117 1.82 142 1.93 143 1.93 123 1.93 122 1.93  13 2.94  33 2.94
  24  0.750  0.125  0.264- 105 1.94 125 1.94 124 1.94 104 1.94 206 1.97 127 1.97  14 2.94  34 2.94

  25  0.000  0.250  0.264- 127 1.94 147 1.94 146 1.94 126 1.94 128 1.97  35 2.94  15 2.94
  26  0.000  0.125  0.382- 109 1.94 129 1.94 128 1.94 108 1.94 130 1.97 131 1.97  16 2.94  36 2.94

  27  0.750  0.250  0.382- 211 1.94 231 1.94 130 1.94 150 1.94 132 1.97 125 1.97  17 2.94  37 2.94

  28  0.750  0.125  0.500- 112 1.94 113 1.94 132 1.94 133 1.94 135 1.97 214 1.97  18 2.94  38 2.94

  29  0.000  0.250  0.500- 134 1.94 135 1.94 154 1.94 155 1.94 129 1.97 136 1.98  19 2.94  39 2.94

  30  0.000  0.125  0.616- 136 1.89 116 1.89 139 1.94 138 1.94 117 1.99 137 2.00  20 2.94  40 2.94

  31  0.750  0.250  0.622- 140 1.86 239 1.96 219 1.96 158 1.96 138 1.96 133 2.08  21 2.94  41 2.94

  32  0.750  0.125  0.743- 121 1.83 141 1.83 222 2.02 143 2.02 140 2.07 120 2.07  22 2.94  42 2.94

  33  1.000  0.250  0.731- 137 1.82 143 1.93 142 1.93 162 1.93 163 1.93  23 2.94  43 2.94
  34  0.750  0.375  0.264- 125 1.94 145 1.94 144 1.94 124 1.94 226 1.97 147 1.97   4 2.94  24 2.94

  35  0.000  0.500  0.264-  87 1.94 147 1.94 146 1.94  86 1.94 148 1.97  25 2.94   5 2.94
  36  0.000  0.375  0.382- 129 1.94 149 1.94 148 1.94 128 1.94 150 1.97 151 1.97   6 2.94  26 2.94

  37  0.750  0.500  0.382- 171 1.94 231 1.94  90 1.94 150 1.94 145 1.97 152 1.97   7 2.94  27 2.94

  38  0.750  0.375  0.500- 132 1.94 133 1.94 152 1.94 153 1.94 155 1.97 234 1.97   8 2.94  28 2.94

  39  0.000  0.500  0.500-  94 1.94  95 1.94 154 1.94 155 1.94 149 1.97 156 1.98   9 2.94  29 2.94

  40  1.000  0.375  0.615- 156 1.89 136 1.89 159 1.94 158 1.94 137 1.99 157 1.99  30 2.94  10 2.94

  41  0.750  0.500  0.622- 160 1.86 179 1.96 239 1.96 158 1.96  98 1.96 153 2.08  31 2.94  11 2.94

  42  0.750  0.375  0.743- 141 1.83 161 1.83 242 2.02 163 2.02 160 2.07 140 2.07  32 2.94  12 2.94

  43  1.000  0.500  0.731- 157 1.82 102 1.93 103 1.93 162 1.93 163 1.93  13 2.94  33 2.94
  44  0.250  0.625  0.264- 165 1.94 225 1.94 224 1.94 164 1.94  86 1.97 167 1.97  54 2.94  74 2.94

  45  0.500  0.750  0.264- 167 1.94 187 1.94 186 1.94 166 1.94 168 1.97  75 2.94  55 2.94
  46  0.500  0.625  0.382- 169 1.94 229 1.94 228 1.94 168 1.94 170 1.97 171 1.97  56 2.94  76 2.94

  47  0.250  0.750  0.382-  91 1.94 111 1.94 170 1.94 190 1.94 172 1.97 165 1.97  57 2.94  77 2.94

  48  0.250  0.625  0.500- 172 1.94 173 1.94 232 1.94 233 1.94 175 1.97  94 1.97  58 2.94  78 2.94

  49  0.500  0.750  0.500- 174 1.94 194 1.94 175 1.94 195 1.94 169 1.97 176 1.98  59 2.94  79 2.94

  50  0.500  0.625  0.616- 236 1.89 176 1.90 179 1.95 178 1.95 177 1.99 237 1.99  80 2.93  60 2.94

  51  0.250  0.750  0.622- 180 1.87 198 1.96 178 1.96  99 1.96 119 1.96 173 2.08  61 2.94  81 2.94

  52  0.250  0.625  0.743- 181 1.83 241 1.83 102 2.02 183 2.02 180 2.07 240 2.07  62 2.94  82 2.94

  53  0.500  0.751  0.730- 177 1.81 182 1.93 183 1.93 202 1.93 203 1.93  63 2.93  83 2.96
  54  0.250  0.875  0.264- 165 1.94 185 1.94 184 1.94 164 1.94 106 1.97 187 1.97  44 2.94  64 2.94

  55  0.500  0.000  0.264- 187 1.94 207 1.94 206 1.94 186 1.94 188 1.97  65 2.94  45 2.94
  56  0.500  0.875  0.382- 169 1.94 189 1.94 188 1.94 168 1.94 190 1.97 191 1.97  46 2.94  66 2.94

  57  0.250  0.000  0.382- 111 1.94 131 1.94 190 1.94 210 1.94 192 1.97 185 1.97  47 2.94  67 2.94

  58  0.250  0.875  0.500- 172 1.94 173 1.94 192 1.94 193 1.94 195 1.97 114 1.97  48 2.94  68 2.94

  59  0.500  0.000  0.500- 194 1.94 214 1.94 195 1.94 215 1.94 189 1.97 196 1.98  49 2.94  69 2.94

  60  0.500  0.875  0.615- 176 1.89 196 1.89 199 1.95 198 1.95 177 1.99 197 2.00  70 2.94  50 2.94

  61  0.250  0.000  0.622- 200 1.86 218 1.96 198 1.96 139 1.96 119 1.96 193 2.08  71 2.94  51 2.94

  62  0.250  0.875  0.743- 201 1.83 181 1.83 203 2.02 122 2.02 200 2.07 180 2.07  52 2.94  72 2.94

  63  0.500  0.000  0.730- 197 1.81 202 1.93 203 1.93 222 1.93 223 1.93  53 2.93  73 2.94
  64  0.250  0.125  0.264- 185 1.94 205 1.94 204 1.94 184 1.94 126 1.97 207 1.97  54 2.94  74 2.94

  65  0.500  0.250  0.264- 207 1.94 227 1.94 226 1.94 206 1.94 208 1.97  75 2.94  55 2.94
  66  0.500  0.125  0.382- 189 1.94 209 1.94 208 1.94 188 1.94 210 1.97 211 1.97  56 2.94  76 2.94

  67  0.250  0.250  0.382- 131 1.94 151 1.94 210 1.94 230 1.94 212 1.97 205 1.97  57 2.94  77 2.94

  68  0.250  0.125  0.500- 192 1.94 193 1.94 212 1.94 213 1.94 215 1.97 134 1.97  58 2.94  78 2.94

  69  0.500  0.250  0.500- 214 1.94 234 1.94 215 1.94 235 1.94 209 1.97 216 1.98  59 2.94  79 2.94

  70  0.500  0.125  0.615- 216 1.89 196 1.89 219 1.95 218 1.95 217 1.99 197 2.00  80 2.94  60 2.94

  71  0.250  0.250  0.622- 220 1.86 238 1.96 218 1.96 159 1.96 139 1.96 213 2.08  61 2.94  81 2.94

  72  0.250  0.125  0.743- 201 1.83 221 1.83 223 2.02 142 2.02 220 2.07 200 2.07  62 2.94  82 2.94

  73  0.500  0.250  0.730- 217 1.81 242 1.93 243 1.93 223 1.93 222 1.93  83 2.93  63 2.94
  74  0.250  0.375  0.264- 205 1.94 225 1.94 224 1.94 204 1.94 146 1.97 227 1.97  44 2.94  64 2.94

  75  0.500  0.500  0.264- 167 1.94 227 1.94 226 1.94 166 1.94 228 1.97  65 2.94  45 2.94
  76  0.500  0.375  0.382- 209 1.94 229 1.94 228 1.94 208 1.94 230 1.97 231 1.97  46 2.94  66 2.94

  77  0.250  0.500  0.382-  91 1.94 151 1.94 170 1.94 230 1.94 225 1.97 232 1.97  47 2.94  67 2.94

  78  0.250  0.375  0.500- 212 1.94 213 1.94 232 1.94 233 1.94 235 1.97 154 1.97  48 2.94  68 2.94

  79  0.500  0.500  0.500- 174 1.94 234 1.94 175 1.94 235 1.94 229 1.97 236 1.99  49 2.94  69 2.94

  80  0.500  0.375  0.616- 236 1.89 216 1.90 239 1.95 238 1.95 217 1.99 237 1.99  50 2.93  70 2.94

  81  0.250  0.500  0.622- 240 1.86 178 1.96 238 1.96 159 1.96  99 1.96 233 2.08  71 2.94  51 2.94

  82  0.250  0.375  0.743- 221 1.83 241 1.83 243 2.02 162 2.02 240 2.07 220 2.07  72 2.94  52 2.94

  83  0.500  0.499  0.732- 237 1.83 242 1.93 243 1.93 182 1.94 183 1.94   3 2.54  73 2.93  53 2.96

  84  0.750  0.750  0.218-   4 1.94  14 1.94
  85  0.750  0.750  0.311-   4 1.94  14 1.94   7 1.97
  86  0.098  0.625  0.264-   5 1.94  35 1.94  44 1.97
  87  0.902  0.625  0.264-   5 1.94  35 1.94   4 1.97
  88  0.000  0.750  0.336-   6 1.94  16 1.94   5 1.97
  89  0.000  0.750  0.428-   6 1.94  16 1.94   9 1.97
  90  0.848  0.625  0.382-   7 1.94  37 1.94   6 1.97
  91  0.152  0.625  0.382-  47 1.94  77 1.94   6 1.97
  92  0.750  0.750  0.454-   8 1.94  18 1.94   7 1.97
  93  0.750  0.750  0.546-   8 1.94  18 1.94  11 2.08
  94  0.098  0.625  0.500-   9 1.94  39 1.94  48 1.97
  95  0.902  0.625  0.500-   9 1.94  39 1.94   8 1.97
  96  1.000  0.750  0.572-  10 1.89  20 1.89   9 1.98
  97  0.000  0.750  0.665-  13 1.82  10 1.99  20 1.99
  98  0.850  0.625  0.618-  10 1.94  11 1.96  41 1.96
  99  0.150  0.625  0.618-  10 1.94  51 1.96  81 1.96
 100  0.751  0.750  0.690-  11 1.87  12 2.07  22 2.07
 101  0.749  0.750  0.782-  12 1.83  22 1.83
 102  0.094  0.625  0.742-  43 1.93  13 1.93  52 2.02
 103  0.906  0.625  0.742-  43 1.93  13 1.93  12 2.02
 104  0.750  0.000  0.218-  14 1.94  24 1.94
 105  0.750  0.000  0.311-  14 1.94  24 1.94  17 1.97
 106  0.098  0.875  0.264-   5 1.94  15 1.94  54 1.97
 107  0.902  0.875  0.264-   5 1.94  15 1.94  14 1.97
 108  0.000  0.000  0.336-  16 1.94  26 1.94  15 1.97
 109  0.000  0.000  0.428-  16 1.94  26 1.94  19 1.97
 110  0.848  0.875  0.382-   7 1.94  17 1.94  16 1.97
 111  0.152  0.875  0.382-  47 1.94  57 1.94  16 1.97
 112  0.750  0.000  0.454-  18 1.94  28 1.94  17 1.97
 113  0.750  0.000  0.546-  18 1.94  28 1.94  21 2.08
 114  0.098  0.875  0.500-   9 1.94  19 1.94  58 1.97
 115  0.902  0.875  0.500-   9 1.94  19 1.94  18 1.97
 116  1.000  0.000  0.572-  20 1.89  30 1.89  19 1.98
 117  0.000  0.000  0.665-  23 1.82  30 1.99  20 1.99
 118  0.850  0.875  0.618-  20 1.94  21 1.96  11 1.96
 119  0.150  0.875  0.618-  20 1.94  61 1.96  51 1.96
 120  0.750  0.000  0.690-  21 1.86  22 2.07  32 2.07
 121  0.750  0.000  0.782-  22 1.83  32 1.83
 122  0.094  0.875  0.742-  13 1.93  23 1.93  62 2.02
 123  0.906  0.875  0.742-  13 1.93  23 1.93  22 2.02
 124  0.750  0.250  0.218-  24 1.94  34 1.94
 125  0.750  0.250  0.311-  24 1.94  34 1.94  27 1.97
 126  0.098  0.125  0.264-  15 1.94  25 1.94  64 1.97
 127  0.902  0.125  0.264-  15 1.94  25 1.94  24 1.97
 128  0.000  0.250  0.336-  26 1.94  36 1.94  25 1.97
 129  0.000  0.250  0.428-  26 1.94  36 1.94  29 1.97
 130  0.848  0.125  0.382-  17 1.94  27 1.94  26 1.97
 131  0.152  0.125  0.382-  57 1.94  67 1.94  26 1.97
 132  0.750  0.250  0.454-  28 1.94  38 1.94  27 1.97
 133  0.750  0.250  0.546-  28 1.94  38 1.94  31 2.08
 134  0.098  0.125  0.500-  19 1.94  29 1.94  68 1.97
 135  0.902  0.125  0.500-  19 1.94  29 1.94  28 1.97
 136  1.000  0.250  0.572-  30 1.89  40 1.89  29 1.98
 137  0.000  0.250  0.665-  33 1.82  40 1.99  30 2.00
 138  0.850  0.125  0.618-  30 1.94  21 1.96  31 1.96
 139  0.150  0.125  0.618-  30 1.94  61 1.96  71 1.96
 140  0.751  0.250  0.690-  31 1.86  32 2.07  42 2.07
 141  0.750  0.250  0.782-  42 1.83  32 1.83
 142  0.094  0.125  0.742-  33 1.93  23 1.93  72 2.02
 143  0.906  0.125  0.742-  33 1.93  23 1.93  32 2.02
 144  0.750  0.500  0.218-   4 1.94  34 1.94
 145  0.750  0.500  0.311-   4 1.94  34 1.94  37 1.97
 146  0.098  0.375  0.264-  25 1.94  35 1.94  74 1.97
 147  0.902  0.375  0.264-  25 1.94  35 1.94  34 1.97
 148  0.000  0.500  0.336-   6 1.94  36 1.94  35 1.97
 149  0.000  0.500  0.428-   6 1.94  36 1.94  39 1.97
 150  0.848  0.375  0.382-  27 1.94  37 1.94  36 1.97
 151  0.152  0.375  0.382-  67 1.94  77 1.94  36 1.97
 152  0.750  0.500  0.454-   8 1.94  38 1.94  37 1.97
 153  0.750  0.500  0.546-   8 1.94  38 1.94  41 2.08
 154  0.098  0.375  0.500-  29 1.94  39 1.94  78 1.97
 155  0.902  0.375  0.500-  29 1.94  39 1.94  38 1.97
 156  1.000  0.500  0.572-  40 1.89  10 1.89  39 1.98
 157  0.000  0.500  0.665-  43 1.82  10 1.99  40 1.99
 158  0.850  0.375  0.618-  40 1.94  31 1.96  41 1.96
 159  0.150  0.375  0.618-  40 1.94  71 1.96  81 1.96
 160  0.751  0.500  0.690-  41 1.86  12 2.07  42 2.07
 161  0.749  0.500  0.782-  42 1.83  12 1.83
 162  0.094  0.375  0.742-  43 1.93  33 1.93  82 2.02
 163  0.906  0.375  0.742-  43 1.93  33 1.93  42 2.02
 164  0.250  0.750  0.218-  44 1.94  54 1.94
 165  0.250  0.750  0.311-  44 1.94  54 1.94  47 1.97
 166  0.598  0.625  0.264-  45 1.94  75 1.94   4 1.97
 167  0.402  0.625  0.264-  45 1.94  75 1.94  44 1.97
 168  0.500  0.750  0.336-  46 1.94  56 1.94  45 1.97
 169  0.500  0.750  0.428-  46 1.94  56 1.94  49 1.97
 170  0.348  0.625  0.382-  47 1.94  77 1.94  46 1.97
 171  0.652  0.625  0.382-   7 1.94  37 1.94  46 1.97
 172  0.250  0.750  0.454-  48 1.94  58 1.94  47 1.97
 173  0.250  0.750  0.546-  48 1.94  58 1.94  51 2.08
 174  0.598  0.625  0.500-  49 1.94  79 1.94   8 1.97
 175  0.402  0.625  0.500-  49 1.94  79 1.94  48 1.97
 176  0.500  0.750  0.572-  60 1.89  50 1.90  49 1.98
 177  0.500  0.751  0.664-  53 1.81  60 1.99  50 1.99
 178  0.350  0.625  0.618-  50 1.95  81 1.96  51 1.96
 179  0.650  0.625  0.618-  50 1.95  41 1.96  11 1.96
 180  0.249  0.750  0.690-  51 1.87  52 2.07  62 2.07
 181  0.251  0.750  0.782-  52 1.83  62 1.83
 182  0.594  0.626  0.741-  53 1.93  83 1.94  12 2.02
 183  0.406  0.626  0.741-  53 1.93  83 1.94  52 2.02
 184  0.250  0.000  0.218-  54 1.94  64 1.94
 185  0.250  0.000  0.311-  54 1.94  64 1.94  57 1.97
 186  0.598  0.875  0.264-  45 1.94  55 1.94  14 1.97
 187  0.402  0.875  0.264-  45 1.94  55 1.94  54 1.97
 188  0.500  0.000  0.336-  56 1.94  66 1.94  55 1.97
 189  0.500  0.000  0.428-  56 1.94  66 1.94  59 1.97
 190  0.348  0.875  0.382-  47 1.94  57 1.94  56 1.97
 191  0.652  0.875  0.382-   7 1.94  17 1.94  56 1.97
 192  0.250  0.000  0.454-  58 1.94  68 1.94  57 1.97
 193  0.250  0.000  0.546-  58 1.94  68 1.94  61 2.08
 194  0.598  0.875  0.500-  49 1.94  59 1.94  18 1.97
 195  0.402  0.875  0.500-  49 1.94  59 1.94  58 1.97
 196  0.500  0.000  0.572-  60 1.89  70 1.89  59 1.98
 197  0.500  0.000  0.664-  63 1.81  70 2.00  60 2.00
 198  0.350  0.875  0.618-  60 1.95  51 1.96  61 1.96
 199  0.650  0.875  0.618-  60 1.95  11 1.96  21 1.96
 200  0.250  0.000  0.690-  61 1.86  62 2.07  72 2.07
 201  0.250  0.000  0.782-  62 1.83  72 1.83
 202  0.594  0.875  0.742-  63 1.93  53 1.93  22 2.02
 203  0.406  0.875  0.742-  63 1.93  53 1.93  62 2.02
 204  0.250  0.250  0.218-  64 1.94  74 1.94
 205  0.250  0.250  0.311-  64 1.94  74 1.94  67 1.97
 206  0.598  0.125  0.264-  55 1.94  65 1.94  24 1.97
 207  0.402  0.125  0.264-  55 1.94  65 1.94  64 1.97
 208  0.500  0.250  0.336-  66 1.94  76 1.94  65 1.97
 209  0.500  0.250  0.428-  66 1.94  76 1.94  69 1.97
 210  0.348  0.125  0.382-  57 1.94  67 1.94  66 1.97
 211  0.652  0.125  0.382-  17 1.94  27 1.94  66 1.97
 212  0.250  0.250  0.454-  68 1.94  78 1.94  67 1.97
 213  0.250  0.250  0.546-  68 1.94  78 1.94  71 2.08
 214  0.598  0.125  0.500-  59 1.94  69 1.94  28 1.97
 215  0.402  0.125  0.500-  59 1.94  69 1.94  68 1.97
 216  0.500  0.251  0.572-  70 1.89  80 1.90  69 1.98
 217  0.500  0.250  0.664-  73 1.81  70 1.99  80 1.99
 218  0.350  0.125  0.618-  70 1.95  61 1.96  71 1.96
 219  0.650  0.125  0.618-  70 1.95  21 1.96  31 1.96
 220  0.249  0.250  0.690-  71 1.86  72 2.07  82 2.07
 221  0.250  0.250  0.782-  82 1.83  72 1.83
 222  0.594  0.125  0.742-  63 1.93  73 1.93  32 2.02
 223  0.406  0.125  0.742-  63 1.93  73 1.93  72 2.02
 224  0.250  0.500  0.218-  44 1.94  74 1.94
 225  0.250  0.500  0.311-  44 1.94  74 1.94  77 1.97
 226  0.598  0.375  0.264-  65 1.94  75 1.94  34 1.97
 227  0.402  0.375  0.264-  65 1.94  75 1.94  74 1.97
 228  0.500  0.500  0.336-  46 1.94  76 1.94  75 1.97
 229  0.500  0.500  0.428-  46 1.94  76 1.94  79 1.97
 230  0.348  0.375  0.382-  67 1.94  77 1.94  76 1.97
 231  0.652  0.375  0.382-  27 1.94  37 1.94  76 1.97
 232  0.250  0.500  0.454-  48 1.94  78 1.94  77 1.97
 233  0.250  0.500  0.546-  48 1.94  78 1.94  81 2.08
 234  0.598  0.375  0.500-  69 1.94  79 1.94  38 1.97
 235  0.402  0.375  0.500-  69 1.94  79 1.94  78 1.97
 236  0.500  0.500  0.572-  50 1.89  80 1.89  79 1.99
 237  0.500  0.500  0.665-  83 1.83  50 1.99  80 1.99
 238  0.350  0.375  0.619-  80 1.95  81 1.96  71 1.96
 239  0.650  0.375  0.619-  80 1.95  41 1.96  31 1.96
 240  0.249  0.500  0.690-  81 1.86  52 2.07  82 2.07
 241  0.251  0.500  0.782-  82 1.83  52 1.83
 242  0.594  0.374  0.741-  83 1.93  73 1.93  42 2.02
 243  0.406  0.374  0.741-  83 1.93  73 1.93  82 2.02
 

IMPORTANT INFORMATION: All symmetrisations will be switched off!
NOSYMM: (Re-)initialisation of all symmetry stuff for point group C_1.


----------------------------------------------------------------------------------------

                                     Primitive cell                                     

  volume of cell :    4180.4259

  direct lattice vectors                    reciprocal lattice vectors
    12.939701814  0.000000000  0.000000000     0.077281534  0.000000000  0.000000000
     0.000000000 11.760793336  0.000000000     0.000000000  0.085028278  0.000000000
     0.000000000  0.000000000 27.470062065     0.000000000  0.000000000  0.036403267

  length of vectors
    12.939701814 11.760793336 27.470062065     0.077281534  0.085028278  0.036403267

  position of ions in fractional coordinates (direct lattice)
     0.499999719  0.605970710  0.834531715
     0.499999767  0.702105843  0.843637843
     0.499999669  0.509578417  0.824182109
     0.750000000  0.625000000  0.264476291
     0.000000000  0.750000000  0.264476291
     0.000000000  0.625000000  0.382238145
     0.750000000  0.750000000  0.382238145
     0.750000000  0.625000000  0.500000000
     0.000000000  0.750000000  0.500000000
     0.000000013  0.625094429  0.615454208
     0.750029213  0.750083921  0.621822263
     0.750211204  0.625324396  0.742606954
     0.999999745  0.750223823  0.730613982
     0.750000000  0.875000000  0.264476291
     0.000000000  0.000000000  0.264476291
     0.000000000  0.875000000  0.382238145
     0.750000000  0.000000000  0.382238145
     0.750000000  0.875000000  0.500000000
     0.000000000  0.000000000  0.500000000
     0.000000030  0.875097004  0.615504401
     0.749999335  0.000079649  0.621946919
     0.749885565  0.875195525  0.742975190
     0.999999673  0.000122420  0.730644205
     0.750000000  0.125000000  0.264476291
     0.000000000  0.250000000  0.264476291
     0.000000000  0.125000000  0.382238145
     0.750000000  0.250000000  0.382238145
     0.750000000  0.125000000  0.500000000
     0.000000000  0.250000000  0.500000000
     0.000000012  0.125050258  0.615528197
     0.750028333  0.250068689  0.621942126
     0.749943006  0.125183337  0.742952898
     0.999999724  0.250082625  0.730644738
     0.750000000  0.375000000  0.264476291
     0.000000000  0.500000000  0.264476291
     0.000000000  0.375000000  0.382238145
     0.750000000  0.500000000  0.382238145
     0.750000000  0.375000000  0.500000000
     0.000000000  0.500000000  0.500000000
     0.999999998  0.375041161  0.615468651
     0.750110401  0.500059241  0.621866864
     0.750176672  0.375216660  0.742919318
     0.999999720  0.500184174  0.730603225
     0.250000000  0.625000000  0.264476291
     0.500000000  0.750000000  0.264476291
     0.500000000  0.625000000  0.382238145
     0.250000000  0.750000000  0.382238145
     0.250000000  0.625000000  0.500000000
     0.500000000  0.750000000  0.500000000
     0.500000046  0.624529298  0.615870506
     0.249970726  0.750083885  0.621822259
     0.249788163  0.625324380  0.742607023
     0.499999718  0.750790005  0.730172143
     0.250000000  0.875000000  0.264476291
     0.500000000  0.000000000  0.264476291
     0.500000000  0.875000000  0.382238145
     0.250000000  0.000000000  0.382238145
     0.250000000  0.875000000  0.500000000
     0.500000000  0.000000000  0.500000000
     0.500000005  0.874896275  0.615171501
     0.250000535  0.000079642  0.621946874
     0.250113739  0.875195512  0.742975164
     0.499999697  0.000160442  0.730299828
     0.250000000  0.125000000  0.264476291
     0.500000000  0.250000000  0.264476291
     0.500000000  0.125000000  0.382238145
     0.250000000  0.250000000  0.382238145
     0.250000000  0.125000000  0.500000000
     0.500000000  0.250000000  0.500000000
     0.499999967  0.125260478  0.615226857
     0.249971526  0.250068742  0.621942080
     0.250056278  0.125183346  0.742952820
     0.499999691  0.249782995  0.730324683
     0.250000000  0.375000000  0.264476291
     0.500000000  0.500000000  0.264476291
     0.500000000  0.375000000  0.382238145
     0.250000000  0.500000000  0.382238145
     0.250000000  0.375000000  0.500000000
     0.500000000  0.500000000  0.500000000
     0.500000007  0.375461123  0.615901954
     0.249889519  0.500059266  0.621866862
     0.249822703  0.375216676  0.742919322
     0.499999736  0.499145353  0.731718136
     0.750000000  0.750000000  0.218419601
     0.750000000  0.750000000  0.310532981
     0.097775060  0.625000000  0.264476291
     0.902224940  0.625000000  0.264476291
     0.000000000  0.750000000  0.336181456
     0.000000000  0.750000000  0.428294835
     0.847775060  0.625000000  0.382238145
     0.152224940  0.625000000  0.382238145
     0.750000000  0.750000000  0.453943310
     0.750000000  0.750000000  0.546056690
     0.097775060  0.625000000  0.500000000
     0.902224940  0.625000000  0.500000000
     0.999999757  0.750139746  0.572209805
     0.000000064  0.750005084  0.664535714
     0.849968213  0.625123528  0.618257926
     0.150031539  0.625123516  0.618257611
     0.750592516  0.750233964  0.689717584
     0.749465147  0.749919234  0.782415182
     0.093609234  0.625132025  0.742251576
     0.906390094  0.625132052  0.742251373
     0.750000000  0.000000000  0.218419601
     0.750000000  0.000000000  0.310532981
     0.097775060  0.875000000  0.264476291
     0.902224940  0.875000000  0.264476291
     0.000000000  0.000000000  0.336181456
     0.000000000  0.000000000  0.428294835
     0.847775060  0.875000000  0.382238145
     0.152224940  0.875000000  0.382238145
     0.750000000  0.000000000  0.453943310
     0.750000000  0.000000000  0.546056690
     0.097775060  0.875000000  0.500000000
     0.902224940  0.875000000  0.500000000
     0.999999755  0.000090578  0.572227502
     0.000000071  0.000063097  0.664564651
     0.849951925  0.875106349  0.618353465
     0.150047851  0.875106322  0.618353122
     0.750158717  0.000114088  0.689806816
     0.750112075  0.000145743  0.782479365
     0.093658473  0.875098017  0.742142382
     0.906340804  0.875097996  0.742142170
     0.750000000  0.250000000  0.218419601
     0.750000000  0.250000000  0.310532981
     0.097775060  0.125000000  0.264476291
     0.902224940  0.125000000  0.264476291
     0.000000000  0.250000000  0.336181456
     0.000000000  0.250000000  0.428294835
     0.847775060  0.125000000  0.382238145
     0.152224940  0.125000000  0.382238145
     0.750000000  0.250000000  0.453943310
     0.750000000  0.250000000  0.546056690
     0.097775060  0.125000000  0.500000000
     0.902224940  0.125000000  0.500000000
     0.999999755  0.249984793  0.572226363
     0.000000058  0.250198820  0.664570320
     0.849962256  0.125033081  0.618389895
     0.150037483  0.125033101  0.618389546
     0.750566507  0.249996118  0.689783943
     0.749859874  0.250261216  0.782461765
     0.093621141  0.125176901  0.742140121
     0.906378145  0.125176956  0.742139928
     0.750000000  0.500000000  0.218419601
     0.750000000  0.500000000  0.310532981
     0.097775060  0.375000000  0.264476291
     0.902224940  0.375000000  0.264476291
     0.000000000  0.500000000  0.336181456
     0.000000000  0.500000000  0.428294835
     0.847775060  0.375000000  0.382238145
     0.152224940  0.375000000  0.382238145
     0.750000000  0.500000000  0.453943310
     0.750000000  0.500000000  0.546056690
     0.097775060  0.375000000  0.500000000
     0.902224940  0.375000000  0.500000000
     0.999999779  0.500044840  0.572209471
     0.000000024  0.500099944  0.664528457
     0.849973064  0.375009453  0.618281134
     0.150026695  0.375009490  0.618280818
     0.750983819  0.500124841  0.689735738
     0.748634386  0.500465367  0.782379542
     0.093626221  0.375246155  0.742276632
     0.906373127  0.375246134  0.742276506
     0.250000000  0.750000000  0.218419601
     0.250000000  0.750000000  0.310532981
     0.597775060  0.625000000  0.264476291
     0.402224940  0.625000000  0.264476291
     0.500000000  0.750000000  0.336181456
     0.500000000  0.750000000  0.428294835
     0.347775060  0.625000000  0.382238145
     0.652224940  0.625000000  0.382238145
     0.250000000  0.750000000  0.453943310
     0.250000000  0.750000000  0.546056690
     0.597775060  0.625000000  0.500000000
     0.402224940  0.625000000  0.500000000
     0.499999779  0.749562326  0.572181089
     0.500000044  0.750512477  0.664189546
     0.349742391  0.624999545  0.618490204
     0.650257371  0.624999548  0.618489910
     0.249406472  0.750233936  0.689717583
     0.250534376  0.749919226  0.782415211
     0.593900749  0.626112718  0.741250990
     0.406098585  0.626112714  0.741250887
     0.250000000  0.000000000  0.218419601
     0.250000000  0.000000000  0.310532981
     0.597775060  0.875000000  0.264476291
     0.402224940  0.875000000  0.264476291
     0.500000000  0.000000000  0.336181456
     0.500000000  0.000000000  0.428294835
     0.347775060  0.875000000  0.382238145
     0.652224940  0.875000000  0.382238145
     0.250000000  0.000000000  0.453943310
     0.250000000  0.000000000  0.546056690
     0.597775060  0.875000000  0.500000000
     0.402224940  0.875000000  0.500000000
     0.499999758  0.000078499  0.572042332
     0.500000061  0.000119320  0.664261570
     0.349804209  0.875069082  0.618323801
     0.650195550  0.875069073  0.618323484
     0.249840134  0.000114058  0.689806767
     0.249887510  0.000145786  0.782479304
     0.593830997  0.875482588  0.741662908
     0.406168260  0.875482593  0.741662693
     0.250000000  0.250000000  0.218419601
     0.250000000  0.250000000  0.310532981
     0.597775060  0.125000000  0.264476291
     0.402224940  0.125000000  0.264476291
     0.500000000  0.250000000  0.336181456
     0.500000000  0.250000000  0.428294835
     0.347775060  0.125000000  0.382238145
     0.652224940  0.125000000  0.382238145
     0.250000000  0.250000000  0.453943310
     0.250000000  0.250000000  0.546056690
     0.597775060  0.125000000  0.500000000
     0.402224940  0.125000000  0.500000000
     0.499999764  0.250524122  0.572215573
     0.500000010  0.249530311  0.664293081
     0.349799683  0.125068093  0.618339549
     0.650200076  0.125068127  0.618339250
     0.249432505  0.249996164  0.689783888
     0.250139612  0.250261189  0.782461715
     0.593795802  0.124965244  0.741907473
     0.406203419  0.124965302  0.741907184
     0.250000000  0.500000000  0.218419601
     0.250000000  0.500000000  0.310532981
     0.597775060  0.375000000  0.264476291
     0.402224940  0.375000000  0.264476291
     0.500000000  0.500000000  0.336181456
     0.500000000  0.500000000  0.428294835
     0.347775060  0.375000000  0.382238145
     0.652224940  0.375000000  0.382238145
     0.250000000  0.500000000  0.453943310
     0.250000000  0.500000000  0.546056690
     0.597775060  0.375000000  0.500000000
     0.402224940  0.375000000  0.500000000
     0.499999790  0.499984858  0.572355994
     0.499999999  0.500066124  0.665009979
     0.349756065  0.375111514  0.618533272
     0.650243710  0.375111496  0.618532995
     0.249015272  0.500124851  0.689735724
     0.251365113  0.500465383  0.782379625
     0.594111923  0.374180011  0.740997554
     0.405887439  0.374180032  0.740997476

  ion indices of the primitive-cell ions
   primitive index   ion index
                 1           1
                 2           2
                 3           3
                 4           4
                 5           5
                 6           6
                 7           7
                 8           8
                 9           9
                10          10
                11          11
                12          12
                13          13
                14          14
                15          15
                16          16
                17          17
                18          18
                19          19
                20          20
                21          21
                22          22
                23          23
                24          24
                25          25
                26          26
                27          27
                28          28
                29          29
                30          30
                31          31
                32          32
                33          33
                34          34
                35          35
                36          36
                37          37
                38          38
                39          39
                40          40
                41          41
                42          42
                43          43
                44          44
                45          45
                46          46
                47          47
                48          48
                49          49
                50          50
                51          51
                52          52
                53          53
                54          54
                55          55
                56          56
                57          57
                58          58
                59          59
                60          60
                61          61
                62          62
                63          63
                64          64
                65          65
                66          66
                67          67
                68          68
                69          69
                70          70
                71          71
                72          72
                73          73
                74          74
                75          75
                76          76
                77          77
                78          78
                79          79
                80          80
                81          81
                82          82
                83          83
                84          84
                85          85
                86          86
                87          87
                88          88
                89          89
                90          90
                91          91
                92          92
                93          93
                94          94
                95          95
                96          96
                97          97
                98          98
                99          99
               100         100
               101         101
               102         102
               103         103
               104         104
               105         105
               106         106
               107         107
               108         108
               109         109
               110         110
               111         111
               112         112
               113         113
               114         114
               115         115
               116         116
               117         117
               118         118
               119         119
               120         120
               121         121
               122         122
               123         123
               124         124
               125         125
               126         126
               127         127
               128         128
               129         129
               130         130
               131         131
               132         132
               133         133
               134         134
               135         135
               136         136
               137         137
               138         138
               139         139
               140         140
               141         141
               142         142
               143         143
               144         144
               145         145
               146         146
               147         147
               148         148
               149         149
               150         150
               151         151
               152         152
               153         153
               154         154
               155         155
               156         156
               157         157
               158         158
               159         159
               160         160
               161         161
               162         162
               163         163
               164         164
               165         165
               166         166
               167         167
               168         168
               169         169
               170         170
               171         171
               172         172
               173         173
               174         174
               175         175
               176         176
               177         177
               178         178
               179         179
               180         180
               181         181
               182         182
               183         183
               184         184
               185         185
               186         186
               187         187
               188         188
               189         189
               190         190
               191         191
               192         192
               193         193
               194         194
               195         195
               196         196
               197         197
               198         198
               199         199
               200         200
               201         201
               202         202
               203         203
               204         204
               205         205
               206         206
               207         207
               208         208
               209         209
               210         210
               211         211
               212         212
               213         213
               214         214
               215         215
               216         216
               217         217
               218         218
               219         219
               220         220
               221         221
               222         222
               223         223
               224         224
               225         225
               226         226
               227         227
               228         228
               229         229
               230         230
               231         231
               232         232
               233         233
               234         234
               235         235
               236         236
               237         237
               238         238
               239         239
               240         240
               241         241
               242         242
               243         243

----------------------------------------------------------------------------------------

 
 
 KPOINTS: pymatgen v2020.8.13 with grid density = 

Automatic generation of k-mesh.
 Grid dimensions read from file:
 generate k-points for:    2    2    1

 Generating k-lattice:

  Cartesian coordinates                     Fractional coordinates (reciprocal lattice)
     0.038640767  0.000000000  0.000000000     0.500000000  0.000000000  0.000000000
     0.000000000  0.042514139  0.000000000     0.000000000  0.500000000  0.000000000
     0.000000000  0.000000000  0.036403267     0.000000000  0.000000000  1.000000000

  Length of vectors
     0.038640767  0.042514139  0.036403267

  Shift w.r.t. Gamma in fractional coordinates (k-lattice)
     0.000000000  0.000000000  0.000000000

 
 Subroutine IBZKPT returns following result:
 ===========================================
 
 Found      4 irreducible k-points:
 
 Following reciprocal coordinates:
            Coordinates               Weight
  0.000000  0.000000  0.000000      1.000000
  0.500000  0.000000  0.000000      1.000000
  0.000000  0.500000  0.000000      1.000000
  0.500000  0.500000  0.000000      1.000000
 
 Following cartesian coordinates:
            Coordinates               Weight
  0.000000  0.000000  0.000000      1.000000
  0.038641  0.000000  0.000000      1.000000
  0.000000  0.042514  0.000000      1.000000
  0.038641  0.042514  0.000000      1.000000
 


--------------------------------------------------------------------------------------------------------




 Dimension of arrays:
   k-points           NKPTS =      4   k-points in BZ     NKDIM =      4   number of bands    NBANDS=   1216
   number of dos      NEDOS =    301   number of ions     NIONS =    243
   non local maximal  LDIM  =      6   non local SUM 2l+1 LMDIM =     18
   total plane-waves  NPLWV = ******
   max r-space proj   IRMAX =      1   max aug-charges    IRDMAX=  21766
   dimension x,y,z NGX =   108 NGY =   96 NGZ =  224
   dimension x,y,z NGXF=   216 NGYF=  192 NGZF=  448
   support grid    NGXF=   216 NGYF=  192 NGZF=  448
   ions per type =               1   2  80 160
   NGX,Y,Z   is equivalent  to a cutoff of  13.88, 13.57, 13.56 a.u.
   NGXF,Y,Z  is equivalent  to a cutoff of  27.75, 27.14, 27.11 a.u.

 SYSTEM =  TiO2                                    
 POSCAR =   C  O Ti  O                             

--------------------------------------------------------------------------------------------------------


  energy-cutoff  :      600.00
  volume of cell :     4180.43
      direct lattice vectors                 reciprocal lattice vectors
    12.939701814  0.000000000  0.000000000     0.077281534  0.000000000  0.000000000
     0.000000000 11.760793336  0.000000000     0.000000000  0.085028278  0.000000000
     0.000000000  0.000000000 27.470062065     0.000000000  0.000000000  0.036403267

  length of vectors
    12.939701814 11.760793336 27.470062065     0.077281534  0.085028278  0.036403267


 
 k-points in units of 2pi/SCALE and weight: pymatgen v2020.8.13 with grid density = 
   0.00000000  0.00000000  0.00000000       0.250
   0.03864077  0.00000000  0.00000000       0.250
   0.00000000  0.04251414  0.00000000       0.250
   0.03864077  0.04251414  0.00000000       0.250
 
 k-points in reciprocal lattice and weights: pymatgen v2020.8.13 with grid density = 
   0.00000000  0.00000000  0.00000000       0.250
   0.50000000  0.00000000  0.00000000       0.250
   0.00000000  0.50000000  0.00000000       0.250
   0.50000000  0.50000000  0.00000000       0.250
 
 position of ions in fractional coordinates (direct lattice) 
   0.49999972  0.60597071  0.83453172
   0.49999977  0.70210584  0.84363784
   0.49999967  0.50957842  0.82418211
   0.75000000  0.62500000  0.26447629
   0.00000000  0.75000000  0.26447629
   0.00000000  0.62500000  0.38223815
   0.75000000  0.75000000  0.38223815
   0.75000000  0.62500000  0.50000000
   0.00000000  0.75000000  0.50000000
   0.00000001  0.62509443  0.61545421
   0.75002921  0.75008392  0.62182226
   0.75021120  0.62532440  0.74260695
   0.99999974  0.75022382  0.73061398
   0.75000000  0.87500000  0.26447629
   0.00000000  0.00000000  0.26447629
   0.00000000  0.87500000  0.38223815
   0.75000000  0.00000000  0.38223815
   0.75000000  0.87500000  0.50000000
   0.00000000  0.00000000  0.50000000
   0.00000003  0.87509700  0.61550440
   0.74999934  0.00007965  0.62194692
   0.74988556  0.87519552  0.74297519
   0.99999967  0.00012242  0.73064420
   0.75000000  0.12500000  0.26447629
   0.00000000  0.25000000  0.26447629
   0.00000000  0.12500000  0.38223815
   0.75000000  0.25000000  0.38223815
   0.75000000  0.12500000  0.50000000
   0.00000000  0.25000000  0.50000000
   0.00000001  0.12505026  0.61552820
   0.75002833  0.25006869  0.62194213
   0.74994301  0.12518334  0.74295290
   0.99999972  0.25008263  0.73064474
   0.75000000  0.37500000  0.26447629
   0.00000000  0.50000000  0.26447629
   0.00000000  0.37500000  0.38223815
   0.75000000  0.50000000  0.38223815
   0.75000000  0.37500000  0.50000000
   0.00000000  0.50000000  0.50000000
   1.00000000  0.37504116  0.61546865
   0.75011040  0.50005924  0.62186686
   0.75017667  0.37521666  0.74291932
   0.99999972  0.50018417  0.73060322
   0.25000000  0.62500000  0.26447629
   0.50000000  0.75000000  0.26447629
   0.50000000  0.62500000  0.38223815
   0.25000000  0.75000000  0.38223815
   0.25000000  0.62500000  0.50000000
   0.50000000  0.75000000  0.50000000
   0.50000005  0.62452930  0.61587051
   0.24997073  0.75008389  0.62182226
   0.24978816  0.62532438  0.74260702
   0.49999972  0.75079000  0.73017214
   0.25000000  0.87500000  0.26447629
   0.50000000  0.00000000  0.26447629
   0.50000000  0.87500000  0.38223815
   0.25000000  0.00000000  0.38223815
   0.25000000  0.87500000  0.50000000
   0.50000000  0.00000000  0.50000000
   0.50000001  0.87489627  0.61517150
   0.25000053  0.00007964  0.62194687
   0.25011374  0.87519551  0.74297516
   0.49999970  0.00016044  0.73029983
   0.25000000  0.12500000  0.26447629
   0.50000000  0.25000000  0.26447629
   0.50000000  0.12500000  0.38223815
   0.25000000  0.25000000  0.38223815
   0.25000000  0.12500000  0.50000000
   0.50000000  0.25000000  0.50000000
   0.49999997  0.12526048  0.61522686
   0.24997153  0.25006874  0.62194208
   0.25005628  0.12518335  0.74295282
   0.49999969  0.24978300  0.73032468
   0.25000000  0.37500000  0.26447629
   0.50000000  0.50000000  0.26447629
   0.50000000  0.37500000  0.38223815
   0.25000000  0.50000000  0.38223815
   0.25000000  0.37500000  0.50000000
   0.50000000  0.50000000  0.50000000
   0.50000001  0.37546112  0.61590195
   0.24988952  0.50005927  0.62186686
   0.24982270  0.37521668  0.74291932
   0.49999974  0.49914535  0.73171814
   0.75000000  0.75000000  0.21841960
   0.75000000  0.75000000  0.31053298
   0.09777506  0.62500000  0.26447629
   0.90222494  0.62500000  0.26447629
   0.00000000  0.75000000  0.33618146
   0.00000000  0.75000000  0.42829484
   0.84777506  0.62500000  0.38223815
   0.15222494  0.62500000  0.38223815
   0.75000000  0.75000000  0.45394331
   0.75000000  0.75000000  0.54605669
   0.09777506  0.62500000  0.50000000
   0.90222494  0.62500000  0.50000000
   0.99999976  0.75013975  0.57220980
   0.00000006  0.75000508  0.66453571
   0.84996821  0.62512353  0.61825793
   0.15003154  0.62512352  0.61825761
   0.75059252  0.75023396  0.68971758
   0.74946515  0.74991923  0.78241518
   0.09360923  0.62513202  0.74225158
   0.90639009  0.62513205  0.74225137
   0.75000000  0.00000000  0.21841960
   0.75000000  0.00000000  0.31053298
   0.09777506  0.87500000  0.26447629
   0.90222494  0.87500000  0.26447629
   0.00000000  0.00000000  0.33618146
   0.00000000  0.00000000  0.42829484
   0.84777506  0.87500000  0.38223815
   0.15222494  0.87500000  0.38223815
   0.75000000  0.00000000  0.45394331
   0.75000000  0.00000000  0.54605669
   0.09777506  0.87500000  0.50000000
   0.90222494  0.87500000  0.50000000
   0.99999975  0.00009058  0.57222750
   0.00000007  0.00006310  0.66456465
   0.84995192  0.87510635  0.61835347
   0.15004785  0.87510632  0.61835312
   0.75015872  0.00011409  0.68980682
   0.75011207  0.00014574  0.78247936
   0.09365847  0.87509802  0.74214238
   0.90634080  0.87509800  0.74214217
   0.75000000  0.25000000  0.21841960
   0.75000000  0.25000000  0.31053298
   0.09777506  0.12500000  0.26447629
   0.90222494  0.12500000  0.26447629
   0.00000000  0.25000000  0.33618146
   0.00000000  0.25000000  0.42829484
   0.84777506  0.12500000  0.38223815
   0.15222494  0.12500000  0.38223815
   0.75000000  0.25000000  0.45394331
   0.75000000  0.25000000  0.54605669
   0.09777506  0.12500000  0.50000000
   0.90222494  0.12500000  0.50000000
   0.99999976  0.24998479  0.57222636
   0.00000006  0.25019882  0.66457032
   0.84996226  0.12503308  0.61838990
   0.15003748  0.12503310  0.61838955
   0.75056651  0.24999612  0.68978394
   0.74985987  0.25026122  0.78246177
   0.09362114  0.12517690  0.74214012
   0.90637815  0.12517696  0.74213993
   0.75000000  0.50000000  0.21841960
   0.75000000  0.50000000  0.31053298
   0.09777506  0.37500000  0.26447629
   0.90222494  0.37500000  0.26447629
   0.00000000  0.50000000  0.33618146
   0.00000000  0.50000000  0.42829484
   0.84777506  0.37500000  0.38223815
   0.15222494  0.37500000  0.38223815
   0.75000000  0.50000000  0.45394331
   0.75000000  0.50000000  0.54605669
   0.09777506  0.37500000  0.50000000
   0.90222494  0.37500000  0.50000000
   0.99999978  0.50004484  0.57220947
   0.00000002  0.50009994  0.66452846
   0.84997306  0.37500945  0.61828113
   0.15002669  0.37500949  0.61828082
   0.75098382  0.50012484  0.68973574
   0.74863439  0.50046537  0.78237954
   0.09362622  0.37524616  0.74227663
   0.90637313  0.37524613  0.74227651
   0.25000000  0.75000000  0.21841960
   0.25000000  0.75000000  0.31053298
   0.59777506  0.62500000  0.26447629
   0.40222494  0.62500000  0.26447629
   0.50000000  0.75000000  0.33618146
   0.50000000  0.75000000  0.42829484
   0.34777506  0.62500000  0.38223815
   0.65222494  0.62500000  0.38223815
   0.25000000  0.75000000  0.45394331
   0.25000000  0.75000000  0.54605669
   0.59777506  0.62500000  0.50000000
   0.40222494  0.62500000  0.50000000
   0.49999978  0.74956233  0.57218109
   0.50000004  0.75051248  0.66418955
   0.34974239  0.62499954  0.61849020
   0.65025737  0.62499955  0.61848991
   0.24940647  0.75023394  0.68971758
   0.25053438  0.74991923  0.78241521
   0.59390075  0.62611272  0.74125099
   0.40609858  0.62611271  0.74125089
   0.25000000  0.00000000  0.21841960
   0.25000000  0.00000000  0.31053298
   0.59777506  0.87500000  0.26447629
   0.40222494  0.87500000  0.26447629
   0.50000000  0.00000000  0.33618146
   0.50000000  0.00000000  0.42829484
   0.34777506  0.87500000  0.38223815
   0.65222494  0.87500000  0.38223815
   0.25000000  0.00000000  0.45394331
   0.25000000  0.00000000  0.54605669
   0.59777506  0.87500000  0.50000000
   0.40222494  0.87500000  0.50000000
   0.49999976  0.00007850  0.57204233
   0.50000006  0.00011932  0.66426157
   0.34980421  0.87506908  0.61832380
   0.65019555  0.87506907  0.61832348
   0.24984013  0.00011406  0.68980677
   0.24988751  0.00014579  0.78247930
   0.59383100  0.87548259  0.74166291
   0.40616826  0.87548259  0.74166269
   0.25000000  0.25000000  0.21841960
   0.25000000  0.25000000  0.31053298
   0.59777506  0.12500000  0.26447629
   0.40222494  0.12500000  0.26447629
   0.50000000  0.25000000  0.33618146
   0.50000000  0.25000000  0.42829484
   0.34777506  0.12500000  0.38223815
   0.65222494  0.12500000  0.38223815
   0.25000000  0.25000000  0.45394331
   0.25000000  0.25000000  0.54605669
   0.59777506  0.12500000  0.50000000
   0.40222494  0.12500000  0.50000000
   0.49999976  0.25052412  0.57221557
   0.50000001  0.24953031  0.66429308
   0.34979968  0.12506809  0.61833955
   0.65020008  0.12506813  0.61833925
   0.24943250  0.24999616  0.68978389
   0.25013961  0.25026119  0.78246172
   0.59379580  0.12496524  0.74190747
   0.40620342  0.12496530  0.74190718
   0.25000000  0.50000000  0.21841960
   0.25000000  0.50000000  0.31053298
   0.59777506  0.37500000  0.26447629
   0.40222494  0.37500000  0.26447629
   0.50000000  0.50000000  0.33618146
   0.50000000  0.50000000  0.42829484
   0.34777506  0.37500000  0.38223815
   0.65222494  0.37500000  0.38223815
   0.25000000  0.50000000  0.45394331
   0.25000000  0.50000000  0.54605669
   0.59777506  0.37500000  0.50000000
   0.40222494  0.37500000  0.50000000
   0.49999979  0.49998486  0.57235599
   0.50000000  0.50006612  0.66500998
   0.34975607  0.37511151  0.61853327
   0.65024371  0.37511150  0.61853299
   0.24901527  0.50012485  0.68973572
   0.25136511  0.50046538  0.78237963
   0.59411192  0.37418001  0.74099755
   0.40588744  0.37418003  0.74099748
 
 position of ions in cartesian coordinates  (Angst):
   6.46984726  7.12669629 22.92463801
   6.46984789  8.25732172 23.17478392
   6.46984662  5.99304645 22.64033369
   9.70477636  7.35049584  7.26518013
   0.00000000  8.82059500  7.26518013
   0.00000000  7.35049584 10.50010558
   9.70477636  8.82059500 10.50010558
   9.70477636  7.35049584 13.73503103
   0.00000000  8.82059500 13.73503103
   0.00000017  7.35160639 16.90656529
   9.70515437  8.82158197 17.08149615
   9.70750928  7.35431099 20.39945912
  12.93969851  8.82322733 20.07001144
   9.70477636 10.29069417  7.26518013
   0.00000000  0.00000000  7.26518013
   0.00000000 10.29069417 10.50010558
   9.70477636  0.00000000 10.50010558
   9.70477636 10.29069417 13.73503103
   0.00000000  0.00000000 13.73503103
   0.00000038 10.29183501 16.90794409
   9.70476776  0.00093673 17.08492047
   9.70329560 10.29299369 20.40957459
  12.93969758  0.00143975 20.07084165
   9.70477636  1.47009917  7.26518013
   0.00000000  2.94019833  7.26518013
   0.00000000  1.47009917 10.50010558
   9.70477636  2.94019833 10.50010558
   9.70477636  1.47009917 13.73503103
   0.00000000  2.94019833 13.73503103
   0.00000016  1.47069024 16.90859777
   9.70514298  2.94100617 17.08478880
   9.70403887  1.47225535 20.40896223
  12.93969825  2.94117007 20.07085630
   9.70477636  4.41029750  7.26518013
   0.00000000  5.88039667  7.26518013
   0.00000000  4.41029750 10.50010558
   9.70477636  5.88039667 10.50010558
   9.70477636  4.41029750 13.73503103
   0.00000000  5.88039667 13.73503103
  12.93970179  4.41078159 16.90696204
   9.70620491  5.88109339 17.08272136
   9.70706245  4.41284559 20.40803978
  12.93969819  5.88256270 20.06971593
   3.23492545  7.35049584  7.26518013
   6.46985091  8.82059500  7.26518013
   6.46985091  7.35049584 10.50010558
   3.23492545  8.82059500 10.50010558
   3.23492545  7.35049584 13.73503103
   6.46985091  8.82059500 13.73503103
   6.46985151  7.34496001 16.91800102
   3.23454666  8.82158156 17.08149606
   3.23218435  7.35431080 20.39946101
   6.46984726  8.82988608 20.05787409
   3.23492545 10.29069417  7.26518013
   6.46985091  0.00000000  7.26518013
   6.46985091 10.29069417 10.50010558
   3.23492545  0.00000000 10.50010558
   3.23492545 10.29069417 13.73503103
   6.46985091  0.00000000 13.73503103
   6.46985097 10.28947428 16.89879932
   3.23493237  0.00093665 17.08491924
   3.23639721 10.29299354 20.40957388
   6.46984698  0.00188693 20.06138160
   3.23492545  1.47009917  7.26518013
   6.46985091  2.94019833  7.26518013
   6.46985091  1.47009917 10.50010558
   3.23492545  2.94019833 10.50010558
   3.23492545  1.47009917 13.73503103
   6.46985091  2.94019833 13.73503103
   6.46985048  1.47316260 16.90031995
   3.23455701  2.94100680 17.08478754
   3.23565367  1.47225546 20.40896009
   6.46984691  2.93764618 20.06206438
   3.23492545  4.41029750  7.26518013
   6.46985091  5.88039667  7.26518013
   6.46985091  4.41029750 10.50010558
   3.23492545  5.88039667 10.50010558
   3.23492545  4.41029750 13.73503103
   6.46985091  5.88039667 13.73503103
   6.46985100  4.41572067 16.91886491
   3.23349586  5.88109368 17.08272129
   3.23263128  4.41284578 20.40803988
   6.46984749  5.87034534 20.10034261
   9.70477636  8.82059500  6.00000000
   9.70477636  8.82059500  8.53036025
   1.26518013  7.35049584  7.26518013
  11.67452169  7.35049584  7.26518013
   0.00000000  8.82059500  9.23492545
   0.00000000  8.82059500 11.76528570
  10.96995649  7.35049584 10.50010558
   1.96974533  7.35049584 10.50010558
   9.70477636  8.82059500 12.46985091
   9.70477636  8.82059500 15.00021116
   1.26518013  7.35049584 13.73503103
  11.67452169  7.35049584 13.73503103
  12.93969867  8.82223853 15.71863885
   0.00000083  8.82065480 18.25483732
  10.99833522  7.35194863 16.98358361
   1.94136337  7.35194848 16.98357496
   9.71244335  8.82334660 18.94658484
   9.69785552  8.81964513 21.49299360
   1.21127557  7.35204855 20.38969686
  11.72841754  7.35204888 20.38969130
   9.70477636  0.00000000  6.00000000
   9.70477636  0.00000000  8.53036025
   1.26518013 10.29069417  7.26518013
  11.67452169 10.29069417  7.26518013
   0.00000000  0.00000000  9.23492545
   0.00000000  0.00000000 11.76528570
  10.96995649 10.29069417 10.50010558
   1.96974533 10.29069417 10.50010558
   9.70477636  0.00000000 12.46985091
   9.70477636  0.00000000 15.00021116
   1.26518013 10.29069417 13.73503103
  11.67452169 10.29069417 13.73503103
  12.93969864  0.00106527 15.71912499
   0.00000092  0.00074207 18.25563220
  10.99812446 10.29194492 16.98620806
   1.94157445 10.29194460 16.98619864
   9.70683011  0.00134177 18.94903604
   9.70622657  0.00171405 21.49475672
   1.21191271 10.29184692 20.38669729
  11.72777974 10.29184667 20.38669148
   9.70477636  2.94019833  6.00000000
   9.70477636  2.94019833  8.53036025
   1.26518013  1.47009917  7.26518013
  11.67452169  1.47009917  7.26518013
   0.00000000  2.94019833  9.23492545
   0.00000000  2.94019833 11.76528570
  10.96995649  1.47009917 10.50010558
   1.96974533  1.47009917 10.50010558
   9.70477636  2.94019833 12.46985091
   9.70477636  2.94019833 15.00021116
   1.26518013  1.47009917 13.73503103
[...]
      9.70404      1.47226     20.40896        -0.001107      0.001137      0.161769
     12.93970      2.94117     20.07086         0.000005     -0.000465     -0.137503
      9.70478      4.41030      7.26518        -0.000037     -0.001004     -3.436662
      0.00000      5.88040      7.26518        -0.000001     -0.000218      2.700948
      0.00000      4.41030     10.50011         0.000002     -0.000369      0.564599
      9.70478      5.88040     10.50011        -0.000907     -0.000380     -0.731616
      9.70478      4.41030     13.73503        -0.006435     -0.011021      0.619373
      0.00000      5.88040     13.73503        -0.000003     -0.002989     -0.692859
     12.93970      4.41078     16.90696         0.000003     -0.000556     -0.107608
      9.70620      5.88109     17.08272         0.002210     -0.002181      0.015150
      9.70706      4.41285     20.40804        -0.002520      0.000983      0.164331
     12.93970      5.88256     20.06972        -0.000000     -0.009452     -0.139859
      3.23493      7.35050      7.26518        -0.000002      0.000314     -3.436627
      6.46985      8.82060      7.26518        -0.000003      0.000838      2.702749
      6.46985      7.35050     10.50011        -0.000003      0.003919      0.567582
      3.23493      8.82060     10.50011         0.001199      0.000653     -0.732226
      3.23493      7.35050     13.73503         0.006742     -0.004420      0.608871
      6.46985      8.82060     13.73503         0.000001     -0.008748     -0.664555
      6.46985      7.34496     16.91800         0.000003     -0.006990     -0.102153
      3.23455      8.82158     17.08150        -0.001309      0.003144      0.017303
      3.23218      7.35431     20.39946         0.018563     -0.003011      0.160440
      6.46985      8.82989     20.05787         0.000000     -0.021073     -0.140325
      3.23493     10.29069      7.26518         0.000182      0.001031     -3.437042
      6.46985      0.00000      7.26518        -0.000008      0.000270      2.702112
      6.46985     10.29069     10.50011        -0.000003      0.001515      0.569932
      3.23493      0.00000     10.50011         0.001392      0.000359     -0.730522
      3.23493     10.29069     13.73503         0.003945      0.015245      0.615895
      6.46985      0.00000     13.73503        -0.000002      0.002802     -0.720525
      6.46985     10.28947     16.89880         0.000004     -0.011322     -0.111613
      3.23493      0.00094     17.08492        -0.001258      0.001772      0.016420
      3.23640     10.29299     20.40957         0.002150      0.002067      0.162343
      6.46985      0.00189     20.06138        -0.000002      0.003295     -0.131916
      3.23493      1.47010      7.26518         0.000182     -0.000328     -3.437120
      6.46985      2.94020      7.26518        -0.000006     -0.000839      2.702226
      6.46985      1.47010     10.50011        -0.000004     -0.001848      0.569621
      3.23493      2.94020     10.50011         0.001099     -0.000677     -0.730028
      3.23493      1.47010     13.73503         0.003472      0.000054      0.626528
      6.46985      2.94020     13.73503        -0.000002      0.008332     -0.662821
      6.46985      1.47316     16.90032        -0.000003      0.002222     -0.109180
      3.23456      2.94101     17.08479        -0.002746     -0.003372      0.014858
      3.23565      1.47226     20.40896         0.001091      0.001130      0.161776
      6.46985      2.93765     20.06206         0.000002      0.004560     -0.123965
      3.23493      4.41030      7.26518         0.000040     -0.001035     -3.436679
      6.46985      5.88040      7.26518         0.000005     -0.000290      2.702638
      6.46985      4.41030     10.50011        -0.000001     -0.003583      0.567308
      3.23493      5.88040     10.50011         0.000913     -0.000388     -0.731618
      3.23493      4.41030     13.73503         0.006437     -0.011015      0.619369
      6.46985      5.88040     13.73503         0.000000     -0.002520     -0.660662
      6.46985      4.41572     16.91886         0.000001      0.014960     -0.104466
      3.23350      5.88109     17.08272        -0.002215     -0.002183      0.015150
      3.23263      4.41285     20.40804         0.002518      0.000994      0.164345
      6.46985      5.87035     20.10034         0.000005     -0.000167     -0.176589
      9.70478      8.82060      6.00000        -0.000154     -0.000495      1.557248
      9.70478      8.82060      8.53036         0.000137     -0.000329      1.907577
      1.26518      7.35050      7.26518        -1.697899     -0.000080     -0.775447
     11.67452      7.35050      7.26518         1.697899     -0.000080     -0.775446
      0.00000      8.82060      9.23493         0.000006     -0.000105     -1.514804
      0.00000      8.82060     11.76529         0.000000      0.000051     -0.005853
     10.96996      7.35050     10.50011         0.572906      0.000022      0.052501
      1.96975      7.35050     10.50011        -0.572902      0.000030      0.052497
      9.70478      8.82060     12.46985         0.000801     -0.002054     -0.215111
      9.70478      8.82060     15.00021         0.000793     -0.000333      0.206525
      1.26518      7.35050     13.73503        -0.307161      0.001435      0.085100
     11.67452      7.35050     13.73503         0.307162      0.001439      0.085093
     12.93970      8.82224     15.71864        -0.000003     -0.001719     -0.076615
      0.00000      8.82065     18.25484        -0.000001      0.002262      0.297170
     10.99834      7.35195     16.98358         0.091843      0.000068     -0.016918
      1.94136      7.35195     16.98357        -0.091842      0.000060     -0.016899
      9.71244      8.82335     18.94658         0.001012      0.004320     -0.142749
      9.69786      8.81965     21.49299        -0.006427     -0.003494      0.251214
      1.21128      7.35205     20.38970         0.176894     -0.000015      0.050103
     11.72842      7.35205     20.38969        -0.176902     -0.000013      0.050103
      9.70478      0.00000      6.00000        -0.000054     -0.000229      1.558065
      9.70478      0.00000      8.53036         0.000165     -0.000177      1.907194
      1.26518     10.29069      7.26518        -1.698023     -0.000200     -0.775318
     11.67452     10.29069      7.26518         1.698024     -0.000203     -0.775319
      0.00000      0.00000      9.23493         0.000007     -0.000108     -1.514747
      0.00000      0.00000     11.76529        -0.000001     -0.000102     -0.005722
     10.96996     10.29069     10.50011         0.572966     -0.000439      0.052466
      1.96975     10.29069     10.50011        -0.572958     -0.000447      0.052460
      9.70478      0.00000     12.46985         0.000551     -0.002910     -0.218485
      9.70478      0.00000     15.00021         0.002555     -0.000196      0.199281
      1.26518     10.29069     13.73503        -0.308005     -0.000093      0.083790
     11.67452     10.29069     13.73503         0.307998     -0.000091      0.083783
     12.93970      0.00107     15.71912        -0.000004     -0.001070     -0.075145
      0.00000      0.00074     18.25563        -0.000001     -0.000990      0.293503
     10.99812     10.29194     16.98621         0.089641      0.000990     -0.019112
      1.94157     10.29194     16.98620        -0.089648      0.000999     -0.019088
      9.70683      0.00134     18.94904         0.003591     -0.000571     -0.142999
      9.70623      0.00171     21.49476        -0.001133     -0.006511      0.248471
      1.21191     10.29185     20.38670         0.173777     -0.002986      0.051562
     11.72778     10.29185     20.38669        -0.173781     -0.002984      0.051558
      9.70478      2.94020      6.00000        -0.000099      0.000476      1.557697
      9.70478      2.94020      8.53036         0.000131      0.000325      1.907081
      1.26518      1.47010      7.26518        -1.698083      0.000070     -0.775272
     11.67452      1.47010      7.26518         1.698093      0.000071     -0.775275
      0.00000      2.94020      9.23493         0.000002      0.000131     -1.514766
      0.00000      2.94020     11.76529        -0.000001      0.000259     -0.005809
     10.96996      1.47010     10.50011         0.573035      0.000011      0.052349
      1.96975      1.47010     10.50011        -0.573036      0.000007      0.052347
      9.70478      2.94020     12.46985         0.000780      0.002304     -0.219338
      9.70478      2.94020     15.00021         0.000686      0.004097      0.202418
      1.26518      1.47010     13.73503        -0.310384      0.000412      0.082917
     11.67452      1.47010     13.73503         0.310383      0.000413      0.082909
     12.93970      2.94002     15.71909        -0.000003      0.001209     -0.077851
      0.00000      2.94254     18.25579        -0.000002     -0.003451      0.293206
     10.99826      1.47049     16.98721         0.087841     -0.001722     -0.019541
      1.94144      1.47049     16.98720        -0.087834     -0.001723     -0.019520
      9.71211      2.94015     18.94841         0.001825     -0.001415     -0.140824
      9.70296      2.94327     21.49427        -0.001786      0.006600      0.245339
      1.21143      1.47218     20.38664         0.174463     -0.000959      0.050072
     11.72826      1.47218     20.38663        -0.174466     -0.000964      0.050069
      9.70478      5.88040      6.00000        -0.000204      0.000227      1.556863
      9.70478      5.88040      8.53036         0.000117      0.000176      1.907406
      1.26518      4.41030      7.26518        -1.697971      0.000193     -0.775397
     11.67452      4.41030      7.26518         1.697964      0.000195     -0.775397
      0.00000      5.88040      9.23493        -0.000002      0.000114     -1.514818
      0.00000      5.88040     11.76529        -0.000003      0.000402     -0.005853
     10.96996      4.41030     10.50011         0.572978      0.000416      0.052396
      1.96975      4.41030     10.50011        -0.572982      0.000421      0.052397
      9.70478      5.88040     12.46985         0.001311      0.003199     -0.216168
      9.70478      5.88040     15.00021        -0.000049      0.003126      0.206923
      1.26518      4.41030     13.73503        -0.309706      0.001463      0.084388
     11.67452      4.41030     13.73503         0.309709      0.001466      0.084381
     12.93970      5.88092     15.71863        -0.000002      0.001560     -0.079606
      0.00000      5.88157     18.25464         0.000001      0.001680      0.297595
     10.99840      4.41041     16.98422         0.088707      0.000581     -0.017043
      1.94130      4.41041     16.98421        -0.088709      0.000573     -0.017026
      9.71751      5.88186     18.94708        -0.002832     -0.001398     -0.142421
      9.68711      5.88587     21.49201        -0.011560      0.000888      0.248228
      1.21150      4.41319     20.39039         0.175822      0.002688      0.049500
     11.72820      4.41319     20.39038        -0.175823      0.002686      0.049491
      3.23493      8.82060      6.00000         0.000153     -0.000490      1.557244
      3.23493      8.82060      8.53036        -0.000140     -0.000324      1.907590
      7.73503      7.35050      7.26518        -1.697744     -0.000208     -0.775903
      5.20467      7.35050      7.26518         1.697751     -0.000204     -0.775905
      6.46985      8.82060      9.23493        -0.000001     -0.000853     -1.517317
      6.46985      8.82060     11.76529        -0.000002     -0.001798     -0.016057
      4.50011      7.35050     10.50011         0.571379     -0.000163      0.052299
      8.43960      7.35050     10.50011        -0.571380     -0.000171      0.052299
      3.23493      8.82060     12.46985        -0.000803     -0.002051     -0.215116
      3.23493      8.82060     15.00021        -0.000781     -0.000335      0.206524
      7.73503      7.35050     13.73503        -0.300794     -0.009640      0.080279
      5.20467      7.35050     13.73503         0.300791     -0.009640      0.080271
      6.46985      8.81545     15.71785        -0.000000      0.003257     -0.071361
      6.46985      8.82662     18.24533         0.000000      0.005511      0.291298
      4.52556      7.35049     16.98996         0.101087      0.002223     -0.015495
      8.41414      7.35049     16.98996        -0.101083      0.002218     -0.015470
      3.22725      8.82335     18.94658        -0.001016      0.004319     -0.142737
      3.24184      8.81965     21.49299         0.006427     -0.003487      0.251201
      7.68490      7.36358     20.36221         0.166782      0.009859      0.043252
      5.25479      7.36358     20.36221        -0.166779      0.009857      0.043251
      3.23493      0.00000      6.00000         0.000055     -0.000227      1.558074
      3.23493      0.00000      8.53036        -0.000164     -0.000178      1.907188
      7.73503     10.29069      7.26518        -1.697783     -0.000329     -0.775655
      5.20467     10.29069      7.26518         1.697779     -0.000322     -0.775650
      6.46985      0.00000      9.23493        -0.000003     -0.000003     -1.517647
      6.46985      0.00000     11.76529        -0.000001      0.000056     -0.019605
      4.50011     10.29069     10.50011         0.570732     -0.000481      0.052155
      8.43960     10.29069     10.50011        -0.570741     -0.000475      0.052160
      3.23493      0.00000     12.46985        -0.000549     -0.002907     -0.218488
      3.23493      0.00000     15.00021        -0.002541     -0.000193      0.199281
      7.73503     10.29069     13.73503        -0.301005     -0.003518      0.083654
      5.20467     10.29069     13.73503         0.301009     -0.003515      0.083649
      6.46985      0.00092     15.71404        -0.000002      0.001153     -0.071160
      6.46985      0.00140     18.24731         0.000000      0.000545      0.285443
      4.52636     10.29151     16.98539         0.095605     -0.000527     -0.019418
      8.41334     10.29151     16.98538        -0.095604     -0.000535     -0.019392
      3.23286      0.00134     18.94903        -0.003594     -0.000572     -0.142994
      3.23347      0.00171     21.49476         0.001131     -0.006518      0.248474
      7.68400     10.29637     20.37353         0.165683      0.001076      0.052650
      5.25570     10.29637     20.37352        -0.165678      0.001073      0.052648
      3.23493      2.94020      6.00000         0.000102      0.000468      1.557700
      3.23493      2.94020      8.53036        -0.000129      0.000314      1.907076
      7.73503      1.47010      7.26518        -1.697836      0.000188     -0.775562
      5.20467      1.47010      7.26518         1.697838      0.000188     -0.775558
      6.46985      2.94020      9.23493        -0.000002      0.000846     -1.517009
      6.46985      2.94020     11.76529        -0.000000      0.001999     -0.013757
      4.50011      1.47010     10.50011         0.570940      0.000080      0.052082
      8.43960      1.47010     10.50011        -0.570936      0.000083      0.052084
      3.23493      2.94020     12.46985        -0.000781      0.002301     -0.219334
      3.23493      2.94020     15.00021        -0.000674      0.004101      0.202416
      7.73503      1.47010     13.73503        -0.304162      0.004793      0.083123
      5.20467      1.47010     13.73503         0.304155      0.004795      0.083118
      6.46985      2.94636     15.71880        -0.000003     -0.001267     -0.079892
      6.46985      2.93467     18.24817         0.000001     -0.006428      0.290947
      4.52630      1.47090     16.98583         0.093199      0.000055     -0.019395
      8.41340      1.47090     16.98582        -0.093204      0.000054     -0.019370
      3.22758      2.94015     18.94841        -0.001828     -0.001414     -0.140819
      3.23673      2.94327     21.49427         0.001783      0.006603      0.245340
      7.68354      1.46969     20.38024         0.164218     -0.002385      0.048595
      5.25615      1.46969     20.38024        -0.164211     -0.002391      0.048595
      3.23493      5.88040      6.00000         0.000204      0.000228      1.556850
      3.23493      5.88040      8.53036        -0.000120      0.000182      1.907413
      7.73503      4.41030      7.26518        -1.697803      0.000332     -0.775811
      5.20467      4.41030      7.26518         1.697805      0.000326     -0.775814
      6.46985      5.88040      9.23493         0.000002      0.000029     -1.516425
      6.46985      5.88040     11.76529         0.000000      0.000094     -0.001256
      4.50011      4.41030     10.50011         0.571574      0.000572      0.052216
      8.43960      4.41030     10.50011        -0.571568      0.000574      0.052218
      3.23493      5.88040     12.46985        -0.001312      0.003197     -0.216167
      3.23493      5.88040     15.00021         0.000058      0.003119      0.206920
      7.73503      4.41030     13.73503        -0.303603      0.010291      0.079487
      5.20467      4.41030     13.73503         0.303597      0.010289      0.079480
      6.46985      5.88022     15.72265         0.000001     -0.001027     -0.075867
      6.46985      5.88117     18.26787         0.000002      0.002963      0.241528
      4.52574      4.41161     16.99115         0.098936     -0.001120     -0.015182
      8.41396      4.41161     16.99114        -0.098938     -0.001114     -0.015158
      3.22218      5.88187     18.94708         0.002828     -0.001392     -0.142403
      3.25259      5.88587     21.49202         0.011555      0.000879      0.248206
      7.68763      4.40065     20.35525         0.163434     -0.000020      0.040931
      5.25206      4.40065     20.35525        -0.163430     -0.000022      0.040925
 -----------------------------------------------------------------------------------
    total drift:                               -0.000023      0.000941     -0.034184


--------------------------------------------------------------------------------------------------------



  FREE ENERGIE OF THE ION-ELECTRON SYSTEM (eV)
  ---------------------------------------------------
  free  energy   TOTEN  =     -2148.37347288 eV

  energy  without entropy=    -2148.37347288  energy(sigma->0) =    -2148.37347288
 


--------------------------------------------------------------------------------------------------------


    POTLOK:  cpu time      0.1946: real time      0.1952


--------------------------------------------------------------------------------------------------------


     LOOP+:  cpu time   1628.8165: real time   1637.4669
    4ORBIT:  cpu time      0.0000: real time      0.0000

 total amount of memory used by VASP MPI-rank0   664496. kBytes
=======================================================================

   base      :      30000. kBytes
   nonl-proj :     432944. kBytes
   fftplans  :      37178. kBytes
   grid      :      52746. kBytes
   one-center:       1897. kBytes
   wavefun   :     109731. kBytes
 
  
  
 General timing and accounting informations for this job:
 ========================================================
  
                  Total CPU time used (sec):     1671.845
                            User time (sec):     1666.035
                          System time (sec):        5.810
                         Elapsed time (sec):     1681.421
  
                   Maximum memory used (kb):     1214336.
                   Average memory used (kb):          N/A
  
                          Minor page faults:       114466
                          Major page faults:          120
                 Voluntary context switches:         3227
