 vasp.6.4.2 20Jul23 (build Feb 22 2024 13:53:45) complex                         
 executed on              LinuxNV date 2024.08.27  18:29:43
 running    4 mpi-ranks, with    1 threads/rank, on    1 nodes
 distrk:  each k-point on    4 cores,    1 groups
 distr:  one band on NCORE=   1 cores,    4 groups
 OpenACC runtime initialized ...    4 GPUs detected


--------------------------------------------------------------------------------------------------------


 INCAR:
   SYSTEM = Oxide-Surface
   ISMEAR = 0
   SIGMA = 0.05
   EDIFF = 1E-5
   ALGO = Normal
   IBRION = -1
   NSW = 0
   ISYM = 0
   DIPOL = 0.5 0.5 0.5
   IDIPOL = 3
   LDIPOL = .TRUE.
   ISTART = 1
   GGA = PE
   IVDW = 11
   ENCUT = 1000
   PREC = Normal
   PRECFOCK = Normal
   LASPH = .TRUE.
   LREAL = Auto
   ISPIN = 1
   NELM = 200
   NELMIN = 8
   NCORE = 1
   KPAR = 1
   LWAVE = .FALSE.
   LCHARG = .FALSE.

 POTCAR:    PAW_PBE H_h 06Feb2004                 
 POTCAR:    PAW_PBE O_h 06Feb2004                 
 POTCAR:    PAW_PBE Mg_sv 12Apr2007               
 POTCAR:    PAW_PBE O_h 06Feb2004                 
 POTCAR:    PAW_PBE H_h 06Feb2004                 
   SHA256 =  143491dd1ce685661e07aa76f96d5d154a7e3c51c1da76ab67ad499446e4b766 H_h/POTCAR            
   COPYR  = (c) Copyright 06Feb2004 Georg Kresse                                                    
   COPYR  = This file is part of the software VASP. Any use, copying, and all other rights are regul
   COPYR  = If you do not have a valid VASP license, you may not use, copy or distribute this file. 
   VRHFIN =H: ultrasoft test                                                                        
   LEXCH  = PE                                                                                      
   EATOM  =    12.4884 eV,    0.9179 Ry                                                             
                                                                                                    
   TITEL  = PAW_PBE H_h 06Feb2004                                                                   
   LULTRA =        F    use ultrasoft PP ?                                                          
   IUNSCR =        0    unscreen: 0-lin 1-nonlin 2-no                                               
   RPACOR =    0.000    partial core radius                                                         
   POMASS =    1.000; ZVAL   =    1.000    mass and valenz                                          
   RCORE  =    0.800    outmost cutoff radius                                                       
   RWIGS  =    0.700; RWIGS  =    0.370    wigner-seitz radius (au A)                               
   ENMAX  =  700.000; ENMIN  =  350.000 eV                                                          
   RCLOC  =    0.701    cutoff for local pot                                                        
   LCOR   =        T    correct aug charges                                                         
   LPAW   =        T    paw PP                                                                      
   EAUG   = 1000.000                                                                                
   RMAX   =    0.819    core radius for proj-oper                                                   
   RAUG   =    1.000    factor for augmentation sphere                                              
   RDEP   =    0.817    radius for radial grids                                                     
   RDEPT  =    0.817    core radius for aug-charge                                                  
                                                                                                    
   Atomic configuration                                                                             
    2 entries                                                                                       
     n  l   j            E        occ.                                                              
     1  0  0.50        -6.4927   1.0000                                                             
     2  1  0.50        -3.4015   0.0000                                                             
   Description                                                                                      
     l       E           TYP  RCUT    TYP  RCUT                                                     
     0     -6.4927493     23  0.800                                                                 
     0      6.8029130     23  0.800                                                                 
     1     -6.8029130     23  0.800                                                                 
  local pseudopotential read in
  atomic valenz-charges read in
  non local Contribution for L=            0  read in
    real space projection operators read in
  non local Contribution for L=            0  read in
    real space projection operators read in
  non local Contribution for L=            1  read in
    real space projection operators read in
    PAW grid and wavefunctions read in
 
   number of l-projection  operators is LMAX  =            3
   number of lm-projection operators is LMMAX =            5
 
 POTCAR:    PAW_PBE O_h 06Feb2004                 
   SHA256 =  7d3976308dcfb86c51a8aa000428ccf502aeca0a26316d98530ed0719b164db2 O_h/POTCAR            
   COPYR  = (c) Copyright 06Feb2004 Georg Kresse                                                    
   COPYR  = This file is part of the software VASP. Any use, copying, and all other rights are regul
   COPYR  = If you do not have a valid VASP license, you may not use, copy or distribute this file. 
   VRHFIN =O: s2p4                                                                                  
   LEXCH  = PE                                                                                      
   EATOM  =   432.3788 eV,   31.7789 Ry                                                             
                                                                                                    
   TITEL  = PAW_PBE O_h 06Feb2004                                                                   
   LULTRA =        F    use ultrasoft PP ?                                                          
   IUNSCR =        1    unscreen: 0-lin 1-nonlin 2-no                                               
   RPACOR =    0.800    partial core radius                                                         
   POMASS =   16.000; ZVAL   =    6.000    mass and valenz                                          
   RCORE  =    1.100    outmost cutoff radius                                                       
   RWIGS  =    1.400; RWIGS  =    0.741    wigner-seitz radius (au A)                               
   ENMAX  =  700.000; ENMIN  =  500.000 eV                                                          
   ICORE  =        2    local potential                                                             
   LCOR   =        T    correct aug charges                                                         
   LPAW   =        T    paw PP                                                                      
   EAUG   =  888.804                                                                                
   DEXC   =    0.000                                                                                
   RMAX   =    1.128    core radius for proj-oper                                                   
   RAUG   =    1.300    factor for augmentation sphere                                              
   RDEP   =    1.125    radius for radial grids                                                     
   RDEPT  =    1.088    core radius for aug-charge                                                  
                                                                                                    
   Atomic configuration                                                                             
    4 entries                                                                                       
     n  l   j            E        occ.                                                              
     1  0  0.50      -514.6923   2.0000                                                             
     2  0  0.50       -23.9615   2.0000                                                             
     2  1  0.50        -9.0305   4.0000                                                             
     3  2  1.50        -9.5241   0.0000                                                             
   Description                                                                                      
     l       E           TYP  RCUT    TYP  RCUT                                                     
     0    -23.9615319     23  1.100                                                                 
     0    -25.3221145     23  1.100                                                                 
     1     -9.0304911     23  1.100                                                                 
     1     -5.4802209     23  1.100                                                                 
     2     -9.5240782      7  1.100                                                                 
  local pseudopotential read in
  partial core-charges read in
  partial kinetic energy density read in
  atomic valenz-charges read in
  non local Contribution for L=            0  read in
    real space projection operators read in
  non local Contribution for L=            0  read in
    real space projection operators read in
  non local Contribution for L=            1  read in
    real space projection operators read in
  non local Contribution for L=            1  read in
    real space projection operators read in
    PAW grid and wavefunctions read in
 
   number of l-projection  operators is LMAX  =            4
   number of lm-projection operators is LMMAX =            8
 
 POTCAR:    PAW_PBE Mg_sv 12Apr2007               
   SHA256 =  c031e1d7f73808198b463395d641520b61dff8900336e561361552d85f4fc16c Mg_sv/POTCAR          
   COPYR  = (c) Copyright 12Apr2007 Georg Kresse                                                    
   COPYR  = This file is part of the software VASP. Any use, copying, and all other rights are regul
   COPYR  = If you do not have a valid VASP license, you may not use, copy or distribute this file. 
   VRHFIN =Mg: p6s2                                                                                 
   LEXCH  = PE                                                                                      
   EATOM  =  1728.4457 eV,  127.0372 Ry                                                             
                                                                                                    
   TITEL  = PAW_PBE Mg_sv 12Apr2007                                                                 
   LULTRA =        F    use ultrasoft PP ?                                                          
   IUNSCR =        0    unscreen: 0-lin 1-nonlin 2-no                                               
   RPACOR =    0.000    partial core radius                                                         
   POMASS =   24.305; ZVAL   =   10.000    mass and valenz                                          
   RCORE  =    1.700    outmost cutoff radius                                                       
   RWIGS  =    1.800; RWIGS  =    0.953    wigner-seitz radius (au A)                               
   ENMAX  =  495.223; ENMIN  =  371.417 eV                                                          
   RCLOC  =    1.506    cutoff for local pot                                                        
   LCOR   =        T    correct aug charges                                                         
   LPAW   =        T    paw PP                                                                      
   EAUG   =  980.156                                                                                
   RMAX   =    1.743    core radius for proj-oper                                                   
   RAUG   =    1.300    factor for augmentation sphere                                              
   RDEP   =    1.781    radius for radial grids                                                     
   RDEPT  =    1.300    core radius for aug-charge                                                  
                                                                                                    
   Atomic configuration                                                                             
    5 entries                                                                                       
     n  l   j            E        occ.                                                              
     1  0  0.50     -1259.6230   2.0000                                                             
     2  0  0.50       -79.8442   2.0000                                                             
     3  0  0.50        -4.7055   2.0000                                                             
     2  1  1.50       -46.6121   6.0000                                                             
     3  2  1.50        -1.3606   0.0000                                                             
   Description                                                                                      
     l       E           TYP  RCUT    TYP  RCUT                                                     
     0    -79.8442259     23  1.200                                                                 
     0     -4.7054661     23  1.700                                                                 
     1    -46.6121068     23  1.500                                                                 
     1      6.8029130     23  1.500                                                                 
     2     -1.3605826     23  1.700                                                                 
  local pseudopotential read in
  atomic valenz-charges read in
  non local Contribution for L=            0  read in
    real space projection operators read in
  non local Contribution for L=            0  read in
    real space projection operators read in
  non local Contribution for L=            1  read in
    real space projection operators read in
  non local Contribution for L=            1  read in
    real space projection operators read in
  non local Contribution for L=            2  read in
    real space projection operators read in
    PAW grid and wavefunctions read in
 
   number of l-projection  operators is LMAX  =            5
   number of lm-projection operators is LMMAX =           13
 
 POTCAR:    PAW_PBE O_h 06Feb2004                 
   SHA256 =  7d3976308dcfb86c51a8aa000428ccf502aeca0a26316d98530ed0719b164db2 O_h/POTCAR            
   COPYR  = (c) Copyright 06Feb2004 Georg Kresse                                                    
   COPYR  = This file is part of the software VASP. Any use, copying, and all other rights are regul
   COPYR  = If you do not have a valid VASP license, you may not use, copy or distribute this file. 
   VRHFIN =O: s2p4                                                                                  
   LEXCH  = PE                                                                                      
   EATOM  =   432.3788 eV,   31.7789 Ry                                                             
                                                                                                    
   TITEL  = PAW_PBE O_h 06Feb2004                                                                   
   LULTRA =        F    use ultrasoft PP ?                                                          
   IUNSCR =        1    unscreen: 0-lin 1-nonlin 2-no                                               
   RPACOR =    0.800    partial core radius                                                         
   POMASS =   16.000; ZVAL   =    6.000    mass and valenz                                          
   RCORE  =    1.100    outmost cutoff radius                                                       
   RWIGS  =    1.400; RWIGS  =    0.741    wigner-seitz radius (au A)                               
   ENMAX  =  700.000; ENMIN  =  500.000 eV                                                          
   ICORE  =        2    local potential                                                             
   LCOR   =        T    correct aug charges                                                         
   LPAW   =        T    paw PP                                                                      
   EAUG   =  888.804                                                                                
   DEXC   =    0.000                                                                                
   RMAX   =    1.128    core radius for proj-oper                                                   
   RAUG   =    1.300    factor for augmentation sphere                                              
   RDEP   =    1.125    radius for radial grids                                                     
   RDEPT  =    1.088    core radius for aug-charge                                                  
                                                                                                    
   Atomic configuration                                                                             
    4 entries                                                                                       
     n  l   j            E        occ.                                                              
     1  0  0.50      -514.6923   2.0000                                                             
     2  0  0.50       -23.9615   2.0000                                                             
     2  1  0.50        -9.0305   4.0000                                                             
     3  2  1.50        -9.5241   0.0000                                                             
   Description                                                                                      
     l       E           TYP  RCUT    TYP  RCUT                                                     
     0    -23.9615319     23  1.100                                                                 
     0    -25.3221145     23  1.100                                                                 
     1     -9.0304911     23  1.100                                                                 
     1     -5.4802209     23  1.100                                                                 
     2     -9.5240782      7  1.100                                                                 
  local pseudopotential read in
  partial core-charges read in
  partial kinetic energy density read in
  atomic valenz-charges read in
  non local Contribution for L=            0  read in
    real space projection operators read in
  non local Contribution for L=            0  read in
    real space projection operators read in
  non local Contribution for L=            1  read in
    real space projection operators read in
  non local Contribution for L=            1  read in
    real space projection operators read in
    PAW grid and wavefunctions read in
 
   number of l-projection  operators is LMAX  =            4
   number of lm-projection operators is LMMAX =            8
 
 Optimization of the real space projectors (new method)

 maximal supplied QI-value         = 47.24
 optimisation between [QCUT,QGAM] = [ 16.06, 32.13] = [ 72.25,289.00] Ry 
 Optimized for a Real-space Cutoff    0.82 Angstroem

   l    n(q)    QCUT    max X(q) W(low)/X(q) W(high)/X(q)  e(spline) 
   0      8    16.063    34.671    0.37E-03    0.85E-03    0.24E-06
   0      8    16.063    17.046    0.36E-03    0.82E-03    0.23E-06
   1      7    16.063     1.978    0.22E-03    0.92E-04    0.15E-06
 Optimization of the real space projectors (new method)

 maximal supplied QI-value         = 34.20
 optimisation between [QCUT,QGAM] = [ 16.08, 32.15] = [ 72.37,289.48] Ry 
 Optimized for a Real-space Cutoff    0.71 Angstroem

   l    n(q)    QCUT    max X(q) W(low)/X(q) W(high)/X(q)  e(spline) 
   0      7    16.076   280.207    0.42E-03    0.69E-03    0.60E-07
   0      7    16.076   228.978    0.42E-03    0.69E-03    0.61E-07
   1      6    16.076    86.127    0.11E-03    0.66E-03    0.10E-06
   1      6    16.076    65.368    0.11E-03    0.65E-03    0.10E-06
 Optimization of the real space projectors (new method)

 maximal supplied QI-value         = 22.11
 optimisation between [QCUT,QGAM] = [ 16.14, 32.28] = [ 72.95,291.79] Ry 
 Optimized for a Real-space Cutoff    0.98 Angstroem

   l    n(q)    QCUT    max X(q) W(low)/X(q) W(high)/X(q)  e(spline) 
   0      9    16.140     8.730    0.14E-04    0.12E-04    0.27E-07
   0      9    16.140     8.910    0.19E-04    0.17E-04    0.41E-07
   1      9    16.140     2.513    0.16E-04    0.28E-04    0.54E-07
   1      9    16.140     3.341    0.27E-04    0.13E-03    0.17E-06
   2      9    16.140     3.683    0.18E-03    0.21E-03    0.81E-07
 Optimization of the real space projectors (new method)

 maximal supplied QI-value         = 34.20
 optimisation between [QCUT,QGAM] = [ 16.08, 32.15] = [ 72.37,289.48] Ry 
 Optimized for a Real-space Cutoff    0.71 Angstroem

   l    n(q)    QCUT    max X(q) W(low)/X(q) W(high)/X(q)  e(spline) 
   0      7    16.076   280.207    0.42E-03    0.69E-03    0.60E-07
   0      7    16.076   228.978    0.42E-03    0.69E-03    0.61E-07
   1      6    16.076    86.127    0.11E-03    0.66E-03    0.10E-06
   1      6    16.076    65.368    0.11E-03    0.65E-03    0.10E-06
  PAW_PBE H_h 06Feb2004                 :
 energy of atom  1       EATOM=  -12.4884
 kinetic energy error for atom=    0.0006 (will be added to EATOM!!)
  PAW_PBE O_h 06Feb2004                 :
 energy of atom  2       EATOM= -432.3788
 kinetic energy error for atom=    0.0171 (will be added to EATOM!!)
  PAW_PBE Mg_sv 12Apr2007               :
 energy of atom  3       EATOM=-1728.4457
 kinetic energy error for atom=    0.0076 (will be added to EATOM!!)
  PAW_PBE O_h 06Feb2004                 :
 energy of atom  4       EATOM= -432.3788
 kinetic energy error for atom=    0.0171 (will be added to EATOM!!)
 
 
 POSCAR:  H  O Mg  O
  positions in direct lattice
  No initial velocities read in
 exchange correlation table for  LEXCH =        8
   RHO(1)=    0.500       N(1)  =     2000
   RHO(2)=  100.500       N(2)  =     4000
 


--------------------------------------------------------------------------------------------------------


 ion  position               nearest neighbor table
   1  0.617  0.554  0.761-   3 0.97
   2  0.510  0.673  0.712-   3 1.01
   3  0.508  0.572  0.744-   1 0.97   2 1.01
   4  0.000  0.750  0.239-
   5  0.250  0.000  0.239-
   6  0.000  0.000  0.364-
   7  0.250  0.750  0.364-
   8  0.000  0.750  0.488-
   9  0.250  0.000  0.488-
  10  0.000  0.000  0.612-
  11  0.248  0.750  0.612-
  12  0.000  0.250  0.239-
  13  0.250  0.500  0.239-
  14  0.000  0.500  0.364-
  15  0.250  0.250  0.364-
  16  0.000  0.250  0.488-
  17  0.251  0.500  0.489-
  18  0.001  0.500  0.612-
  19  0.249  0.250  0.612-
  20  0.500  0.750  0.239-
  21  0.750  0.000  0.239-
  22  0.500  0.000  0.364-
  23  0.750  0.750  0.364-
  24  0.500  0.749  0.489-
  25  0.750  0.000  0.488-
  26  0.500  0.002  0.612-
  27  0.753  0.751  0.611-
  28  0.500  0.250  0.239-
  29  0.750  0.500  0.239-
  30  0.500  0.500  0.364-
  31  0.750  0.250  0.364-
  32  0.500  0.251  0.489-
  33  0.749  0.500  0.489-
  34  0.498  0.494  0.618-
  35  0.751  0.250  0.612-
  36  0.000  0.750  0.364-
  37  0.250  0.000  0.364-
  38  0.000  0.000  0.239-
  39  0.250  0.750  0.239-
  40  1.000  0.750  0.615-
  41  0.249  1.000  0.615-
  42  1.000  1.000  0.488-
  43  0.251  0.750  0.488-
  44  0.000  0.250  0.364-
  45  0.250  0.500  0.364-
  46  0.000  0.500  0.239-
  47  0.250  0.250  0.239-
  48  1.000  0.250  0.615-
  49  0.248  0.500  0.613-
  50  1.000  0.500  0.488-
  51  0.250  0.250  0.488-
  52  0.500  0.750  0.364-
  53  0.750  0.000  0.364-
  54  0.500  0.000  0.239-
  55  0.750  0.750  0.239-
  56  0.500  0.754  0.618-
  57  0.751  1.000  0.615-
  58  0.500  0.999  0.488-
  59  0.749  0.750  0.488-
  60  0.500  0.250  0.364-
  61  0.750  0.500  0.364-
  62  0.500  0.500  0.239-
  63  0.750  0.250  0.239-
  64  0.500  0.248  0.615-
  65  0.752  0.500  0.615-
  66  0.500  0.501  0.489-
  67  0.750  0.250  0.488-
 

IMPORTANT INFORMATION: All symmetrisations will be switched off!
NOSYMM: (Re-)initialisation of all symmetry stuff for point group C_1.


----------------------------------------------------------------------------------------

                                     Primitive cell                                     

  volume of cell :    1211.2538

  direct lattice vectors                    reciprocal lattice vectors
     8.440984654  0.000000000  0.000000000     0.118469591  0.000000000  0.000000000
     0.000000000  8.440984654  0.000000000     0.000000000  0.118469591  0.000000000
     0.000000000  0.000000000 17.000000000     0.000000000  0.000000000  0.058823529

  length of vectors
     8.440984654  8.440984654 17.000000000     0.118469591  0.118469591  0.058823529

  position of ions in fractional coordinates (direct lattice)
     0.616832100  0.554429713  0.760553841
     0.510014054  0.672845498  0.712302790
     0.507589782  0.572189385  0.744476833
     0.000084749  0.750056171  0.239446159
     0.250084749  0.000056171  0.239446159
     0.000084749  0.000056171  0.363578286
     0.250084749  0.750056171  0.363578286
     0.000292034  0.749824964  0.488119943
     0.250127698  0.000181851  0.488431874
     0.000158555  0.000466213  0.612094268
     0.247767905  0.749974041  0.611893376
     0.000084749  0.250056171  0.239446159
     0.250084749  0.500056171  0.239446159
     0.000084749  0.500056171  0.363578286
     0.250084749  0.250056171  0.363578286
     0.000116012  0.250196651  0.488268359
     0.250770752  0.499798843  0.488884857
     0.000510418  0.499570052  0.611813977
     0.249067721  0.249912005  0.612281031
     0.500084749  0.750056171  0.239446159
     0.750084749  0.000056171  0.239446159
     0.500084749  0.000056171  0.363578286
     0.750084749  0.750056171  0.363578286
     0.499810778  0.749036438  0.488828048
     0.749862546  0.000340508  0.488298782
     0.499761848  0.002048857  0.612169767
     0.752549470  0.750728058  0.610753521
     0.500084749  0.250056171  0.239446159
     0.750084749  0.500056171  0.239446159
     0.500084749  0.500056171  0.363578286
     0.750084749  0.250056171  0.363578286
     0.499866424  0.250603695  0.488721432
     0.749099841  0.499734903  0.488964189
     0.498205335  0.493574688  0.618100110
     0.750753975  0.249613073  0.611923847
     0.000084749  0.750056171  0.363578286
     0.250084749  0.000056171  0.363578286
     0.000084749  0.000056171  0.239446159
     0.250084749  0.750056171  0.239446159
     0.999857188  0.750394105  0.614566772
     0.249346556  0.999943829  0.614781797
     0.999915251  0.999830927  0.487959860
     0.250643896  0.750289407  0.488342652
     0.000084749  0.250056171  0.363578286
     0.250084749  0.500056171  0.363578286
     0.000084749  0.500056171  0.239446159
     0.250084749  0.250056171  0.239446159
     0.999828427  0.249634011  0.614770607
     0.248265660  0.500148340  0.613489608
     0.999666695  0.500164134  0.487824047
     0.249993932  0.249673109  0.488045416
     0.500084749  0.750056171  0.363578286
     0.750084749  0.000056171  0.363578286
     0.500084749  0.000056171  0.239446159
     0.750084749  0.750056171  0.239446159
     0.500208490  0.754444867  0.617976523
     0.750578969  0.999922121  0.614742452
     0.500080035  0.999350643  0.488242651
     0.749413318  0.750087637  0.488265164
     0.500084749  0.250056171  0.363578286
     0.750084749  0.500056171  0.363578286
     0.500084749  0.500056171  0.239446159
     0.750084749  0.250056171  0.239446159
     0.500099799  0.247787997  0.614504174
     0.751766757  0.500350148  0.615182713
     0.500235346  0.500508510  0.489332342
     0.749985949  0.249943297  0.488132887

  ion indices of the primitive-cell ions
   primitive index   ion index
                 1           1
                 2           2
                 3           3
                 4           4
                 5           5
                 6           6
                 7           7
                 8           8
                 9           9
                10          10
                11          11
                12          12
                13          13
                14          14
                15          15
                16          16
                17          17
                18          18
                19          19
                20          20
                21          21
                22          22
                23          23
                24          24
                25          25
                26          26
                27          27
                28          28
                29          29
                30          30
                31          31
                32          32
                33          33
                34          34
                35          35
                36          36
                37          37
                38          38
                39          39
                40          40
                41          41
                42          42
                43          43
                44          44
                45          45
                46          46
                47          47
                48          48
                49          49
                50          50
                51          51
                52          52
                53          53
                54          54
                55          55
                56          56
                57          57
                58          58
                59          59
                60          60
                61          61
                62          62
                63          63
                64          64
                65          65
                66          66
                67          67

----------------------------------------------------------------------------------------

 
 
 KPOINTS: pymatgen v2020.8.13 with grid density = 

Automatic generation of k-mesh.
 Grid dimensions read from file:
 generate k-points for:    2    2    1

 Generating k-lattice:

  Cartesian coordinates                     Fractional coordinates (reciprocal lattice)
     0.059234796  0.000000000  0.000000000     0.500000000  0.000000000  0.000000000
     0.000000000  0.059234796  0.000000000     0.000000000  0.500000000  0.000000000
     0.000000000  0.000000000  0.058823529     0.000000000  0.000000000  1.000000000

  Length of vectors
     0.059234796  0.059234796  0.058823529

  Shift w.r.t. Gamma in fractional coordinates (k-lattice)
     0.000000000  0.000000000  0.000000000

 
 Subroutine IBZKPT returns following result:
 ===========================================
 
 Found      4 irreducible k-points:
 
 Following reciprocal coordinates:
            Coordinates               Weight
  0.000000  0.000000  0.000000      1.000000
  0.500000  0.000000  0.000000      1.000000
  0.000000  0.500000  0.000000      1.000000
  0.500000  0.500000  0.000000      1.000000
 
 Following cartesian coordinates:
            Coordinates               Weight
  0.000000  0.000000  0.000000      1.000000
  0.059235  0.000000  0.000000      1.000000
  0.000000  0.059235  0.000000      1.000000
  0.059235  0.059235  0.000000      1.000000
 


--------------------------------------------------------------------------------------------------------




 Dimension of arrays:
   k-points           NKPTS =      4   k-points in BZ     NKDIM =      4   number of bands    NBANDS=    312
   number of dos      NEDOS =    301   number of ions     NIONS =     67
   non local maximal  LDIM  =      5   non local SUM 2l+1 LMDIM =     13
   total plane-waves  NPLWV = 686000
   max r-space proj   IRMAX =   2301   max aug-charges    IRDMAX=   7801
   dimension x,y,z NGX =    70 NGY =   70 NGZ =  140
   dimension x,y,z NGXF=   140 NGYF=  140 NGZF=  280
   support grid    NGXF=   140 NGYF=  140 NGZF=  280
   ions per type =               2   1  32  32
   NGX,Y,Z   is equivalent  to a cutoff of  13.79, 13.79, 13.69 a.u.
   NGXF,Y,Z  is equivalent  to a cutoff of  27.57, 27.57, 27.38 a.u.

 SYSTEM =  Oxide-Surface                           
 POSCAR =   H  O Mg  O                             

     8.440984654  8.440984654 17.000000000     0.118469591  0.118469591  0.058823529


 
 old parameters found on file WAVECAR:
  energy-cutoff  :     1000.00
  volume of cell :     1211.25
      direct lattice vectors                 reciprocal lattice vectors
     8.440984654  0.000000000  0.000000000     0.118469591  0.000000000  0.000000000
     0.000000000  8.440984654  0.000000000     0.000000000  0.118469591  0.000000000
     0.000000000  0.000000000 17.000000000     0.000000000  0.000000000  0.058823529

  length of vectors

 
 k-points in units of 2pi/SCALE and weight: pymatgen v2020.8.13 with grid density = 
   0.00000000  0.00000000  0.00000000       0.250
   0.05923480  0.00000000  0.00000000       0.250
   0.00000000  0.05923480  0.00000000       0.250
   0.05923480  0.05923480  0.00000000       0.250
 
 k-points in reciprocal lattice and weights: pymatgen v2020.8.13 with grid density = 
   0.00000000  0.00000000  0.00000000       0.250
   0.50000000  0.00000000  0.00000000       0.250
   0.00000000  0.50000000  0.00000000       0.250
   0.50000000  0.50000000  0.00000000       0.250
 
 position of ions in fractional coordinates (direct lattice) 
   0.61683210  0.55442971  0.76055384
   0.51001405  0.67284550  0.71230279
   0.50758978  0.57218939  0.74447683
   0.00008475  0.75005617  0.23944616
   0.25008475  0.00005617  0.23944616
   0.00008475  0.00005617  0.36357829
   0.25008475  0.75005617  0.36357829
   0.00029203  0.74982496  0.48811994
   0.25012770  0.00018185  0.48843187
   0.00015856  0.00046621  0.61209427
   0.24776790  0.74997404  0.61189338
   0.00008475  0.25005617  0.23944616
   0.25008475  0.50005617  0.23944616
   0.00008475  0.50005617  0.36357829
   0.25008475  0.25005617  0.36357829
   0.00011601  0.25019665  0.48826836
   0.25077075  0.49979884  0.48888486
   0.00051042  0.49957005  0.61181398
   0.24906772  0.24991200  0.61228103
   0.50008475  0.75005617  0.23944616
   0.75008475  0.00005617  0.23944616
   0.50008475  0.00005617  0.36357829
   0.75008475  0.75005617  0.36357829
   0.49981078  0.74903644  0.48882805
   0.74986255  0.00034051  0.48829878
   0.49976185  0.00204886  0.61216977
   0.75254947  0.75072806  0.61075352
   0.50008475  0.25005617  0.23944616
   0.75008475  0.50005617  0.23944616
   0.50008475  0.50005617  0.36357829
   0.75008475  0.25005617  0.36357829
   0.49986642  0.25060370  0.48872143
   0.74909984  0.49973490  0.48896419
   0.49820533  0.49357469  0.61810011
   0.75075398  0.24961307  0.61192385
   0.00008475  0.75005617  0.36357829
   0.25008475  0.00005617  0.36357829
   0.00008475  0.00005617  0.23944616
   0.25008475  0.75005617  0.23944616
   0.99985719  0.75039411  0.61456677
   0.24934656  0.99994383  0.61478180
   0.99991525  0.99983093  0.48795986
   0.25064390  0.75028941  0.48834265
   0.00008475  0.25005617  0.36357829
   0.25008475  0.50005617  0.36357829
   0.00008475  0.50005617  0.23944616
   0.25008475  0.25005617  0.23944616
   0.99982843  0.24963401  0.61477061
   0.24826566  0.50014834  0.61348961
   0.99966669  0.50016413  0.48782405
   0.24999393  0.24967311  0.48804542
   0.50008475  0.75005617  0.36357829
   0.75008475  0.00005617  0.36357829
   0.50008475  0.00005617  0.23944616
   0.75008475  0.75005617  0.23944616
   0.50020849  0.75444487  0.61797652
   0.75057897  0.99992212  0.61474245
   0.50008003  0.99935064  0.48824265
   0.74941332  0.75008764  0.48826516
   0.50008475  0.25005617  0.36357829
   0.75008475  0.50005617  0.36357829
   0.50008475  0.50005617  0.23944616
   0.75008475  0.25005617  0.23944616
   0.50009980  0.24778800  0.61450417
   0.75176676  0.50035015  0.61518271
   0.50023535  0.50050851  0.48933234
   0.74998595  0.24994330  0.48813289
 
 position of ions in cartesian coordinates  (Angst):
   5.20667029  4.67993270 12.92941530
   4.30502080  5.67947852 12.10914742
   4.28455756  4.82984182 12.65610616
   0.00071537  6.33121263  4.07058470
   2.11096153  0.00047414  4.07058470
   0.00071537  0.00047414  6.18083086
   2.11096153  6.33121263  6.18083086
   0.00246505  6.32926102  8.29803903
   2.11132406  0.00153500  8.30334185
   0.00133836  0.00393530 10.40560256
   2.09140508  6.33051937 10.40218739
   0.00071537  2.11072030  4.07058470
   2.11096153  4.22096646  4.07058470
   0.00071537  4.22096646  6.18083086
   2.11096153  2.11072030  6.18083086
   0.00097925  2.11190609  8.30056211
   2.11675207  4.21879436  8.31104257
   0.00430843  4.21686314 10.40083762
   2.10237681  2.10950340 10.40877753
   4.22120770  6.33121263  4.07058470
   6.33145386  0.00047414  4.07058470
   4.22120770  0.00047414  6.18083086
   6.33145386  6.33121263  6.18083086
   4.21889511  6.32260507  8.31007682
   6.32957824  0.00287423  8.30107929
   4.21848209  0.01729437 10.40688605
   6.35225853  6.33688402 10.38280986
   4.22120770  2.11072030  4.07058470
   6.33145386  4.22096646  4.07058470
   4.22120770  4.22096646  6.18083086
   6.33145386  2.11072030  6.18083086
   4.21936481  2.11534195  8.30826434
   6.32314026  4.21825465  8.31239121
   4.20534359  4.16625637 10.50770186
   6.33710278  2.10698012 10.40270540
   0.00071537  6.33121263  6.18083086
   2.11096153  0.00047414  6.18083086
   0.00071537  0.00047414  4.07058470
   2.11096153  6.33121263  4.07058470
   8.43977918  6.33406513 10.44763512
   2.10473045  8.44051052 10.45129055
   8.44026928  8.43955751  8.29531762
   2.11568128  6.33318137  8.30182508
   0.00071537  2.11072030  6.18083086
   2.11096153  4.22096646  6.18083086
   0.00071537  4.22096646  4.07058470
   2.11096153  2.11072030  4.07058470
   8.43953641  2.10715686 10.45110031
   2.09560663  4.22174446 10.42932333
   8.43817123  4.22187778  8.29300880
   2.11019494  2.10748688  8.29677207
   4.22120770  6.33121263  6.18083086
   6.33145386  0.00047414  6.18083086
   4.22120770  0.00047414  4.07058470
   6.33145386  6.33121263  4.07058470
   4.22225219  6.36825754 10.50560089
   6.33562556  8.44032728 10.45062168
   4.22116790  8.43550345  8.30012507
   6.32578632  6.33147823  8.30050778
   4.22120770  2.11072030  6.18083086
   6.33145386  4.22096646  6.18083086
   4.22120770  4.22096646  4.07058470
   6.33145386  2.11072030  4.07058470
   4.22133473  2.09157468 10.44657096
   6.34565166  4.22344792 10.45810612
   4.22247888  4.22478466  8.31864981
   6.33061989  2.10976754  8.29825908
 


--------------------------------------------------------------------------------------------------------

--------------------------------------- Iteration      FINAL  ---------------------------------------


--------------------OUTCAR has been truncated-------------------------


--------------------OUTCAR has been truncated-------------------------


--------------------OUTCAR has been truncated-------------------------


--------------------OUTCAR has been truncated-------------------------


--------------------OUTCAR has been truncated-------------------------


--------------------OUTCAR has been truncated-------------------------


--------------------OUTCAR has been truncated-------------------------


--------------------OUTCAR has been truncated-------------------------


--------------------OUTCAR has been truncated-------------------------


--------------------OUTCAR has been truncated-------------------------


    MIXING:  cpu time      0.0229: real time      0.0230
    OFIELD:  cpu time      0.0000: real time      0.0001

 ---------------------------------------------------------------------------------------------

         DFTD3 V3.0 Rev 1        
 IVDW         = 11
 DF pbe       
 parameters
 VDW_S6       =    1.0000
 VDW_S8       =    0.7220
 VDW_SR       =    1.2170
 rs18     =    1.0000
 alpha6   =   14.0000
 alpha8   =   16.0000
 k1-k3    =   16.0000    1.3333   -4.0000
 VDW_RADIUS   =   50.2022 A
 VDW_CNRADIUS =   21.1671 A
 Edisp (eV)   -9.49589

 E6    (eV) :    -4.3836
 E8    (eV) :    -5.1123
 % E8        : 53.84
    FORVDW:  cpu time      0.2971: real time      0.2980

  FORCE on cell =-STRESS in cart. coord.  units (eV):
  Direction    XX          YY          ZZ          XY          YZ          ZX
  --------------------------------------------------------------------------------------
  Alpha Z  1218.92042  1218.92042  1218.92042
  Ewald  109687.81428109704.63638************   -12.54541   -12.82965    33.56330
  Hartree126474.15092126493.57048************    -2.00374    10.05249     8.84708
  E(xc)   -3260.99634 -3261.01407 -3266.86342    -0.06590    -0.27405     0.11241
  Local  ************************245496.89054    10.59215    -8.38385   -33.66394
  n-local -5641.57672 -5642.35874 -5643.78207    -0.73558    -1.45598     1.39137
  augment   724.49883   724.62848   715.73870     0.06607     0.21349    -0.17335
  Kinetic 12686.95480 12694.28620 12719.27158     4.74076    12.75193   -10.07211
  Fock        0.00000     0.00000     0.00000     0.00000     0.00000     0.00000
  vdW       -12.08501   -12.10326    -7.58416     0.01220    -0.00056     0.01145
  -------------------------------------------------------------------------------------
  Total     -26.64838   -26.49655     0.06904     0.06055     0.07381     0.01620
  in kB     -35.24896   -35.04813     0.09132     0.08010     0.09764     0.02143
  external pressure =      -23.40 kB  Pullay stress =        0.00 kB


 VOLUME and BASIS-vectors are now :
 -----------------------------------------------------------------------------
  energy-cutoff  :     1000.00
  volume of cell :     1211.25
      direct lattice vectors                 reciprocal lattice vectors
     8.440984654  0.000000000  0.000000000     0.118469591  0.000000000  0.000000000
     0.000000000  8.440984654  0.000000000     0.000000000  0.118469591  0.000000000
     0.000000000  0.000000000 17.000000000     0.000000000  0.000000000  0.058823529

  length of vectors
     8.440984654  8.440984654 17.000000000     0.118469591  0.118469591  0.058823529


 FORCES acting on ions
    electron-ion (+dipol)            ewald-force                    non-local-force                 convergence-correction
 -----------------------------------------------------------------------------------------------
   -.824E+02 0.153E+02 -.242E+03   0.901E+02 -.167E+02 0.245E+03   -.775E+01 0.146E+01 -.242E+01   -.174E-05 0.746E-06 0.418E-05
   0.662E+00 -.687E+02 -.232E+03   -.753E+00 0.746E+02 0.228E+03   0.999E-01 -.593E+01 0.374E+01   -.130E-05 -.316E-05 -.910E-06
   0.464E+02 0.220E+02 -.144E+04   -.851E+02 -.427E+02 0.145E+04   0.387E+02 0.206E+02 -.109E+02   -.320E-04 0.496E-05 -.637E-05
   -.598E-01 -.274E+00 0.245E+04   0.676E-01 0.269E+00 -.244E+04   -.577E-02 0.415E-02 -.911E+01   -.178E-05 0.921E-07 -.163E-03
   0.224E+00 -.171E+00 0.245E+04   -.219E+00 0.173E+00 -.244E+04   -.325E-02 -.101E-02 -.915E+01   0.508E-06 -.149E-05 -.165E-03
   -.194E+00 -.299E+00 0.836E+03   0.215E+00 0.343E+00 -.836E+03   -.176E-01 -.344E-01 0.595E+00   -.363E-05 -.710E-06 -.705E-04
   -.357E+00 0.988E-01 0.835E+03   0.456E+00 -.112E+00 -.836E+03   -.778E-01 0.817E-02 0.788E+00   -.643E-05 0.269E-05 -.600E-04
   -.478E+00 -.341E+01 -.768E+03   0.583E+00 0.334E+01 0.769E+03   -.102E+00 0.682E-01 -.202E+00   -.427E-05 -.638E-06 -.161E-03
   0.264E+01 -.839E+00 -.775E+03   -.258E+01 0.933E+00 0.775E+03   -.513E-01 -.914E-01 -.354E+00   0.164E-05 -.443E-05 -.145E-03
   -.103E+01 -.513E+01 -.240E+04   0.112E+01 0.533E+01 0.239E+04   -.889E-01 -.204E+00 0.777E+01   -.571E-05 -.621E-05 -.423E-03
   0.293E+02 -.265E+02 -.235E+04   -.305E+02 0.266E+02 0.234E+04   0.123E+01 -.410E-01 0.798E+01   0.368E-04 -.974E-05 -.387E-03
   -.491E-01 0.272E+00 0.245E+04   0.553E-01 -.268E+00 -.244E+04   -.446E-02 -.344E-02 -.916E+01   -.186E-05 -.210E-07 -.163E-03
   0.261E+00 0.174E+00 0.245E+04   -.249E+00 -.176E+00 -.244E+04   -.936E-02 0.160E-02 -.916E+01   -.339E-06 0.466E-06 -.173E-03
   -.381E-01 0.294E+00 0.836E+03   0.203E-02 -.342E+00 -.837E+03   0.265E-01 0.369E-01 0.474E+00   0.215E-05 -.334E-05 -.628E-04
   -.334E+00 -.135E+00 0.836E+03   0.329E+00 0.143E+00 -.836E+03   0.460E-02 -.432E-02 0.605E+00   -.105E-04 -.290E-06 -.541E-04
   0.198E-01 0.343E+01 -.775E+03   0.355E-01 -.336E+01 0.776E+03   -.533E-01 -.760E-01 -.206E+00   -.504E-05 0.263E-05 -.158E-03
   0.318E+01 0.792E+00 -.763E+03   -.290E+01 -.870E+00 0.764E+03   -.277E+00 0.775E-01 -.129E+01   0.810E-05 0.568E-05 -.103E-03
   -.843E+00 0.608E+01 -.238E+04   0.106E+01 -.627E+01 0.237E+04   -.221E+00 0.191E+00 0.781E+01   -.196E-04 0.425E-05 -.402E-03
   0.212E+02 0.232E+02 -.238E+04   -.216E+02 -.233E+02 0.237E+04   0.404E+00 0.743E-01 0.791E+01   0.127E-04 0.110E-04 -.401E-03
   0.618E-01 -.314E+00 0.245E+04   -.696E-01 0.301E+00 -.244E+04   0.641E-02 0.107E-01 -.916E+01   0.135E-05 0.141E-05 -.177E-03
   -.226E+00 -.182E+00 0.245E+04   0.221E+00 0.186E+00 -.244E+04   0.439E-02 -.229E-02 -.914E+01   -.111E-05 -.121E-05 -.162E-03
   0.201E+00 -.176E+00 0.835E+03   -.229E+00 0.121E+00 -.835E+03   0.199E-01 0.422E-01 0.664E+00   0.403E-05 -.357E-05 -.656E-04
   0.313E+00 0.235E+00 0.835E+03   -.413E+00 -.300E+00 -.836E+03   0.781E-01 0.497E-01 0.805E+00   0.669E-05 0.838E-05 -.636E-04
   0.448E+00 -.267E+01 -.776E+03   -.542E+00 0.238E+01 0.775E+03   0.922E-01 0.291E+00 0.115E+01   0.437E-05 -.278E-05 -.142E-03
   -.264E+01 -.136E+01 -.772E+03   0.259E+01 0.150E+01 0.773E+03   0.492E-01 -.135E+00 -.283E+00   -.231E-05 -.475E-05 -.149E-03
   0.128E+01 -.116E+02 -.237E+04   -.137E+01 0.122E+02 0.236E+04   0.822E-01 -.587E+00 0.765E+01   0.309E-05 -.358E-04 -.403E-03
   -.301E+02 -.269E+02 -.233E+04   0.315E+02 0.273E+02 0.233E+04   -.134E+01 -.325E+00 0.804E+01   -.369E-04 -.245E-04 -.395E-03
   0.493E-01 0.307E+00 0.245E+04   -.558E-01 -.295E+00 -.244E+04   0.539E-02 -.923E-02 -.914E+01   0.148E-05 0.253E-06 -.173E-03
   -.264E+00 0.186E+00 0.245E+04   0.251E+00 -.189E+00 -.244E+04   0.108E-01 0.263E-02 -.918E+01   0.363E-06 0.339E-06 -.179E-03
   0.441E-01 0.253E+00 0.832E+03   -.228E-01 -.218E+00 -.833E+03   -.197E-01 -.301E-01 0.931E+00   -.269E-05 0.101E-06 -.565E-04
   0.317E+00 -.288E+00 0.836E+03   -.320E+00 0.353E+00 -.836E+03   0.116E-03 -.495E-01 0.672E+00   0.825E-05 -.657E-05 -.662E-04
   -.397E-01 0.385E+01 -.766E+03   -.965E-02 -.361E+01 0.767E+03   0.488E-01 -.231E+00 -.667E+00   0.270E-05 0.556E-05 -.146E-03
   -.290E+01 0.132E+01 -.769E+03   0.262E+01 -.144E+01 0.770E+03   0.286E+00 0.118E+00 -.503E+00   -.494E-05 0.308E-05 -.122E-03
   0.492E+01 0.341E+02 -.225E+04   -.541E+01 -.364E+02 0.224E+04   0.495E+00 0.236E+01 0.340E+01   0.237E-04 0.526E-04 -.252E-03
   -.215E+02 0.228E+02 -.237E+04   0.218E+02 -.230E+02 0.237E+04   -.372E+00 0.256E+00 0.789E+01   -.862E-05 0.242E-04 -.409E-03
   0.118E-01 -.178E+00 0.501E+03   -.124E-01 0.158E+00 -.501E+03   -.979E-03 0.268E-01 0.457E-01   -.525E-06 0.174E-05 -.273E-04
   -.134E+00 0.545E-01 0.500E+03   0.139E+00 -.281E-01 -.500E+03   -.344E-02 -.364E-01 -.877E-01   -.334E-05 -.169E-05 -.285E-04
   -.364E-01 -.102E+00 0.148E+04   0.440E-01 0.110E+00 -.149E+04   -.102E-01 -.112E-01 0.263E+01   -.191E-05 -.274E-07 -.836E-04
   0.154E+00 -.175E+00 0.148E+04   -.141E+00 0.170E+00 -.149E+04   -.186E-01 0.680E-02 0.264E+01   -.267E-05 0.884E-06 -.881E-04
   -.213E+01 -.696E+01 -.146E+04   0.218E+01 0.686E+01 0.147E+04   -.457E-01 0.101E+00 -.469E+01   -.171E-05 -.669E-05 -.216E-03
   0.765E+01 -.510E+01 -.146E+04   -.744E+01 0.504E+01 0.147E+04   -.210E+00 0.597E-01 -.466E+01   0.146E-04 -.952E-05 -.221E-03
   -.366E+00 -.117E+01 -.461E+03   0.377E+00 0.120E+01 0.461E+03   -.112E-01 -.265E-01 0.216E+00   -.247E-05 -.938E-06 -.744E-04
   0.139E+01 -.224E+01 -.455E+03   -.148E+01 0.218E+01 0.455E+03   0.886E-01 0.583E-01 0.452E+00   0.509E-05 -.183E-05 -.647E-04
   0.281E-01 0.165E+00 0.501E+03   -.146E-01 -.138E+00 -.501E+03   -.188E-01 -.343E-01 -.744E-01   -.353E-06 -.858E-07 -.275E-04
   -.247E+00 -.577E-01 0.500E+03   0.183E+00 0.388E-01 -.499E+03   0.842E-01 0.253E-01 -.118E+00   -.390E-05 0.185E-06 -.250E-04
   -.305E-01 0.103E+00 0.148E+04   0.328E-01 -.111E+00 -.149E+04   -.334E-02 0.104E-01 0.262E+01   0.155E-05 0.500E-07 -.876E-04
   0.139E+00 0.174E+00 0.148E+04   -.137E+00 -.168E+00 -.149E+04   -.439E-02 -.843E-02 0.262E+01   -.357E-05 -.597E-06 -.887E-04
   -.723E+00 0.642E+01 -.147E+04   0.718E+00 -.632E+01 0.147E+04   0.494E-02 -.887E-01 -.465E+01   -.304E-05 0.833E-05 -.225E-03
   0.287E+02 0.710E+01 -.143E+04   -.283E+02 -.703E+01 0.143E+04   -.397E+00 -.723E-01 -.481E+01   0.348E-04 0.874E-05 -.196E-03
   0.139E+00 0.117E+01 -.454E+03   -.105E+00 -.120E+01 0.454E+03   -.356E-01 0.335E-01 0.273E+00   -.348E-05 -.144E-06 -.704E-04
   0.215E+01 0.222E+01 -.457E+03   -.214E+01 -.216E+01 0.457E+03   -.540E-02 -.507E-01 0.216E+00   0.568E-06 0.290E-05 -.700E-04
   -.258E-02 -.888E-01 0.500E+03   0.586E-02 0.150E+00 -.499E+03   -.381E-02 -.763E-01 -.104E+00   0.281E-06 0.242E-05 -.232E-04
   0.103E+00 0.325E-01 0.501E+03   -.959E-01 -.194E-01 -.501E+03   -.693E-02 -.197E-01 -.306E-01   0.290E-05 -.158E-05 -.293E-04
   0.376E-01 -.115E+00 0.148E+04   -.448E-01 0.113E+00 -.149E+04   0.889E-02 0.253E-02 0.263E+01   0.184E-05 -.122E-05 -.903E-04
   -.155E+00 -.171E+00 0.148E+04   0.142E+00 0.159E+00 -.149E+04   0.165E-01 0.141E-01 0.263E+01   0.298E-05 0.472E-05 -.882E-04
   0.341E+01 -.343E+02 -.140E+04   -.350E+01 0.341E+02 0.140E+04   0.933E-01 0.239E+00 -.173E+01   0.246E-05 -.330E-04 -.195E-03
   -.774E+01 -.655E+01 -.146E+04   0.751E+01 0.655E+01 0.147E+04   0.225E+00 0.392E-02 -.468E+01   -.126E-04 -.854E-05 -.222E-03
   0.412E+00 -.437E-01 -.457E+03   -.432E+00 0.883E-01 0.457E+03   0.222E-01 -.475E-01 0.344E+00   0.207E-05 -.674E-05 -.610E-04
   -.138E+01 -.174E+01 -.451E+03   0.146E+01 0.173E+01 0.451E+03   -.831E-01 0.221E-01 0.758E+00   -.548E-05 -.195E-05 -.625E-04
   -.493E-01 -.130E-01 0.500E+03   0.469E-01 -.213E-01 -.500E+03   0.342E-02 0.437E-01 -.508E-01   0.103E-05 -.664E-06 -.263E-04
   0.202E+00 -.139E-01 0.499E+03   -.118E+00 0.136E-02 -.499E+03   -.106E+00 0.173E-01 -.159E+00   0.372E-05 -.128E-06 -.233E-04
   0.325E-01 0.120E+00 0.148E+04   -.342E-01 -.117E+00 -.149E+04   0.165E-02 -.431E-02 0.262E+01   -.175E-05 -.141E-06 -.960E-04
   -.139E+00 0.168E+00 0.148E+04   0.137E+00 -.157E+00 -.149E+04   0.185E-02 -.153E-01 0.262E+01   0.372E-05 -.409E-05 -.878E-04
   0.846E+00 0.269E+02 -.144E+04   -.855E+00 -.270E+02 0.144E+04   0.645E-02 0.222E-01 -.458E+01   0.409E-06 0.272E-04 -.201E-03
   -.295E+02 0.948E+01 -.143E+04   0.289E+02 -.943E+01 0.143E+04   0.660E+00 -.632E-01 -.447E+01   -.367E-04 0.101E-04 -.199E-03
   -.276E+00 -.572E+00 -.467E+03   0.228E+00 0.503E+00 0.467E+03   0.514E-01 0.704E-01 -.711E+00   0.166E-05 0.449E-05 -.498E-04
   -.214E+01 0.174E+01 -.456E+03   0.214E+01 -.172E+01 0.456E+03   0.988E-02 -.202E-01 0.346E+00   0.692E-06 0.348E-05 -.661E-04
 -----------------------------------------------------------------------------------------------
   -.316E+02 -.181E+02 0.331E+02   -.860E-12 -.711E-13 0.495E-11   0.316E+02 0.181E+02 -.331E+02   -.362E-04 0.148E-04 -.917E-02
 
 
 POSITION                                       TOTAL-FORCE (eV/Angst)
 -----------------------------------------------------------------------------------
      5.20667      4.67993     12.92942        -0.079220      0.021989     -0.037132
      4.30502      5.67948     12.10915         0.002882     -0.057829      0.020896
      4.28456      4.82984     12.65611         0.062075      0.027267     -0.013761
      0.00072      6.33121      4.07058         0.002359     -0.000880      0.381546
      2.11096      0.00047      4.07058         0.001695      0.000757      0.387097
      0.00072      0.00047      6.18083         0.002885      0.009400      0.080024
      2.11096      6.33121      6.18083         0.020498     -0.004605      0.082810
      0.00247      6.32926      8.29804         0.002130     -0.000553     -0.009800
      2.11132      0.00153      8.30334         0.003296      0.001831     -0.008266
      0.00134      0.00394     10.40560        -0.001928     -0.006089     -0.045271
      2.09141      6.33052     10.40219        -0.015060      0.010773     -0.054640
      0.00072      2.11072      4.07058         0.002046      0.001474      0.389718
      2.11096      4.22097      4.07058         0.002957     -0.000216      0.386311
      0.00072      4.22097      6.18083        -0.009242     -0.011272      0.103240
      2.11096      2.11072      6.18083        -0.000636      0.003346      0.088701
      0.00098      2.11191      8.30056         0.002107      0.000150     -0.012408
      2.11675      4.21879      8.31104         0.003462      0.000289     -0.008950
      0.00431      4.21686     10.40084        -0.005416      0.007087     -0.039077
      2.10238      2.10950     10.40878         0.010594     -0.000598     -0.045476
      4.22121      6.33121      4.07058        -0.001092     -0.002273      0.387797
      6.33145      0.00047      4.07058        -0.000465      0.001065      0.385570
      4.22121      0.00047      6.18083        -0.008287     -0.011707      0.104785
      6.33145      6.33121      6.18083        -0.021247     -0.015304      0.078962
      4.21890      6.32261      8.31008        -0.000759      0.002371     -0.016491
      6.32958      0.00287      8.30108        -0.000560      0.004139     -0.008620
      4.21848      0.01729     10.40689         0.002370     -0.006393     -0.039543
      6.35226      6.33688     10.38281         0.022537      0.007874     -0.056944
      4.22121      2.11072      4.07058        -0.000851      0.002717      0.384828
      6.33145      4.22097      4.07058        -0.001823     -0.000465      0.392533
      4.22121      4.22097      6.18083         0.001932      0.004962      0.122983
      6.33145      2.11072      6.18083        -0.002005      0.015611      0.084965
      4.21936      2.11534      8.30826         0.000059      0.001892     -0.008600
      6.32314      4.21825      8.31239        -0.001645     -0.000237     -0.010150
      4.20534      4.16626     10.50770        -0.002251     -0.020352     -0.014060
      6.33710      2.10698     10.40271        -0.006353      0.000721     -0.044156
      0.00072      6.33121      6.18083        -0.001307      0.006963      0.075939
      2.11096      0.00047      6.18083         0.001800     -0.009937      0.064285
      0.00072      0.00047      4.07058        -0.002309     -0.002668     -0.520602
      2.11096      6.33121      4.07058        -0.004693      0.001128     -0.520279
      8.43978      6.33407     10.44764         0.004144     -0.003474      0.019711
      2.10473      8.44051     10.45129        -0.000996      0.000317      0.023251
      8.44027      8.43956      8.29532        -0.000458      0.000712      0.006836
      2.11568      6.33318      8.30183         0.004887      0.003131     -0.001938
      0.00072      2.11072      6.18083        -0.004925     -0.007904      0.055866
      2.11096      4.22097      6.18083         0.020662      0.006504      0.087843
      0.00072      4.22097      4.07058        -0.000725      0.002221     -0.522358
      2.11096      2.11072      4.07058        -0.001411     -0.002296     -0.522787
      8.43954      2.10716     10.45110         0.000073      0.005425      0.019456
      2.09561      4.22174     10.42932        -0.010838     -0.004488      0.017580
      8.43817      4.22188      8.29301        -0.002001      0.003341      0.003590
      2.11019      2.10749      8.29677         0.000804      0.007747     -0.007015
      4.22121      6.33121      6.18083        -0.000247     -0.015143      0.084665
      6.33145      0.00047      6.18083         0.000181     -0.006488      0.069565
      4.22121      0.00047      4.07058         0.001968      0.000468     -0.519886
      6.33145      6.33121      4.07058         0.003369      0.002823     -0.522163
      4.22225      6.36826     10.50560        -0.002906      0.018311      0.037269
      6.33563      8.44033     10.45062         0.002878      0.000482      0.023210
      4.22117      8.43550      8.30013         0.002451     -0.002894      0.005837
      6.32579      6.33148      8.30051        -0.001316      0.001934     -0.003064
      4.22121      2.11072      6.18083         0.001305      0.009542      0.092830
      6.33145      4.22097      6.18083        -0.020981      0.004814      0.082087
      4.22121      4.22097      4.07058         0.000276     -0.001159     -0.522624
      6.33145      2.11072      4.07058        -0.000015     -0.003903     -0.524558
      4.22133      2.09157     10.44657        -0.001390     -0.001452      0.021759
      6.34565      4.22345     10.45811         0.018649     -0.005817      0.018671
      4.22248      4.22478      8.31865         0.004532      0.001431     -0.002666
      6.33062      2.10977      8.29826         0.001494      0.003386     -0.009731
 -----------------------------------------------------------------------------------
    total drift:                               -0.020056     -0.005573     -0.080323


--------------------------------------------------------------------------------------------------------



  FREE ENERGIE OF THE ION-ELECTRON SYSTEM (eV)
  ---------------------------------------------------
  free  energy   TOTEN  =      -396.86413689 eV

  energy  without entropy=     -396.86413689  energy(sigma->0) =     -396.86413689
 


--------------------------------------------------------------------------------------------------------


    POTLOK:  cpu time      1.1457: real time      1.1489


--------------------------------------------------------------------------------------------------------


     LOOP+:  cpu time     23.3683: real time     23.4391
    4ORBIT:  cpu time      0.0000: real time      0.0000

 total amount of memory used by VASP MPI-rank0   657282. kBytes
=======================================================================

   base      :      30000. kBytes
   nonlr-proj:      12626. kBytes
   fftplans  :      49105. kBytes
   grid      :     126851. kBytes
   one-center:        543. kBytes
   wavefun   :     438157. kBytes
 
  
  
 General timing and accounting informations for this job:
 ========================================================
  
                  Total CPU time used (sec):       30.715
                            User time (sec):       28.048
                          System time (sec):        2.667
                         Elapsed time (sec):       32.981
  
                   Maximum memory used (kb):     1876412.
                   Average memory used (kb):          N/A
  
                          Minor page faults:       234874
                          Major page faults:            0
                 Voluntary context switches:        13112
