 vasp.6.3.0 20Jan22 (build Apr  1 2022 16:44:48) complex                         
 executed on        HPECrayEX_GCC date 2022.11.13  15:41:33
 running  512 mpi-ranks, with    1 threads/rank
 distrk:  each k-point on  512 cores,    1 groups
 distr:  one band on NCORE=   8 cores,   64 groups


--------------------------------------------------------------------------------------------------------


 INCAR:
   SYSTEM = MgO-rocksalt
   ISMEAR = 0
   SIGMA = 0.05
   EDIFF = 1E-6
   ALGO = ALL
   ISTART = 0
   IBRION = -1
   NSW = 0
   ISYM = 0
   DIPOL = 0.5 0.5 0.5
   IDIPOL = 3
   LDIPOL = .TRUE.
   GGA = MK
   LUSE_VDW = .TRUE.
   PARAM1 = 0.1234
   PARAM2 = 0.711357
   ZAB_VDW = -1.8867
   AGGAC = 0.0
   ENCUT = 600
   PREC = Accurate
   LASPH = .TRUE.
   LREAL = .FALSE.
   ISPIN = 2
   MAGMOM = 0.0 0.0 0.0 0.0 0.0 0.0 0.0 0.0 0.0 0.0 0.0 0.0 0.0 0.0 0.0 0.0 0.0 0.0 0.0 0.0 0.0 0.0 0.0 0.0 0.0 0.0 0.0 0.0 0.0 0.0 0.0 0.0 0.0 0.0 0.0 0.0 0.0 0.0 0.0 0.0 0.0 0.0 0.0 0.0 0.0 0.0 0.0 0.0 0.0 0.0 0.0 0.0 0.0 0.0 0.0 0.0 0.0 0.0 0.0 0.0 0.0 0.0 0.0 0.0
   NELM = 200
   NELMIN = 8
   NCORE = 8
   KPAR = 1
   LWAVE = .FALSE.
   LCHARG = .FALSE.

 POTCAR:    PAW_PBE Mg_pv 13Apr2007               
 POTCAR:    PAW_PBE O 08Apr2002                   
 -----------------------------------------------------------------------------
|                                                                             |
|               ----> ADVICE to this user running VASP <----                  |
|                                                                             |
|     You have switched on vdW-DFT.                                           |
|     This routine was written and supplied by Jiri Klimes. We recommend      |
|     that you carefully read and cite the following publications:            |
|       J. Klimes, D.R. Bowler, A. Michelides                                 |
|          J. Phys.: Cond Matt. 22 022201 (2010)                              |
|       J. Klimes, D.R. Bowler, A. Michelides                                 |
|          Phys. Rev. B. 83, 195131 (2011)                                    |
|     and references therein.                                                 |
|                                                                             |
 -----------------------------------------------------------------------------

 POTCAR:    PAW_PBE Mg_pv 13Apr2007               
   SHA256 =  f474ac0dd33840b9ae76c01d57fea79fdf77cdfbb07d5ade72c65f83c709b62b Mg_pv/POTCAR          
   COPYR  = (c) Copyright 13Apr2007 Georg Kresse                                                    
   COPYR  = This file is part of the software VASP. Any use, copying, and all other rights are regul
   COPYR  = If you do not have a valid VASP license, you may not use, copy or distribute this file. 
   VRHFIN =Mg: p6s2                                                                                 
   LEXCH  = PE                                                                                      
   EATOM  =  1056.7344 eV,   77.6678 Ry                                                             
                                                                                                    
   TITEL  = PAW_PBE Mg_pv 13Apr2007                                                                 
   LULTRA =        F    use ultrasoft PP ?                                                          
   IUNSCR =        1    unscreen: 0-lin 1-nonlin 2-no                                               
   RPACOR =    1.500    partial core radius                                                         
   POMASS =   24.305; ZVAL   =    8.000    mass and valenz                                          
   RCORE  =    2.000    outmost cutoff radius                                                       
   RWIGS  =    2.000; RWIGS  =    1.058    wigner-seitz radius (au A)                               
   ENMAX  =  403.929; ENMIN  =  302.947 eV                                                          
   RCLOC  =    1.506    cutoff for local pot                                                        
   LCOR   =        T    correct aug charges                                                         
   LPAW   =        T    paw PP                                                                      
   EAUG   =  758.780                                                                                
   DEXC   =    0.000                                                                                
   RMAX   =    2.045    core radius for proj-oper                                                   
   RAUG   =    1.300    factor for augmentation sphere                                              
   RDEP   =    2.025    radius for radial grids                                                     
   RDEPT  =    1.557    core radius for aug-charge                                                  
                                                                                                    
   Atomic configuration                                                                             
    5 entries                                                                                       
     n  l   j            E        occ.                                                              
     1  0  0.50     -1259.6230   2.0000                                                             
     2  0  0.50       -79.8442   2.0000                                                             
     2  1  1.50       -46.6121   6.0000                                                             
     3  0  0.50        -4.7055   2.0000                                                             
     3  2  1.50        -1.3606   0.0000                                                             
   Description                                                                                      
     l       E           TYP  RCUT    TYP  RCUT                                                     
     1    -46.6121073     23  1.600                                                                 
     1      2.7211652     23  1.600                                                                 
     0     -4.7054661     23  2.000                                                                 
     0     61.2262170     23  2.000                                                                 
     2     -1.3605826     23  2.000                                                                 
  local pseudopotential read in
  partial core-charges read in
  partial kinetic energy density read in
  atomic valenz-charges read in
  non local Contribution for L=           1  read in
    real space projection operators read in
  non local Contribution for L=           1  read in
    real space projection operators read in
  non local Contribution for L=           0  read in
    real space projection operators read in
  non local Contribution for L=           0  read in
    real space projection operators read in
  non local Contribution for L=           2  read in
    real space projection operators read in
    PAW grid and wavefunctions read in

   number of l-projection  operators is LMAX  =           5
   number of lm-projection operators is LMMAX =          13

 POTCAR:    PAW_PBE O 08Apr2002                   
   SHA256 =  818f92134a0a090dccd8ba1447fa70422a3b330e708bb4f08108d8ae51209ddf O/POTCAR              
   COPYR  = (c) Copyright 08Apr2002 Georg Kresse                                                    
   COPYR  = This file is part of the software VASP. Any use, copying, and all other rights are regul
   COPYR  = If you do not have a valid VASP license, you may not use, copy or distribute this file. 
   VRHFIN =O: s2p4                                                                                  
   LEXCH  = PE                                                                                      
   EATOM  =   432.3788 eV,   31.7789 Ry                                                             
                                                                                                    
   TITEL  = PAW_PBE O 08Apr2002                                                                     
   LULTRA =        F    use ultrasoft PP ?                                                          
   IUNSCR =        1    unscreen: 0-lin 1-nonlin 2-no                                               
   RPACOR =    1.200    partial core radius                                                         
   POMASS =   16.000; ZVAL   =    6.000    mass and valenz                                          
   RCORE  =    1.520    outmost cutoff radius                                                       
   RWIGS  =    1.550; RWIGS  =    0.820    wigner-seitz radius (au A)                               
   ENMAX  =  400.000; ENMIN  =  300.000 eV                                                          
   ICORE  =        2    local potential                                                             
   LCOR   =        T    correct aug charges                                                         
   LPAW   =        T    paw PP                                                                      
   EAUG   =  605.392                                                                                
   DEXC   =    0.000                                                                                
   RMAX   =    1.553    core radius for proj-oper                                                   
   RAUG   =    1.300    factor for augmentation sphere                                              
   RDEP   =    1.550    radius for radial grids                                                     
   RDEPT  =    1.329    core radius for aug-charge                                                  
                                                                                                    
   Atomic configuration                                                                             
    4 entries                                                                                       
     n  l   j            E        occ.                                                              
     1  0  0.50      -514.6923   2.0000                                                             
     2  0  0.50       -23.9615   2.0000                                                             
     2  1  0.50        -9.0305   4.0000                                                             
     3  2  1.50        -9.5241   0.0000                                                             
   Description                                                                                      
     l       E           TYP  RCUT    TYP  RCUT                                                     
     0    -23.9615318     23  1.200                                                                 
     0     -9.5240782     23  1.200                                                                 
     1     -9.0304911     23  1.520                                                                 
     1      8.1634956     23  1.520                                                                 
     2     -9.5240782      7  1.500                                                                 
  local pseudopotential read in
  partial core-charges read in
  partial kinetic energy density read in
  kinetic energy density of atom read in
  atomic valenz-charges read in
  non local Contribution for L=           0  read in
    real space projection operators read in
  non local Contribution for L=           0  read in
    real space projection operators read in
  non local Contribution for L=           1  read in
    real space projection operators read in
  non local Contribution for L=           1  read in
    real space projection operators read in
    PAW grid and wavefunctions read in

   number of l-projection  operators is LMAX  =           4
   number of lm-projection operators is LMMAX =           8

 -----------------------------------------------------------------------------
|                                                                             |
|               ----> ADVICE to this user running VASP <----                  |
|                                                                             |
|     You have a (more or less) 'large supercell' and for larger cells it     |
|     might be more efficient to use real-space projection operators.         |
|     Therefore, try LREAL= Auto in the INCAR file.                           |
|     Mind: For very accurate calculation, you might also keep the            |
|     reciprocal projection scheme (i.e. LREAL=.FALSE.).                      |
|                                                                             |
 -----------------------------------------------------------------------------

 -----------------------------------------------------------------------------
|                                                                             |
|               ----> ADVICE to this user running VASP <----                  |
|                                                                             |
|     You enforced a specific xc type in the INCAR file but a different       |
|     type was found in the POTCAR file.                                      |
|     I HOPE YOU KNOW WHAT YOU ARE DOING!                                     |
|                                                                             |
 -----------------------------------------------------------------------------

  PAW_PBE Mg_pv 13Apr2007               :
 energy of atom  1       EATOM=-1056.7344
 kinetic energy error for atom=    0.0221 (will be added to EATOM!!)
  PAW_PBE O 08Apr2002                   :
 energy of atom  2       EATOM= -432.3788
 kinetic energy error for atom=    0.0168 (will be added to EATOM!!)


 POSCAR: Mg  O
  positions in direct lattice
  No initial velocities read in
 exchange correlation table for  LEXCH =       43
   RHO(1)=    0.500       N(1)  =     2000
   RHO(2)=  100.500       N(2)  =     4000



--------------------------------------------------------------------------------------------------------


 ion  position               nearest neighbor table
   1  0.000  0.750  0.352-  33 2.11  35 2.11  36 2.11  43 2.11  52 2.11
   2  0.250  0.000  0.352-  34 2.11  35 2.11  36 2.11  44 2.11  51 2.11
   3  0.000  0.000  0.451-  35 2.11  34 2.11  33 2.11  41 2.11  50 2.11  39 2.12
   4  0.250  0.750  0.451-  36 2.11  34 2.11  33 2.11  42 2.11  49 2.11  40 2.12
   5  0.999  0.750  0.550-  56 2.11  47 2.11  39 2.11  40 2.11  33 2.13  37 2.15
   6  0.250  0.000  0.550-  39 2.11  48 2.11  40 2.11  55 2.11  34 2.13  38 2.15
   7  0.000  0.000  0.649-  38 2.11  45 2.11  39 2.11  37 2.11  54 2.11
   8  0.249  0.750  0.649-  53 2.10  37 2.10  40 2.11  38 2.11  46 2.11
   9  0.000  0.250  0.352-  41 2.11  35 2.11  43 2.11  44 2.11  60 2.11
  10  0.250  0.500  0.352-  42 2.11  36 2.11  43 2.11  44 2.11  59 2.11
  11  0.000  0.500  0.451-  43 2.11  41 2.11  42 2.11  33 2.11  58 2.11  47 2.12
  12  0.250  0.250  0.451-  44 2.11  41 2.11  42 2.11  34 2.11  57 2.11  48 2.12
  13  0.000  0.250  0.550-  39 2.11  48 2.11  64 2.11  47 2.11  41 2.13  45 2.15
  14  0.251  0.500  0.550-  63 2.11  40 2.11  48 2.11  47 2.11  42 2.13  46 2.15
  15  0.001  0.500  0.649-  62 2.10  46 2.10  47 2.11  45 2.11  37 2.11
  16  0.250  0.250  0.649-  38 2.11  45 2.11  48 2.11  61 2.11  46 2.11
  17  0.500  0.750  0.352-  49 2.11  36 2.11  51 2.11  52 2.11  59 2.11
  18  0.750  0.000  0.352-  50 2.11  35 2.11  51 2.11  52 2.11  60 2.11
  19  0.500  0.000  0.451-  51 2.11  49 2.11  50 2.11  34 2.11  57 2.11  55 2.12
  20  0.750  0.750  0.451-  52 2.11  49 2.11  50 2.11  33 2.11  58 2.11  56 2.13
  21  0.500  0.750  0.550-  63 2.11  56 2.11  55 2.11  40 2.11  49 2.12  53 2.13
  22  0.750  0.999  0.550-  56 2.11  55 2.11  39 2.11  64 2.11  50 2.13  54 2.15
  23  0.500  0.001  0.649-  53 2.10  61 2.10  55 2.11  38 2.11  54 2.11
  24  0.750  0.750  0.650-  54 2.11  37 2.11  53 2.13  62 2.13  56 2.14
  25  0.500  0.250  0.352-  57 2.11  51 2.11  44 2.11  59 2.11  60 2.11
  26  0.750  0.500  0.352-  58 2.11  52 2.11  43 2.11  59 2.11  60 2.11
  27  0.500  0.500  0.451-  59 2.11  49 2.11  57 2.11  58 2.11  42 2.11  63 2.13
  28  0.750  0.250  0.451-  60 2.11  50 2.11  57 2.11  58 2.11  41 2.11  64 2.12
  29  0.500  0.251  0.550-  63 2.11  64 2.11  48 2.11  55 2.11  57 2.13  61 2.15
  30  0.750  0.500  0.550-  63 2.11  56 2.11  47 2.11  64 2.11  58 2.12  62 2.13
  31  0.500  0.500  0.650-  46 2.11  61 2.11  53 2.13  62 2.13  63 2.14
  32  0.750  0.249  0.649-  62 2.10  54 2.10  64 2.11  45 2.11  61 2.11
  33  0.000  0.750  0.451-   1 2.11   3 2.11   4 2.11  11 2.11  20 2.11   5 2.13
  34  0.250  0.000  0.451-   2 2.11   3 2.11   4 2.11  12 2.11  19 2.11   6 2.13
  35  0.000  0.000  0.352-   3 2.11   2 2.11   1 2.11   9 2.11  18 2.11
  36  0.250  0.750  0.352-   4 2.11   2 2.11   1 2.11  10 2.11  17 2.11
  37  1.000  0.750  0.651-   8 2.10  24 2.11  15 2.11   7 2.11   5 2.15
  38  0.250  0.000  0.651-   7 2.11  16 2.11  23 2.11   8 2.11   6 2.15
  39  1.000  1.000  0.550-   6 2.11  13 2.11   5 2.11  22 2.11   7 2.11   3 2.12
  40  0.250  0.750  0.550-   8 2.11   6 2.11  14 2.11   5 2.11  21 2.11   4 2.12
  41  0.000  0.250  0.451-   9 2.11   3 2.11  11 2.11  12 2.11  28 2.11  13 2.13
  42  0.250  0.500  0.451-  10 2.11   4 2.11  11 2.11  12 2.11  27 2.11  14 2.13
  43  0.000  0.500  0.352-  11 2.11   9 2.11  10 2.11   1 2.11  26 2.11
  44  0.250  0.250  0.352-  12 2.11   9 2.11  10 2.11   2 2.11  25 2.11
  45  0.000  0.250  0.651-   7 2.11  16 2.11  15 2.11  32 2.11  13 2.15
  46  0.250  0.500  0.651-  15 2.10  31 2.11   8 2.11  16 2.11  14 2.15
  47  0.000  0.500  0.550-  15 2.11  13 2.11   5 2.11  14 2.11  30 2.11  11 2.12
  48  0.250  0.250  0.550-   6 2.11  13 2.11  29 2.11  14 2.11  16 2.11  12 2.12
  49  0.500  0.750  0.451-  17 2.11   4 2.11  19 2.11  20 2.11  27 2.11  21 2.12
  50  0.750  0.000  0.451-  18 2.11   3 2.11  19 2.11  20 2.11  28 2.11  22 2.13
  51  0.500  0.000  0.352-  19 2.11  17 2.11  18 2.11   2 2.11  25 2.11
  52  0.750  0.750  0.352-  20 2.11  17 2.11  18 2.11   1 2.11  26 2.11
  53  0.498  0.752  0.650-   8 2.10  23 2.10  24 2.13  31 2.13  21 2.13
  54  0.750  1.000  0.651-  32 2.10  24 2.11  23 2.11   7 2.11  22 2.15
  55  0.500  0.000  0.550-  23 2.11   6 2.11  22 2.11  29 2.11  21 2.11  19 2.12
  56  0.750  0.750  0.550-  22 2.11   5 2.11  21 2.11  30 2.11  20 2.13  24 2.14
  57  0.500  0.250  0.451-  25 2.11  19 2.11  12 2.11  27 2.11  28 2.11  29 2.13
  58  0.750  0.500  0.451-  26 2.11  20 2.11  11 2.11  27 2.11  28 2.11  30 2.12
  59  0.500  0.500  0.352-  27 2.11  17 2.11  25 2.11  26 2.11  10 2.11
  60  0.750  0.250  0.352-  28 2.11  18 2.11  25 2.11  26 2.11   9 2.11
  61  0.500  0.250  0.651-  23 2.10  31 2.11  32 2.11  16 2.11  29 2.15
  62  0.752  0.498  0.650-  32 2.10  15 2.10  24 2.13  31 2.13  30 2.13
  63  0.500  0.500  0.550-  14 2.11  29 2.11  21 2.11  30 2.11  27 2.13  31 2.14
  64  0.750  0.250  0.550-  32 2.11  13 2.11  29 2.11  22 2.11  30 2.11  28 2.12


IMPORTANT INFORMATION: All symmetrisations will be switched off!
NOSYMM: (Re-)initialisation of all symmetry stuff for point group C_1.


----------------------------------------------------------------------------------------

                                     Primitive cell                                     

  volume of cell :    1519.8199

  direct lattice vectors                    reciprocal lattice vectors
     8.440984654  0.000000000  0.000000000     0.118469591  0.000000000  0.000000000
     0.000000000  8.440984654  0.000000000     0.000000000  0.118469591  0.000000000
     0.000000000  0.000000000 21.330738491     0.000000000  0.000000000  0.046880702

  length of vectors
     8.440984654  8.440984654 21.330738491     0.118469591  0.118469591  0.046880702

  position of ions in fractional coordinates (direct lattice)
     0.000000000  0.750000000  0.351605267
     0.250000000  0.000000000  0.351605267
     0.000000000  0.000000000  0.450535089
     0.250000000  0.750000000  0.450535089
     0.999466023  0.749938665  0.550299311
     0.249936072  0.000063917  0.550169433
     0.000006237  0.000006236  0.649012547
     0.248898599  0.750368068  0.648702868
     0.000000000  0.250000000  0.351605267
     0.250000000  0.500000000  0.351605267
     0.000000000  0.500000000  0.450535089
     0.250000000  0.250000000  0.450535089
     0.000063917  0.249936073  0.550169433
     0.250533984  0.500061353  0.550299286
     0.001101403  0.499631931  0.648702837
     0.249993773  0.249993772  0.649012541
     0.500000000  0.750000000  0.351605267
     0.750000000  0.000000000  0.351605267
     0.500000000  0.000000000  0.450535089
     0.750000000  0.750000000  0.450535089
     0.500146774  0.749853223  0.550010997
     0.749938664  0.999466022  0.550299311
     0.499631931  0.001101403  0.648702837
     0.749983055  0.749983055  0.650464770
     0.500000000  0.250000000  0.351605267
     0.750000000  0.500000000  0.351605267
     0.500000000  0.500000000  0.450535089
     0.750000000  0.250000000  0.450535089
     0.500061352  0.250533984  0.550299286
     0.749853226  0.500146774  0.550010996
     0.500016942  0.500016943  0.650464749
     0.750368069  0.248898600  0.648702868
     0.000000000  0.750000000  0.450535089
     0.250000000  0.000000000  0.450535089
     0.000000000  0.000000000  0.351605267
     0.250000000  0.750000000  0.351605267
     0.999804770  0.749767818  0.651226661
     0.249771223  0.000228785  0.651112302
     0.999967409  0.999967408  0.549990240
     0.249690345  0.750079102  0.549866138
     0.000000000  0.250000000  0.450535089
     0.250000000  0.500000000  0.450535089
     0.000000000  0.500000000  0.351605267
     0.250000000  0.250000000  0.351605267
     0.000228784  0.249771224  0.651112302
     0.250195236  0.500232181  0.651226637
     0.000309651  0.499920907  0.549866127
     0.250032590  0.250032589  0.549990230
     0.500000000  0.750000000  0.450535089
     0.750000000  0.000000000  0.450535089
     0.500000000  0.000000000  0.351605267
     0.750000000  0.750000000  0.351605267
     0.497872702  0.752127298  0.649889751
     0.749767816  0.999804770  0.651226661
     0.499920905  0.000309651  0.549866127
     0.749867470  0.749867470  0.550218223
     0.500000000  0.250000000  0.450535089
     0.750000000  0.500000000  0.450535089
     0.500000000  0.500000000  0.351605267
     0.750000000  0.250000000  0.351605267
     0.500232182  0.250195235  0.651226637
     0.752127299  0.497872702  0.649889751
     0.500132535  0.500132538  0.550218207
     0.750079103  0.249690346  0.549866138

  ion indices of the primitive-cell ions
   primitive index   ion index
                 1           1
                 2           2
                 3           3
                 4           4
                 5           5
                 6           6
                 7           7
                 8           8
                 9           9
                10          10
                11          11
                12          12
                13          13
                14          14
                15          15
                16          16
                17          17
                18          18
                19          19
                20          20
                21          21
                22          22
                23          23
                24          24
                25          25
                26          26
                27          27
                28          28
                29          29
                30          30
                31          31
                32          32
                33          33
                34          34
                35          35
                36          36
                37          37
                38          38
                39          39
                40          40
                41          41
                42          42
                43          43
                44          44
                45          45
                46          46
                47          47
                48          48
                49          49
                50          50
                51          51
                52          52
                53          53
                54          54
                55          55
                56          56
                57          57
                58          58
                59          59
                60          60
                61          61
                62          62
                63          63
                64          64

----------------------------------------------------------------------------------------



 KPOINTS: pymatgen v2020.8.13 with grid density = 

Automatic generation of k-mesh.
 Grid dimensions read from file:
 generate k-points for:    2    2    1

 Generating k-lattice:

  Cartesian coordinates                     Fractional coordinates (reciprocal lattice)
     0.059234796  0.000000000  0.000000000     0.500000000  0.000000000  0.000000000
     0.000000000  0.059234796  0.000000000     0.000000000  0.500000000  0.000000000
     0.000000000  0.000000000  0.046880702     0.000000000  0.000000000  1.000000000

  Length of vectors
     0.059234796  0.059234796  0.046880702

  Shift w.r.t. Gamma in fractional coordinates (k-lattice)
     0.000000000  0.000000000  0.000000000

 
 Subroutine IBZKPT returns following result:
 ===========================================
 
 Found      4 irreducible k-points:
 
 Following reciprocal coordinates:
            Coordinates               Weight
  0.000000  0.000000  0.000000      1.000000
  0.500000  0.000000  0.000000      1.000000
  0.000000  0.500000  0.000000      1.000000
  0.500000  0.500000  0.000000      1.000000
 
 Following cartesian coordinates:
            Coordinates               Weight
  0.000000  0.000000  0.000000      1.000000
  0.059235  0.000000  0.000000      1.000000
  0.000000  0.059235  0.000000      1.000000
  0.059235  0.059235  0.000000      1.000000
 


--------------------------------------------------------------------------------------------------------




 Dimension of arrays:
   k-points           NKPTS =      4   k-points in BZ     NKDIM =      4   number of bands    NBANDS=    320
   number of dos      NEDOS =    301   number of ions     NIONS =     64
   non local maximal  LDIM  =      5   non local SUM 2l+1 LMDIM =     13
   total plane-waves  NPLWV = 882000
   max r-space proj   IRMAX =      1   max aug-charges    IRDMAX=  11635
   dimension x,y,z NGX =    70 NGY =   70 NGZ =  180
   dimension x,y,z NGXF=   140 NGYF=  140 NGZF=  360
   support grid    NGXF=   140 NGYF=  140 NGZF=  360
   ions per type =              32  32
   NGX,Y,Z   is equivalent  to a cutoff of  13.79, 13.79, 14.03 a.u.
   NGXF,Y,Z  is equivalent  to a cutoff of  27.57, 27.57, 28.06 a.u.

 SYSTEM =  MgO-rocksalt                            
 POSCAR =  Mg  O                                   

--------------------------------------------------------------------------------------------------------


  energy-cutoff  :      600.00
  volume of cell :     1519.82
      direct lattice vectors                 reciprocal lattice vectors
     8.440984654  0.000000000  0.000000000     0.118469591  0.000000000  0.000000000
     0.000000000  8.440984654  0.000000000     0.000000000  0.118469591  0.000000000
     0.000000000  0.000000000 21.330738491     0.000000000  0.000000000  0.046880702

  length of vectors
     8.440984654  8.440984654 21.330738491     0.118469591  0.118469591  0.046880702



 k-points in units of 2pi/SCALE and weight: pymatgen v2020.8.13 with grid density = 
   0.00000000  0.00000000  0.00000000       0.250
   0.05923480  0.00000000  0.00000000       0.250
   0.00000000  0.05923480  0.00000000       0.250
   0.05923480  0.05923480  0.00000000       0.250

 k-points in reciprocal lattice and weights: pymatgen v2020.8.13 with grid density = 
   0.00000000  0.00000000  0.00000000       0.250
   0.50000000  0.00000000  0.00000000       0.250
   0.00000000  0.50000000  0.00000000       0.250
   0.50000000  0.50000000  0.00000000       0.250

 position of ions in fractional coordinates (direct lattice) 
   0.00000000  0.75000000  0.35160527
   0.25000000  0.00000000  0.35160527
   0.00000000  0.00000000  0.45053509
   0.25000000  0.75000000  0.45053509
   0.99946602  0.74993866  0.55029931
   0.24993607  0.00006392  0.55016943
   0.00000624  0.00000624  0.64901255
   0.24889860  0.75036807  0.64870287
   0.00000000  0.25000000  0.35160527
   0.25000000  0.50000000  0.35160527
   0.00000000  0.50000000  0.45053509
   0.25000000  0.25000000  0.45053509
   0.00006392  0.24993607  0.55016943
   0.25053398  0.50006135  0.55029929
   0.00110140  0.49963193  0.64870284
   0.24999377  0.24999377  0.64901254
   0.50000000  0.75000000  0.35160527
   0.75000000  0.00000000  0.35160527
   0.50000000  0.00000000  0.45053509
   0.75000000  0.75000000  0.45053509
   0.50014677  0.74985322  0.55001100
   0.74993866  0.99946602  0.55029931
   0.49963193  0.00110140  0.64870284
   0.74998305  0.74998306  0.65046477
   0.50000000  0.25000000  0.35160527
   0.75000000  0.50000000  0.35160527
   0.50000000  0.50000000  0.45053509
   0.75000000  0.25000000  0.45053509
   0.50006135  0.25053398  0.55029929
   0.74985323  0.50014677  0.55001100
   0.50001694  0.50001694  0.65046475
   0.75036807  0.24889860  0.64870287
   0.00000000  0.75000000  0.45053509
   0.25000000  0.00000000  0.45053509
   0.00000000  0.00000000  0.35160527
   0.25000000  0.75000000  0.35160527
   0.99980477  0.74976782  0.65122666
   0.24977122  0.00022879  0.65111230
   0.99996741  0.99996741  0.54999024
   0.24969034  0.75007910  0.54986614
   0.00000000  0.25000000  0.45053509
   0.25000000  0.50000000  0.45053509
   0.00000000  0.50000000  0.35160527
   0.25000000  0.25000000  0.35160527
   0.00022878  0.24977122  0.65111230
   0.25019524  0.50023218  0.65122664
   0.00030965  0.49992091  0.54986613
   0.25003259  0.25003259  0.54999023
   0.50000000  0.75000000  0.45053509
   0.75000000  0.00000000  0.45053509
   0.50000000  0.00000000  0.35160527
   0.75000000  0.75000000  0.35160527
   0.49787270  0.75212730  0.64988975
   0.74976782  0.99980477  0.65122666
   0.49992091  0.00030965  0.54986613
   0.74986747  0.74986747  0.55021822
   0.50000000  0.25000000  0.45053509
   0.75000000  0.50000000  0.45053509
   0.50000000  0.50000000  0.35160527
   0.75000000  0.25000000  0.35160527
   0.50023218  0.25019524  0.65122664
   0.75212730  0.49787270  0.64988975
   0.50013253  0.50013254  0.55021821
   0.75007910  0.24969035  0.54986614

 position of ions in cartesian coordinates  (Angst):
   0.00000000  6.33073849  7.50000000
   2.11024616  0.00000000  7.50000000
   0.00000000  0.00000000  9.61024616
   2.11024616  6.33073849  9.61024616
   8.43647736  6.33022076 11.73829069
   2.10970655  0.00053952 11.73552031
   0.00005265  0.00005264 13.84391691
   2.10094925  6.33384535 13.83731124
   0.00000000  2.11024616  7.50000000
   2.11024616  4.22049233  7.50000000
   0.00000000  4.22049233  9.61024616
   2.11024616  2.11024616  9.61024616
   0.00053952  2.10970655 11.73552030
   2.11475351  4.22101020 11.73829017
   0.00929693  4.21738547 13.83731057
   2.11019360  2.11019359 13.84391680
   4.22049233  6.33073849  7.50000000
   6.33073849  0.00000000  7.50000000
   4.22049233  0.00000000  9.61024616
   6.33073849  6.33073849  9.61024616
   4.22173124  6.32949955 11.73214074
   6.33022075  8.43647735 11.73829069
   4.21738546  0.00929693 13.83731057
   6.33059545  6.33059546 13.87489390
   4.22049233  2.11024616  7.50000000
   6.33073849  4.22049233  7.50000000
   4.22049233  4.22049233  9.61024616
   6.33073849  2.11024616  9.61024616
   4.22101020  2.11475352 11.73829017
   6.32949957  4.22173125 11.73214073
   4.22063533  4.22063534 13.87489347
   6.33384536  2.10094926 13.83731124
   0.00000000  6.33073849  9.61024616
   2.11024616  0.00000000  9.61024616
   0.00000000  0.00000000  7.50000000
   2.11024616  6.33073849  7.50000000
   8.43933672  6.32877865 13.89114560
   2.10831506  0.00193117 13.88870625
   8.44070955  8.44070955 11.73169798
   2.10763237  6.33140619 11.72905080
   0.00000000  2.11024616  9.61024616
   2.11024616  4.22049233  9.61024616
   0.00000000  4.22049233  7.50000000
   2.11024616  2.11024616  7.50000000
   0.00193116  2.10831507 13.88870624
   2.11189415  4.22245217 13.89114509
   0.00261376  4.21982470 11.72905055
   2.11052125  2.11052125 11.73169777
   4.22049233  6.33073849  9.61024616
   6.33073849  0.00000000  9.61024616
   4.22049233  0.00000000  7.50000000
   6.33073849  6.33073849  7.50000000
   4.20253584  6.34869498 13.86262834
   6.32877863  8.43933672 13.89114560
   4.21982469  0.00261376 11.72905055
   6.32961980  6.32961981 11.73656103
   4.22049233  2.11024616  9.61024616
   6.33073849  4.22049233  9.61024616
   4.22049233  4.22049233  7.50000000
   6.33073849  2.11024616  7.50000000
   4.22245217  2.11189414 13.89114509
   6.34869499  4.20253584 13.86262834
   4.22161105  4.22161108 11.73656068
   6.33140619  2.10763238 11.72905080



--------------------------------------------------------------------------------------------------------

--------------------------------------- Iteration      FINAL  ---------------------------------------


--------------------OUTCAR has been truncated-------------------------


--------------------OUTCAR has been truncated-------------------------


--------------------OUTCAR has been truncated-------------------------


--------------------OUTCAR has been truncated-------------------------


--------------------OUTCAR has been truncated-------------------------


--------------------OUTCAR has been truncated-------------------------


--------------------OUTCAR has been truncated-------------------------


--------------------OUTCAR has been truncated-------------------------


--------------------OUTCAR has been truncated-------------------------


--------------------OUTCAR has been truncated-------------------------


  FORCE on cell =-STRESS in cart. coord.  units (eV):
  Direction    XX          YY          ZZ          XY          YZ          ZX
  --------------------------------------------------------------------------------------
  Alpha Z   875.25928   875.25928   875.25928
  Ewald  160990.23815160990.23815************     0.18686     0.00000     0.00000
  Hartree171023.60517171023.60517************     0.07929     0.00000     0.00000
  E(xc)   -2455.66399 -2455.66399 -2455.81876     0.00007     0.00000     0.00000
  Local  ************************342290.52424    -0.25911    -0.00000    -0.00000
  n-local -2831.82907 -2831.82907 -2851.68714     0.00136     0.00000     0.00000
  augment  1051.76639  1051.76639  1042.17808     0.00041     0.00000    -0.00000
  Kinetic  7303.26224  7303.26224  7341.70824    -0.00726    -0.00000    -0.00000
  Fock        0.00000     0.00000     0.00000     0.00000     0.00000     0.00000
  -------------------------------------------------------------------------------------
  Total     -30.70491   -30.70489    -4.48070     0.00162     0.00000     0.00000
  in kB     -32.36878   -32.36876    -4.72351     0.00171     0.00000     0.00000
  external pressure =      -23.15 kB  Pullay stress =        0.00 kB


 VOLUME and BASIS-vectors are now :
 -----------------------------------------------------------------------------
  energy-cutoff  :      600.00
  volume of cell :     1519.82
      direct lattice vectors                 reciprocal lattice vectors
     8.440984654  0.000000000  0.000000000     0.118469591  0.000000000  0.000000000
     0.000000000  8.440984654  0.000000000     0.000000000  0.118469591  0.000000000
     0.000000000  0.000000000 21.330738491     0.000000000  0.000000000  0.046880702

  length of vectors
     8.440984654  8.440984654 21.330738491     0.118469591  0.118469591  0.046880702


 FORCES acting on ions:
    Electron-Ion                     Ewald-Force                    Non-Local-Force
 -----------------------------------------------------------------------------------------------
   0.341E-01 0.400E-02 0.207E+04   -.350E-01 -.197E-02 -.206E+04   0.790E-03 -.150E-02 -.681E+01
   -.440E-02 0.441E-02 0.207E+04   0.213E-02 -.213E-02 -.206E+04   0.171E-02 -.172E-02 -.679E+01
   0.247E+00 0.247E+00 0.682E+03   -.266E+00 -.266E+00 -.683E+03   0.138E-01 0.138E-01 0.536E+00
   0.789E-01 0.255E+00 0.683E+03   -.136E+00 -.269E+00 -.683E+03   0.399E-01 0.104E-01 0.463E+00
   0.108E+01 -.227E-01 -.691E+03   -.117E+01 -.129E-01 0.691E+03   0.908E-01 0.259E-01 -.917E-01
   0.154E-01 -.154E-01 -.689E+03   0.104E-01 -.104E-01 0.689E+03   -.181E-01 0.181E-01 -.128E+00
   0.102E+01 0.102E+01 -.205E+04   -.868E+00 -.868E+00 0.204E+04   -.138E+00 -.138E+00 0.577E+01
   -.103E+01 0.121E+01 -.205E+04   0.123E+01 -.107E+01 0.204E+04   -.136E+00 -.113E+00 0.579E+01
   0.441E-02 -.440E-02 0.207E+04   -.213E-02 0.213E-02 -.206E+04   -.171E-02 0.171E-02 -.679E+01
   -.341E-01 -.401E-02 0.207E+04   0.350E-01 0.198E-02 -.206E+04   -.786E-03 0.150E-02 -.681E+01
   -.789E-01 -.255E+00 0.683E+03   0.136E+00 0.269E+00 -.683E+03   -.399E-01 -.104E-01 0.463E+00
   -.247E+00 -.247E+00 0.682E+03   0.266E+00 0.266E+00 -.683E+03   -.138E-01 -.138E-01 0.536E+00
   -.154E-01 0.154E-01 -.689E+03   -.104E-01 0.104E-01 0.689E+03   0.181E-01 -.181E-01 -.128E+00
   -.108E+01 0.227E-01 -.691E+03   0.117E+01 0.129E-01 0.691E+03   -.908E-01 -.259E-01 -.917E-01
   0.103E+01 -.121E+01 -.205E+04   -.123E+01 0.107E+01 0.204E+04   0.136E+00 0.113E+00 0.579E+01
   -.102E+01 -.102E+01 -.205E+04   0.868E+00 0.868E+00 0.204E+04   0.138E+00 0.138E+00 0.577E+01
   -.368E-01 0.368E-01 0.207E+04   0.362E-01 -.362E-01 -.206E+04   0.285E-03 -.284E-03 -.678E+01
   0.400E-02 0.341E-01 0.207E+04   -.197E-02 -.350E-01 -.206E+04   -.150E-02 0.790E-03 -.681E+01
   -.255E+00 -.789E-01 0.683E+03   0.269E+00 0.136E+00 -.683E+03   -.104E-01 -.399E-01 0.463E+00
   -.107E+00 -.107E+00 0.682E+03   0.139E+00 0.139E+00 -.682E+03   -.239E-01 -.239E-01 0.557E+00
   -.137E+01 0.137E+01 -.687E+03   0.147E+01 -.147E+01 0.687E+03   -.960E-01 0.960E-01 -.506E+00
   -.227E-01 0.108E+01 -.691E+03   -.129E-01 -.117E+01 0.691E+03   0.259E-01 0.908E-01 -.917E-01
   -.121E+01 0.103E+01 -.205E+04   0.107E+01 -.123E+01 0.204E+04   0.113E+00 0.136E+00 0.579E+01
   0.519E+01 0.519E+01 -.206E+04   -.486E+01 -.486E+01 0.206E+04   -.346E+00 -.346E+00 0.625E+01
   -.400E-02 -.341E-01 0.207E+04   0.198E-02 0.350E-01 -.206E+04   0.150E-02 -.788E-03 -.681E+01
   0.368E-01 -.368E-01 0.207E+04   -.362E-01 0.362E-01 -.206E+04   -.285E-03 0.285E-03 -.678E+01
   0.107E+00 0.107E+00 0.682E+03   -.139E+00 -.139E+00 -.682E+03   0.239E-01 0.239E-01 0.557E+00
   0.255E+00 0.789E-01 0.683E+03   -.269E+00 -.136E+00 -.683E+03   0.104E-01 0.399E-01 0.463E+00
   0.227E-01 -.108E+01 -.691E+03   0.129E-01 0.117E+01 0.691E+03   -.259E-01 -.908E-01 -.917E-01
   0.137E+01 -.137E+01 -.687E+03   -.147E+01 0.147E+01 0.687E+03   0.960E-01 -.960E-01 -.506E+00
   -.518E+01 -.518E+01 -.206E+04   0.486E+01 0.486E+01 0.206E+04   0.346E+00 0.346E+00 0.625E+01
   0.121E+01 -.103E+01 -.205E+04   -.107E+01 0.123E+01 0.204E+04   -.113E+00 -.136E+00 0.579E+01
   0.146E+00 -.364E-01 0.511E+03   -.108E+00 0.323E-01 -.511E+03   -.516E-01 0.617E-02 -.136E+00
   0.235E-01 -.235E-01 0.512E+03   -.134E-01 0.134E-01 -.512E+03   -.142E-01 0.142E-01 -.903E-01
   0.305E-01 0.305E-01 0.155E+04   -.319E-01 -.319E-01 -.156E+04   0.195E-02 0.195E-02 0.360E+01
   0.307E-02 0.303E-01 0.155E+04   -.708E-02 -.318E-01 -.156E+04   0.560E-02 0.217E-02 0.360E+01
   0.179E+01 0.431E+00 -.156E+04   -.187E+01 -.483E+00 0.156E+04   0.624E-01 0.704E-01 -.489E+01
   -.309E+00 0.309E+00 -.156E+04   0.379E+00 -.379E+00 0.156E+04   -.885E-01 0.885E-01 -.508E+01
   0.506E+00 0.506E+00 -.512E+03   -.501E+00 -.501E+00 0.512E+03   -.930E-02 -.930E-02 0.316E+00
   -.114E+00 0.535E+00 -.510E+03   0.190E+00 -.538E+00 0.510E+03   -.995E-01 0.178E-02 0.316E+00
   -.235E-01 0.235E-01 0.512E+03   0.134E-01 -.134E-01 -.512E+03   0.142E-01 -.142E-01 -.903E-01
   -.146E+00 0.364E-01 0.511E+03   0.108E+00 -.323E-01 -.511E+03   0.516E-01 -.617E-02 -.136E+00
   -.306E-02 -.303E-01 0.155E+04   0.707E-02 0.319E-01 -.156E+04   -.560E-02 -.217E-02 0.360E+01
   -.305E-01 -.305E-01 0.155E+04   0.319E-01 0.319E-01 -.156E+04   -.195E-02 -.195E-02 0.360E+01
   0.309E+00 -.309E+00 -.156E+04   -.379E+00 0.379E+00 0.156E+04   0.885E-01 -.885E-01 -.508E+01
   -.179E+01 -.431E+00 -.156E+04   0.187E+01 0.483E+00 0.156E+04   -.624E-01 -.704E-01 -.489E+01
   0.114E+00 -.535E+00 -.510E+03   -.190E+00 0.538E+00 0.510E+03   0.995E-01 -.178E-02 0.316E+00
   -.506E+00 -.506E+00 -.512E+03   0.501E+00 0.501E+00 0.512E+03   0.930E-02 0.930E-02 0.316E+00
   -.174E+00 0.174E+00 0.512E+03   0.164E+00 -.164E+00 -.512E+03   0.120E-01 -.120E-01 -.497E-01
   -.364E-01 0.146E+00 0.511E+03   0.323E-01 -.108E+00 -.511E+03   0.617E-02 -.516E-01 -.136E+00
   -.303E-01 -.306E-02 0.155E+04   0.319E-01 0.707E-02 -.156E+04   -.217E-02 -.560E-02 0.360E+01
   -.968E-03 -.969E-03 0.155E+04   0.621E-02 0.621E-02 -.156E+04   -.737E-02 -.737E-02 0.361E+01
   -.428E+01 0.428E+01 -.155E+04   0.416E+01 -.416E+01 0.155E+04   0.329E+00 -.329E+00 -.413E+01
   0.431E+00 0.179E+01 -.156E+04   -.483E+00 -.187E+01 0.156E+04   0.704E-01 0.624E-01 -.489E+01
   -.535E+00 0.114E+00 -.510E+03   0.538E+00 -.190E+00 0.510E+03   -.178E-02 0.995E-01 0.316E+00
   0.411E+00 0.411E+00 -.519E+03   -.486E+00 -.486E+00 0.519E+03   0.976E-01 0.977E-01 -.171E+00
   0.364E-01 -.146E+00 0.511E+03   -.323E-01 0.108E+00 -.511E+03   -.617E-02 0.516E-01 -.136E+00
   0.174E+00 -.174E+00 0.512E+03   -.164E+00 0.164E+00 -.512E+03   -.120E-01 0.120E-01 -.497E-01
   0.960E-03 0.962E-03 0.155E+04   -.620E-02 -.620E-02 -.156E+04   0.738E-02 0.738E-02 0.361E+01
   0.303E-01 0.307E-02 0.155E+04   -.318E-01 -.708E-02 -.156E+04   0.217E-02 0.560E-02 0.360E+01
   -.431E+00 -.179E+01 -.156E+04   0.483E+00 0.187E+01 0.156E+04   -.704E-01 -.624E-01 -.489E+01
   0.428E+01 -.428E+01 -.155E+04   -.416E+01 0.416E+01 0.155E+04   -.329E+00 0.329E+00 -.413E+01
   -.411E+00 -.411E+00 -.519E+03   0.486E+00 0.486E+00 0.519E+03   -.976E-01 -.976E-01 -.171E+00
   0.535E+00 -.114E+00 -.510E+03   -.538E+00 0.190E+00 0.510E+03   0.178E-02 -.995E-01 0.316E+00
 -----------------------------------------------------------------------------------------------
   0.131E-04 0.101E-04 0.132E+02   0.703E-12 -.205E-12 -.591E-11   0.168E-04 0.142E-04 -.132E+02


 POSITION                                       TOTAL-FORCE (eV/Angst)
 -----------------------------------------------------------------------------------
      0.00000      6.33074      7.50000        -0.000073      0.000522      0.321434
      2.11025      0.00000      7.50000        -0.000553      0.000554      0.318665
      0.00000      0.00000      9.61025        -0.005501     -0.005501      0.046777
      2.11025      6.33074      9.61025        -0.016440     -0.003890      0.054159
      8.43648      6.33022     11.73829        -0.003412     -0.009600      0.001501
      2.10971      0.00054     11.73552         0.007605     -0.007604      0.021348
      0.00005      0.00005     13.84392         0.016672      0.016672     -0.009262
      2.10095      6.33385     13.83731         0.065531      0.020356      0.000412
      0.00000      2.11025      7.50000         0.000554     -0.000555      0.318664
      2.11025      4.22049      7.50000         0.000075     -0.000519      0.321436
      0.00000      4.22049      9.61025         0.016436      0.003890      0.054156
      2.11025      2.11025      9.61025         0.005499      0.005499      0.046774
      0.00054      2.10971     11.73552        -0.007605      0.007605      0.021350
      2.11475      4.22101     11.73829         0.003411      0.009599      0.001502
      0.00930      4.21739     13.83731        -0.065530     -0.020356      0.000413
      2.11019      2.11019     13.84392        -0.016674     -0.016675     -0.009262
      4.22049      6.33074      7.50000        -0.000252      0.000254      0.315657
      6.33074      0.00000      7.50000         0.000522     -0.000073      0.321435
      4.22049      0.00000      9.61025         0.003890      0.016436      0.054155
      6.33074      6.33074      9.61025         0.007684      0.007682      0.054102
      4.22173      6.32950     11.73214        -0.000562      0.000563      0.090169
      6.33022      8.43648     11.73829        -0.009599     -0.003412      0.001502
      4.21739      0.00930     13.83731        -0.020354     -0.065528      0.000417
      6.33060      6.33060     13.87489        -0.017977     -0.017973     -0.297080
      4.22049      2.11025      7.50000        -0.000517      0.000075      0.321436
      6.33074      4.22049      7.50000         0.000252     -0.000251      0.315655
      4.22049      4.22049      9.61025        -0.007683     -0.007682      0.054102
      6.33074      2.11025      9.61025        -0.003889     -0.016438      0.054159
      4.22101      2.11475     11.73829         0.009598      0.003410      0.001503
      6.32950      4.22173     11.73214         0.000564     -0.000562      0.090169
      4.22064      4.22064     13.87489         0.017972      0.017974     -0.297080
      6.33385      2.10095     13.83731         0.020357      0.065528      0.000414
      0.00000      6.33074      9.61025        -0.013159      0.002099      0.071610
      2.11025      0.00000      9.61025        -0.004093      0.004090      0.072063
      0.00000      0.00000      7.50000         0.000556      0.000559     -0.403170
      2.11025      6.33074      7.50000         0.001590      0.000620     -0.402102
      8.43934      6.32878     13.89115        -0.010507      0.018465     -0.052055
      2.10832      0.00193     13.88871        -0.018193      0.018195     -0.091594
      8.44071      8.44071     11.73170        -0.004620     -0.004619      0.026327
      2.10763      6.33141     11.72905        -0.023472     -0.000655      0.014058
      0.00000      2.11025      9.61025         0.004092     -0.004092      0.072066
      2.11025      4.22049      9.61025         0.013158     -0.002102      0.071610
      0.00000      4.22049      7.50000        -0.001587     -0.000620     -0.402105
      2.11025      2.11025      7.50000        -0.000561     -0.000559     -0.403169
      0.00193      2.10832     13.88871         0.018193     -0.018195     -0.091596
      2.11189      4.22245     13.89115         0.010505     -0.018465     -0.052053
      0.00261      4.21982     11.72905         0.023470      0.000654      0.014058
      2.11052      2.11052     11.73170         0.004616      0.004620      0.026328
      4.22049      6.33074      9.61025         0.002836     -0.002836      0.069159
      6.33074      0.00000      9.61025         0.002108     -0.013157      0.071609
      4.22049      0.00000      7.50000        -0.000619     -0.001590     -0.402104
      6.33074      6.33074      7.50000        -0.002133     -0.002132     -0.401684
      4.20254      6.34869     13.86263         0.201287     -0.201289      0.175056
      6.32878      8.43934     13.89115         0.018469     -0.010505     -0.052054
      4.21982      0.00261     11.72905         0.000654      0.023471      0.014057
      6.32962      6.32962     11.73656         0.022557      0.022554     -0.004570
      4.22049      2.11025      9.61025        -0.002103      0.013159      0.071610
      6.33074      4.22049      9.61025        -0.002835      0.002839      0.069160
      4.22049      4.22049      7.50000         0.002130      0.002132     -0.401685
      6.33074      2.11025      7.50000         0.000621      0.001588     -0.402102
      4.22245      2.11189     13.89115        -0.018465      0.010507     -0.052050
      6.34869      4.20254     13.86263        -0.201288      0.201290      0.175055
      4.22161      4.22161     11.73656        -0.022557     -0.022554     -0.004571
      6.33141      2.10763     11.72905        -0.000652     -0.023472      0.014057
 -----------------------------------------------------------------------------------
    total drift:                                0.000030      0.000024     -0.015486


--------------------------------------------------------------------------------------------------------



  FREE ENERGIE OF THE ION-ELECTRON SYSTEM (eV)
  ---------------------------------------------------
  free  energy   TOTEN  =      -264.80467473 eV

  energy  without entropy=     -264.80467473  energy(sigma->0) =     -264.80467473



--------------------------------------------------------------------------------------------------------


    POTLOK:  cpu time      2.6426: real time      2.6428


--------------------------------------------------------------------------------------------------------


     LOOP+:  cpu time    220.8628: real time    221.0540
    4ORBIT:  cpu time      0.0000: real time      0.0000

 total amount of memory used by VASP MPI-rank0    72603. kBytes
=======================================================================

   base      :      30000. kBytes
   nonl-proj :      11878. kBytes
   fftplans  :       4923. kBytes
   grid      :      13142. kBytes
   one-center:        129. kBytes
   wavefun   :      12531. kBytes

  
  
 General timing and accounting informations for this job:
 ========================================================
  
                  Total CPU time used (sec):      256.979
                            User time (sec):      255.459
                          System time (sec):        1.520
                         Elapsed time (sec):      266.695
  
                   Maximum memory used (kb):      292336.
                   Average memory used (kb):          N/A
  
                          Minor page faults:        87802
                          Major page faults:            0
                 Voluntary context switches:        12425
