 vasp.6.4.2 20Jul23 (build Feb 22 2024 13:53:45) complex                         
 executed on              LinuxNV date 2024.08.27  22:23:49
 running    4 mpi-ranks, with    1 threads/rank, on    1 nodes
 distrk:  each k-point on    4 cores,    1 groups
 distr:  one band on NCORE=   1 cores,    4 groups
 OpenACC runtime initialized ...    4 GPUs detected


--------------------------------------------------------------------------------------------------------


 INCAR:
   SYSTEM = Oxide-Surface
   ISMEAR = 0
   SIGMA = 0.05
   EDIFF = 1E-5
   ALGO = Normal
   IBRION = -1
   NSW = 0
   ISYM = 0
   DIPOL = 0.5 0.5 0.5
   IDIPOL = 3
   LDIPOL = .TRUE.
   ISTART = 1
   LHFCALC = .TRUE.
   GGA = PE
   IVDW = 21
   VDW_SR = 0.96
   HFRCUT = -1
   ENCUT = 520
   PREC = Normal
   PRECFOCK = Normal
   LASPH = .TRUE.
   LREAL = Auto
   ISPIN = 1
   NELM = 200
   NELMIN = 8
   NCORE = 1
   KPAR = 1
   LWAVE = .FALSE.
   LCHARG = .FALSE.

 POTCAR:    PAW_PBE N 08Apr2002                   
 POTCAR:    PAW_PBE H 15Jun2001                   
 POTCAR:    PAW_PBE Mg_pv 13Apr2007               
 POTCAR:    PAW_PBE O 08Apr2002                   
 POTCAR:    PAW_PBE N 08Apr2002                   
   SHA256 =  e053789ff3a61a86a1b75d8a110fcc91f86041011e7b0817c7c99e4e8a6349d7 N/POTCAR              
   COPYR  = (c) Copyright 08Apr2002 Georg Kresse                                                    
   COPYR  = This file is part of the software VASP. Any use, copying, and all other rights are regul
   COPYR  = If you do not have a valid VASP license, you may not use, copy or distribute this file. 
   VRHFIN =N: s2p3                                                                                  
   LEXCH  = PE                                                                                      
   EATOM  =   264.5486 eV,   19.4438 Ry                                                             
                                                                                                    
   TITEL  = PAW_PBE N 08Apr2002                                                                     
   LULTRA =        F    use ultrasoft PP ?                                                          
   IUNSCR =        1    unscreen: 0-lin 1-nonlin 2-no                                               
   RPACOR =    1.200    partial core radius                                                         
   POMASS =   14.001; ZVAL   =    5.000    mass and valenz                                          
   RCORE  =    1.500    outmost cutoff radius                                                       
   RWIGS  =    1.400; RWIGS  =    0.741    wigner-seitz radius (au A)                               
   ENMAX  =  400.000; ENMIN  =  300.000 eV                                                          
   ICORE  =        2    local potential                                                             
   LCOR   =        T    correct aug charges                                                         
   LPAW   =        T    paw PP                                                                      
   EAUG   =  627.112                                                                                
   DEXC   =    0.000                                                                                
   RMAX   =    1.529    core radius for proj-oper                                                   
   RAUG   =    1.300    factor for augmentation sphere                                              
   RDEP   =    1.514    radius for radial grids                                                     
   RDEPT  =    1.338    core radius for aug-charge                                                  
                                                                                                    
   Atomic configuration                                                                             
    4 entries                                                                                       
     n  l   j            E        occ.                                                              
     1  0  0.50      -384.7179   2.0000                                                             
     2  0  0.50       -18.5828   2.0000                                                             
     2  1  0.50        -7.0898   3.0000                                                             
     3  2  1.50        -6.8029   0.0000                                                             
   Description                                                                                      
     l       E           TYP  RCUT    TYP  RCUT                                                     
     0    -18.5828119     23  1.200                                                                 
     0    -13.5018863     23  1.200                                                                 
     1     -7.0897853     23  1.500                                                                 
     1      9.5240782     23  1.500                                                                 
     2     -6.8029130      7  1.500                                                                 
  local pseudopotential read in
  partial core-charges read in
  partial kinetic energy density read in
  atomic valenz-charges read in
  non local Contribution for L=            0  read in
    real space projection operators read in
  non local Contribution for L=            0  read in
    real space projection operators read in
  non local Contribution for L=            1  read in
    real space projection operators read in
  non local Contribution for L=            1  read in
    real space projection operators read in
    PAW grid and wavefunctions read in
 
   number of l-projection  operators is LMAX  =            4
   number of lm-projection operators is LMMAX =            8
 
 POTCAR:    PAW_PBE H 15Jun2001                   
   SHA256 =  030f79b5d3ab3cf0e668861823c8fb652ff669f3e15e46930bd03bfd63a607b6 H/POTCAR              
   COPYR  = (c) Copyright 15Jun2001 Georg Kresse                                                    
   COPYR  = This file is part of the software VASP. Any use, copying, and all other rights are regul
   COPYR  = If you do not have a valid VASP license, you may not use, copy or distribute this file. 
   VRHFIN =H: ultrasoft test                                                                        
   LEXCH  = PE                                                                                      
   EATOM  =    12.4884 eV,    0.9179 Ry                                                             
                                                                                                    
   TITEL  = PAW_PBE H 15Jun2001                                                                     
   LULTRA =        F    use ultrasoft PP ?                                                          
   IUNSCR =        0    unscreen: 0-lin 1-nonlin 2-no                                               
   RPACOR =    0.000    partial core radius                                                         
   POMASS =    1.000; ZVAL   =    1.000    mass and valenz                                          
   RCORE  =    1.100    outmost cutoff radius                                                       
   RWIGS  =    0.700; RWIGS  =    0.370    wigner-seitz radius (au A)                               
   ENMAX  =  250.000; ENMIN  =  200.000 eV                                                          
   RCLOC  =    0.701    cutoff for local pot                                                        
   LCOR   =        T    correct aug charges                                                         
   LPAW   =        T    paw PP                                                                      
   EAUG   =  400.000                                                                                
   RMAX   =    1.123    core radius for proj-oper                                                   
   RAUG   =    1.200    factor for augmentation sphere                                              
   RDEP   =    1.112    radius for radial grids                                                     
   RDEPT  =    0.926    core radius for aug-charge                                                  
                                                                                                    
   Atomic configuration                                                                             
    2 entries                                                                                       
     n  l   j            E        occ.                                                              
     1  0  0.50        -6.4927   1.0000                                                             
     2  1  0.50        -3.4015   0.0000                                                             
   Description                                                                                      
     l       E           TYP  RCUT    TYP  RCUT                                                     
     0     -6.4927494     23  1.100                                                                 
     0      6.8029130     23  1.100                                                                 
     1     -4.0817478     23  1.100                                                                 
  local pseudopotential read in
  atomic valenz-charges read in
  non local Contribution for L=            0  read in
    real space projection operators read in
  non local Contribution for L=            0  read in
    real space projection operators read in
  non local Contribution for L=            1  read in
    real space projection operators read in
    PAW grid and wavefunctions read in
 
   number of l-projection  operators is LMAX  =            3
   number of lm-projection operators is LMMAX =            5
 
 POTCAR:    PAW_PBE Mg_pv 13Apr2007               
   SHA256 =  f474ac0dd33840b9ae76c01d57fea79fdf77cdfbb07d5ade72c65f83c709b62b Mg_pv/POTCAR          
   COPYR  = (c) Copyright 13Apr2007 Georg Kresse                                                    
   COPYR  = This file is part of the software VASP. Any use, copying, and all other rights are regul
   COPYR  = If you do not have a valid VASP license, you may not use, copy or distribute this file. 
   VRHFIN =Mg: p6s2                                                                                 
   LEXCH  = PE                                                                                      
   EATOM  =  1056.7344 eV,   77.6678 Ry                                                             
                                                                                                    
   TITEL  = PAW_PBE Mg_pv 13Apr2007                                                                 
   LULTRA =        F    use ultrasoft PP ?                                                          
   IUNSCR =        1    unscreen: 0-lin 1-nonlin 2-no                                               
   RPACOR =    1.500    partial core radius                                                         
   POMASS =   24.305; ZVAL   =    8.000    mass and valenz                                          
   RCORE  =    2.000    outmost cutoff radius                                                       
   RWIGS  =    2.000; RWIGS  =    1.058    wigner-seitz radius (au A)                               
   ENMAX  =  403.929; ENMIN  =  302.947 eV                                                          
   RCLOC  =    1.506    cutoff for local pot                                                        
   LCOR   =        T    correct aug charges                                                         
   LPAW   =        T    paw PP                                                                      
   EAUG   =  758.780                                                                                
   DEXC   =    0.000                                                                                
   RMAX   =    2.045    core radius for proj-oper                                                   
   RAUG   =    1.300    factor for augmentation sphere                                              
   RDEP   =    2.025    radius for radial grids                                                     
   RDEPT  =    1.557    core radius for aug-charge                                                  
                                                                                                    
   Atomic configuration                                                                             
    5 entries                                                                                       
     n  l   j            E        occ.                                                              
     1  0  0.50     -1259.6230   2.0000                                                             
     2  0  0.50       -79.8442   2.0000                                                             
     2  1  1.50       -46.6121   6.0000                                                             
     3  0  0.50        -4.7055   2.0000                                                             
     3  2  1.50        -1.3606   0.0000                                                             
   Description                                                                                      
     l       E           TYP  RCUT    TYP  RCUT                                                     
     1    -46.6121073     23  1.600                                                                 
     1      2.7211652     23  1.600                                                                 
     0     -4.7054661     23  2.000                                                                 
     0     61.2262170     23  2.000                                                                 
     2     -1.3605826     23  2.000                                                                 
  local pseudopotential read in
  partial core-charges read in
  partial kinetic energy density read in
  atomic valenz-charges read in
  non local Contribution for L=            1  read in
    real space projection operators read in
  non local Contribution for L=            1  read in
    real space projection operators read in
  non local Contribution for L=            0  read in
    real space projection operators read in
  non local Contribution for L=            0  read in
    real space projection operators read in
  non local Contribution for L=            2  read in
    real space projection operators read in
    PAW grid and wavefunctions read in
 
   number of l-projection  operators is LMAX  =            5
   number of lm-projection operators is LMMAX =           13
 
 POTCAR:    PAW_PBE O 08Apr2002                   
   SHA256 =  818f92134a0a090dccd8ba1447fa70422a3b330e708bb4f08108d8ae51209ddf O/POTCAR              
   COPYR  = (c) Copyright 08Apr2002 Georg Kresse                                                    
   COPYR  = This file is part of the software VASP. Any use, copying, and all other rights are regul
   COPYR  = If you do not have a valid VASP license, you may not use, copy or distribute this file. 
   VRHFIN =O: s2p4                                                                                  
   LEXCH  = PE                                                                                      
   EATOM  =   432.3788 eV,   31.7789 Ry                                                             
                                                                                                    
   TITEL  = PAW_PBE O 08Apr2002                                                                     
   LULTRA =        F    use ultrasoft PP ?                                                          
   IUNSCR =        1    unscreen: 0-lin 1-nonlin 2-no                                               
   RPACOR =    1.200    partial core radius                                                         
   POMASS =   16.000; ZVAL   =    6.000    mass and valenz                                          
   RCORE  =    1.520    outmost cutoff radius                                                       
   RWIGS  =    1.550; RWIGS  =    0.820    wigner-seitz radius (au A)                               
   ENMAX  =  400.000; ENMIN  =  300.000 eV                                                          
   ICORE  =        2    local potential                                                             
   LCOR   =        T    correct aug charges                                                         
   LPAW   =        T    paw PP                                                                      
   EAUG   =  605.392                                                                                
   DEXC   =    0.000                                                                                
   RMAX   =    1.553    core radius for proj-oper                                                   
   RAUG   =    1.300    factor for augmentation sphere                                              
   RDEP   =    1.550    radius for radial grids                                                     
   RDEPT  =    1.329    core radius for aug-charge                                                  
                                                                                                    
   Atomic configuration                                                                             
    4 entries                                                                                       
     n  l   j            E        occ.                                                              
     1  0  0.50      -514.6923   2.0000                                                             
     2  0  0.50       -23.9615   2.0000                                                             
     2  1  0.50        -9.0305   4.0000                                                             
     3  2  1.50        -9.5241   0.0000                                                             
   Description                                                                                      
     l       E           TYP  RCUT    TYP  RCUT                                                     
     0    -23.9615318     23  1.200                                                                 
     0     -9.5240782     23  1.200                                                                 
     1     -9.0304911     23  1.520                                                                 
     1      8.1634956     23  1.520                                                                 
     2     -9.5240782      7  1.500                                                                 
  local pseudopotential read in
  partial core-charges read in
  partial kinetic energy density read in
  kinetic energy density of atom read in
  atomic valenz-charges read in
  non local Contribution for L=            0  read in
    real space projection operators read in
  non local Contribution for L=            0  read in
    real space projection operators read in
  non local Contribution for L=            1  read in
    real space projection operators read in
  non local Contribution for L=            1  read in
    real space projection operators read in
    PAW grid and wavefunctions read in
 
   number of l-projection  operators is LMAX  =            4
   number of lm-projection operators is LMMAX =            8
 
 Optimization of the real space projectors (new method)

 maximal supplied QI-value         = 25.13
 optimisation between [QCUT,QGAM] = [ 11.56, 23.12] = [ 37.43,149.72] Ry 
 Optimized for a Real-space Cutoff    1.25 Angstroem

   l    n(q)    QCUT    max X(q) W(low)/X(q) W(high)/X(q)  e(spline) 
   0      9    11.561    79.467    0.52E-04    0.16E-03    0.37E-06
   0      9    11.561    66.151    0.51E-04    0.16E-03    0.37E-06
   1      8    11.561    18.886    0.46E-03    0.28E-03    0.80E-06
   1      8    11.561    13.488    0.47E-03    0.29E-03    0.82E-06
 Optimization of the real space projectors (new method)

 maximal supplied QI-value         = 34.20
 optimisation between [QCUT,QGAM] = [ 11.63, 23.26] = [ 37.87,151.49] Ry 
 Optimized for a Real-space Cutoff    1.14 Angstroem

   l    n(q)    QCUT    max X(q) W(low)/X(q) W(high)/X(q)  e(spline) 
   0      8    11.629    19.460    0.27E-03    0.65E-03    0.17E-06
   0      8    11.629    12.209    0.25E-03    0.62E-03    0.16E-06
   1      7    11.629     4.655    0.29E-03    0.85E-04    0.19E-06
 Optimization of the real space projectors (new method)

 maximal supplied QI-value         = 18.90
 optimisation between [QCUT,QGAM] = [ 11.53, 23.24] = [ 37.21,151.29] Ry 
 Optimized for a Real-space Cutoff    1.21 Angstroem

   l    n(q)    QCUT    max X(q) W(low)/X(q) W(high)/X(q)  e(spline) 
   1      8    11.527     2.974    0.16E-03    0.13E-03    0.98E-07
   1      8    11.527     4.279    0.42E-03    0.30E-03    0.22E-06
   0      8    11.527    16.381    0.13E-03    0.20E-03    0.72E-07
   0      8    11.527     5.611    0.88E-04    0.13E-03    0.50E-07
   2      7    11.527     4.652    0.25E-03    0.73E-04    0.51E-07
 Optimization of the real space projectors (new method)

 maximal supplied QI-value         = 24.76
 optimisation between [QCUT,QGAM] = [ 11.64, 23.27] = [ 37.91,151.63] Ry 
 Optimized for a Real-space Cutoff    1.04 Angstroem

   l    n(q)    QCUT    max X(q) W(low)/X(q) W(high)/X(q)  e(spline) 
   0      7    11.635    20.381    0.14E-03    0.49E-03    0.18E-06
   0      7    11.635    15.268    0.16E-03    0.52E-03    0.19E-06
   1      7    11.635     5.964    0.30E-03    0.44E-03    0.22E-06
   1      7    11.635     5.382    0.27E-03    0.34E-03    0.19E-06
  PAW_PBE N 08Apr2002                   :
 energy of atom  1       EATOM= -264.5486
 kinetic energy error for atom=    0.0125 (will be added to EATOM!!)
  PAW_PBE H 15Jun2001                   :
 energy of atom  2       EATOM=  -12.4884
 kinetic energy error for atom=    0.0014 (will be added to EATOM!!)
  PAW_PBE Mg_pv 13Apr2007               :
 energy of atom  3       EATOM=-1056.7344
 kinetic energy error for atom=    0.0340 (will be added to EATOM!!)
  PAW_PBE O 08Apr2002                   :
 energy of atom  4       EATOM= -432.3788
 kinetic energy error for atom=    0.0208 (will be added to EATOM!!)
 
 
 POSCAR:  N  H Mg  O
  positions in direct lattice
  No initial velocities read in
 exchange correlation table for  LEXCH =        8
   RHO(1)=    0.500       N(1)  =     2000
   RHO(2)=  100.500       N(2)  =     4000
 


--------------------------------------------------------------------------------------------------------


 ion  position               nearest neighbor table
   1  0.500  0.516  0.743-   4 1.02   3 1.02   2 1.02
   2  0.500  0.635  0.753-   1 1.02
   3  0.402  0.469  0.770-   1 1.02
   4  0.598  0.469  0.770-   1 1.02
   5  0.000  0.750  0.230-  37 2.11  47 2.11  40 2.11  39 2.11  56 2.11
   6  0.250  0.000  0.230-  38 2.11  39 2.11  40 2.11  48 2.11  55 2.11
   7  0.000  0.000  0.354-  39 2.11  38 2.11  37 2.11  45 2.11  54 2.11  43 2.12
   8  0.250  0.750  0.354-  40 2.11  46 2.11  37 2.11  38 2.11  53 2.11  44 2.12
   9  0.000  0.750  0.479-  51 2.11  44 2.11  60 2.11  43 2.11  37 2.12  41 2.16
  10  0.250  1.000  0.479-  59 2.11  52 2.11  44 2.11  43 2.11  38 2.12  42 2.16
  11  0.000  1.000  0.603-  43 2.10  42 2.11  58 2.11  49 2.11  41 2.11
  12  0.250  0.750  0.602-  44 2.09  41 2.11  42 2.11  50 2.11  57 2.11
  13  0.000  0.250  0.230-  45 2.11  39 2.11  48 2.11  64 2.11  47 2.11
  14  0.250  0.500  0.230-  46 2.11  40 2.11  47 2.11  63 2.11  48 2.11
  15  0.000  0.500  0.354-  47 2.11  37 2.11  46 2.11  62 2.11  45 2.11  51 2.11
  16  0.250  0.250  0.354-  48 2.11  45 2.11  38 2.11  61 2.11  46 2.11  52 2.12
  17  1.000  0.250  0.479-  51 2.11  68 2.11  52 2.11  43 2.11  45 2.12  49 2.16
  18  0.251  0.500  0.480-  67 2.10  52 2.11  44 2.11  51 2.12  46 2.13  50 2.15
  19  0.000  0.500  0.602-  66 2.09  50 2.09  51 2.10  49 2.12  41 2.12
  20  0.250  0.250  0.602-  52 2.10  42 2.11  49 2.11  65 2.11  50 2.11
  21  0.500  0.750  0.230-  53 2.11  63 2.11  55 2.11  56 2.11  40 2.11
  22  0.750  0.000  0.230-  54 2.11  39 2.11  55 2.11  56 2.11  64 2.11
  23  0.500  0.000  0.354-  55 2.11  53 2.11  54 2.11  38 2.11  61 2.11  59 2.11
  24  0.750  0.750  0.354-  56 2.11  62 2.11  54 2.11  37 2.11  53 2.11  60 2.12
  25  0.500  0.749  0.480-  67 2.10  60 2.11  44 2.11  59 2.12  53 2.13  57 2.15
  26  0.750  1.000  0.479-  59 2.11  68 2.11  60 2.11  43 2.11  54 2.12  58 2.16
  27  0.500  0.000  0.602-  65 2.09  57 2.09  59 2.10  42 2.12  58 2.12
  28  0.750  0.750  0.602-  60 2.09  41 2.11  58 2.11  66 2.11  57 2.11
  29  0.500  0.250  0.230-  61 2.11  55 2.11  48 2.11  64 2.11  63 2.11
  30  0.750  0.500  0.230-  62 2.11  56 2.11  47 2.11  63 2.11  64 2.11
  31  0.500  0.500  0.354-  63 2.11  53 2.11  62 2.11  46 2.11  61 2.11  67 2.14
  32  0.750  0.250  0.354-  64 2.11  54 2.11  61 2.11  45 2.11  62 2.11  68 2.12
  33  0.500  0.251  0.480-  67 2.10  52 2.11  68 2.11  59 2.12  61 2.13  65 2.14
  34  0.749  0.500  0.480-  67 2.10  68 2.11  60 2.11  51 2.12  62 2.13  66 2.15
  35  0.500  0.499  0.611-  65 2.12  66 2.13  50 2.13  57 2.15  67 2.22
  36  0.750  0.250  0.602-  68 2.10  58 2.11  49 2.11  65 2.11  66 2.11
  37  0.000  0.750  0.354-   5 2.11  15 2.11   8 2.11   7 2.11  24 2.11   9 2.12
  38  0.250  0.000  0.354-   6 2.11   7 2.11   8 2.11  16 2.11  23 2.11  10 2.12
  39  0.000  0.000  0.230-   7 2.11   6 2.11   5 2.11  13 2.11  22 2.11
  40  0.250  0.750  0.230-   8 2.11  14 2.11   5 2.11   6 2.11  21 2.11
  41  1.000  0.750  0.606-  11 2.11  28 2.11  12 2.11  19 2.12   9 2.16
  42  0.249  1.000  0.606-  11 2.11  20 2.11  12 2.11  27 2.12  10 2.16
  43  1.000  1.000  0.479-  11 2.10   9 2.11  26 2.11  10 2.11  17 2.11   7 2.12
  44  0.250  0.750  0.479-  12 2.09  10 2.11   9 2.11  25 2.11  18 2.11   8 2.12
  45  0.000  0.250  0.354-  13 2.11   7 2.11  16 2.11  32 2.11  15 2.11  17 2.12
  46  0.250  0.500  0.354-  14 2.11   8 2.11  15 2.11  31 2.11  16 2.11  18 2.13
  47  0.000  0.500  0.230-  15 2.11   5 2.11  14 2.11  30 2.11  13 2.11
  48  0.250  0.250  0.230-  16 2.11  13 2.11   6 2.11  29 2.11  14 2.11
  49  0.000  0.249  0.606-  11 2.11  36 2.11  20 2.11  19 2.12  17 2.16
  50  0.247  0.500  0.606-  19 2.09  12 2.11  20 2.11  35 2.13  18 2.15
  51  0.000  0.500  0.479-  19 2.10   9 2.11  17 2.11  15 2.11  34 2.12  18 2.12
  52  0.250  0.250  0.479-  20 2.10  10 2.11  17 2.11  18 2.11  33 2.11  16 2.12
  53  0.500  0.750  0.354-  21 2.11  31 2.11  23 2.11  24 2.11   8 2.11  25 2.13
  54  0.750  0.000  0.354-  22 2.11   7 2.11  23 2.11  24 2.11  32 2.11  26 2.12
  55  0.500  0.000  0.230-  23 2.11  21 2.11  22 2.11   6 2.11  29 2.11
  56  0.750  0.750  0.230-  24 2.11  30 2.11  22 2.11   5 2.11  21 2.11
  57  0.500  0.753  0.606-  27 2.09  12 2.11  28 2.11  35 2.15  25 2.15
  58  0.751  1.000  0.606-  11 2.11  36 2.11  28 2.11  27 2.12  26 2.16
  59  0.500  1.000  0.479-  27 2.10  26 2.11  10 2.11  23 2.11  25 2.12  33 2.12
  60  0.750  0.750  0.479-  28 2.09  26 2.11   9 2.11  25 2.11  34 2.11  24 2.12
  61  0.500  0.250  0.354-  29 2.11  23 2.11  16 2.11  32 2.11  31 2.11  33 2.13
  62  0.750  0.500  0.354-  30 2.11  24 2.11  15 2.11  31 2.11  32 2.11  34 2.13
  63  0.500  0.500  0.230-  31 2.11  21 2.11  30 2.11  14 2.11  29 2.11
  64  0.750  0.250  0.230-  32 2.11  22 2.11  29 2.11  13 2.11  30 2.11
  65  0.500  0.247  0.606-  27 2.09  20 2.11  36 2.11  35 2.12  33 2.14
  66  0.753  0.500  0.606-  19 2.09  28 2.11  36 2.11  35 2.13  34 2.15
  67  0.500  0.500  0.480-  25 2.10  18 2.10  34 2.10  33 2.10  31 2.14  35 2.22
  68  0.750  0.250  0.479-  36 2.10  26 2.11  17 2.11  34 2.11  33 2.11  32 2.12
 

IMPORTANT INFORMATION: All symmetrisations will be switched off!
NOSYMM: (Re-)initialisation of all symmetry stuff for point group C_1.


----------------------------------------------------------------------------------------

                                     Primitive cell                                     

  volume of cell :    1211.2538

  direct lattice vectors                    reciprocal lattice vectors
     8.440984654  0.000000000  0.000000000     0.118469591  0.000000000  0.000000000
     0.000000000  8.440984654  0.000000000     0.000000000  0.118469591  0.000000000
     0.000000000  0.000000000 17.000000000     0.000000000  0.000000000  0.058823529

  length of vectors
     8.440984654  8.440984654 17.000000000     0.118469591  0.118469591  0.058823529

  position of ions in fractional coordinates (direct lattice)
     0.500000238  0.515521052  0.743122297
     0.499999982  0.635072459  0.752584339
     0.402069062  0.469398098  0.769809164
     0.597931074  0.469398359  0.769809375
     0.000000001  0.750005063  0.230190625
     0.250000001  0.000005063  0.230190625
     0.000000001  0.000005063  0.354322752
     0.250000001  0.750005063  0.354322752
     0.000000003  0.749688989  0.478992539
     0.250263523  0.999994937  0.479012029
     0.000000001  0.999958952  0.602562889
     0.249680170  0.750040946  0.602146405
     0.000000001  0.250005063  0.230190625
     0.250000001  0.500005063  0.230190625
     0.000000001  0.500005063  0.354322752
     0.250000001  0.250005063  0.354322752
     0.999999996  0.250234310  0.479017192
     0.251264403  0.499912485  0.479817993
     0.000000018  0.499894003  0.602327959
     0.249874846  0.249737023  0.602282337
     0.500000001  0.750005063  0.230190625
     0.750000001  0.000005063  0.230190625
     0.500000001  0.000005063  0.354322752
     0.750000001  0.750005063  0.354322752
     0.499999997  0.748694190  0.479856547
     0.749736478  0.999994937  0.479012045
     0.499999996  0.000235948  0.602315670
     0.750319839  0.750040932  0.602146398
     0.500000001  0.250005063  0.230190625
     0.750000001  0.500005063  0.230190625
     0.500000001  0.500005063  0.354322752
     0.750000001  0.250005063  0.354322752
     0.500000000  0.251193808  0.479761393
     0.748735611  0.499912479  0.479818037
     0.500000034  0.498643644  0.610784368
     0.750125162  0.249737020  0.602282348
     0.000000001  0.750005063  0.354322752
     0.250000001  0.000005063  0.354322752
     0.000000001  0.000005063  0.230190625
     0.250000001  0.750005063  0.230190625
     0.999999999  0.750491851  0.605981896
     0.249403678  0.999911150  0.606023354
     0.999999998  0.999937384  0.478809541
     0.249933155  0.750101855  0.478982330
     0.000000001  0.250005063  0.354322752
     0.250000001  0.500005063  0.354322752
     0.000000001  0.500005063  0.230190625
     0.250000001  0.250005063  0.230190625
     0.000000003  0.249368438  0.606057731
     0.247373171  0.499932707  0.606018755
     0.000000006  0.499983562  0.478713219
     0.249818530  0.249806475  0.478943030
     0.500000001  0.750005063  0.354322752
     0.750000001  0.000005063  0.354322752
     0.500000001  0.000005063  0.230190625
     0.750000001  0.750005063  0.230190625
     0.499999997  0.752922771  0.606464953
     0.750596323  0.999911142  0.606023376
     0.500000001  0.999876204  0.478718645
     0.750066840  0.750101852  0.478982337
     0.500000001  0.250005063  0.354322752
     0.750000001  0.500005063  0.354322752
     0.500000001  0.500005063  0.230190625
     0.750000001  0.250005063  0.230190625
     0.500000003  0.247335548  0.605753670
     0.752626877  0.499932691  0.606018757
     0.500000006  0.500046709  0.480056781
     0.750181474  0.249806464  0.478943037

  ion indices of the primitive-cell ions
   primitive index   ion index
                 1           1
                 2           2
                 3           3
                 4           4
                 5           5
                 6           6
                 7           7
                 8           8
                 9           9
                10          10
                11          11
                12          12
                13          13
                14          14
                15          15
                16          16
                17          17
                18          18
                19          19
                20          20
                21          21
                22          22
                23          23
                24          24
                25          25
                26          26
                27          27
                28          28
                29          29
                30          30
                31          31
                32          32
                33          33
                34          34
                35          35
                36          36
                37          37
                38          38
                39          39
                40          40
                41          41
                42          42
                43          43
                44          44
                45          45
                46          46
                47          47
                48          48
                49          49
                50          50
                51          51
                52          52
                53          53
                54          54
                55          55
                56          56
                57          57
                58          58
                59          59
                60          60
                61          61
                62          62
                63          63
                64          64
                65          65
                66          66
                67          67
                68          68

----------------------------------------------------------------------------------------

 
 
 KPOINTS: pymatgen v2020.8.13 with grid density = 

Automatic generation of k-mesh.
 Grid dimensions read from file:
 generate k-points for:    2    2    1

 Generating k-lattice:

  Cartesian coordinates                     Fractional coordinates (reciprocal lattice)
     0.059234796  0.000000000  0.000000000     0.500000000  0.000000000  0.000000000
     0.000000000  0.059234796  0.000000000     0.000000000  0.500000000  0.000000000
     0.000000000  0.000000000  0.058823529     0.000000000  0.000000000  1.000000000

  Length of vectors
     0.059234796  0.059234796  0.058823529

  Shift w.r.t. Gamma in fractional coordinates (k-lattice)
     0.000000000  0.000000000  0.000000000

 
 Subroutine IBZKPT returns following result:
 ===========================================
 
 Found      4 irreducible k-points:
 
 Following reciprocal coordinates:
            Coordinates               Weight
  0.000000  0.000000  0.000000      1.000000
  0.500000  0.000000  0.000000      1.000000
  0.000000  0.500000  0.000000      1.000000
  0.500000  0.500000  0.000000      1.000000
 
 Following cartesian coordinates:
            Coordinates               Weight
  0.000000  0.000000  0.000000      1.000000
  0.059235  0.000000  0.000000      1.000000
  0.000000  0.059235  0.000000      1.000000
  0.059235  0.059235  0.000000      1.000000
 
 
 Subroutine IBZKPT_HF returns following result:
 ==============================================
 
 Found      4 k-points in 1st BZ
 the following      4 k-points will be used (e.g. in the exchange kernel)
 Following reciprocal coordinates:   # in IRBZ
  0.000000  0.000000  0.000000    0.25000000   1 t-inv F
  0.500000  0.000000  0.000000    0.25000000   2 t-inv F
  0.000000  0.500000  0.000000    0.25000000   3 t-inv F
  0.500000  0.500000  0.000000    0.25000000   4 t-inv F


--------------------------------------------------------------------------------------------------------




 Dimension of arrays:
   k-points           NKPTS =      4   k-points in BZ     NKDIM =      4   number of bands    NBANDS=    276
   number of dos      NEDOS =    301   number of ions     NIONS =     68
   non local maximal  LDIM  =      5   non local SUM 2l+1 LMDIM =     13
   total plane-waves  NPLWV = 221184
   max r-space proj   IRMAX =   1533   max aug-charges    IRDMAX=   3798
   dimension x,y,z NGX =    48 NGY =   48 NGZ =   96
   dimension x,y,z NGXF=    96 NGYF=   96 NGZF=  192
   support grid    NGXF=    96 NGYF=   96 NGZF=  192
   ions per type =               1   3  32  32
   NGX,Y,Z   is equivalent  to a cutoff of   9.45,  9.45,  9.39 a.u.
   NGXF,Y,Z  is equivalent  to a cutoff of  18.91, 18.91, 18.78 a.u.

 SYSTEM =  Oxide-Surface                           
 POSCAR =   N  H Mg  O                             

     8.440984654  8.440984654 17.000000000     0.118469591  0.118469591  0.058823529


 
 old parameters found on file WAVECAR:
  energy-cutoff  :      520.00
  volume of cell :     1211.25
      direct lattice vectors                 reciprocal lattice vectors
     8.440984654  0.000000000  0.000000000     0.118469591  0.000000000  0.000000000
     0.000000000  8.440984654  0.000000000     0.000000000  0.118469591  0.000000000
     0.000000000  0.000000000 17.000000000     0.000000000  0.000000000  0.058823529

  length of vectors

 
 k-points in units of 2pi/SCALE and weight: pymatgen v2020.8.13 with grid density = 
   0.00000000  0.00000000  0.00000000       0.250
   0.05923480  0.00000000  0.00000000       0.250
   0.00000000  0.05923480  0.00000000       0.250
   0.05923480  0.05923480  0.00000000       0.250
 
 k-points in reciprocal lattice and weights: pymatgen v2020.8.13 with grid density = 
   0.00000000  0.00000000  0.00000000       0.250
   0.50000000  0.00000000  0.00000000       0.250
   0.00000000  0.50000000  0.00000000       0.250
   0.50000000  0.50000000  0.00000000       0.250
 
 position of ions in fractional coordinates (direct lattice) 
   0.50000024  0.51552105  0.74312230
   0.49999998  0.63507246  0.75258434
   0.40206906  0.46939810  0.76980916
   0.59793107  0.46939836  0.76980937
   0.00000000  0.75000506  0.23019063
   0.25000000  0.00000506  0.23019063
   0.00000000  0.00000506  0.35432275
   0.25000000  0.75000506  0.35432275
   0.00000000  0.74968899  0.47899254
   0.25026352  0.99999494  0.47901203
   0.00000000  0.99995895  0.60256289
   0.24968017  0.75004095  0.60214641
   0.00000000  0.25000506  0.23019063
   0.25000000  0.50000506  0.23019063
   0.00000000  0.50000506  0.35432275
   0.25000000  0.25000506  0.35432275
   1.00000000  0.25023431  0.47901719
   0.25126440  0.49991248  0.47981799
   0.00000002  0.49989400  0.60232796
   0.24987485  0.24973702  0.60228234
   0.50000000  0.75000506  0.23019063
   0.75000000  0.00000506  0.23019063
   0.50000000  0.00000506  0.35432275
   0.75000000  0.75000506  0.35432275
   0.50000000  0.74869419  0.47985655
   0.74973648  0.99999494  0.47901204
   0.50000000  0.00023595  0.60231567
   0.75031984  0.75004093  0.60214640
   0.50000000  0.25000506  0.23019063
   0.75000000  0.50000506  0.23019063
   0.50000000  0.50000506  0.35432275
   0.75000000  0.25000506  0.35432275
   0.50000000  0.25119381  0.47976139
   0.74873561  0.49991248  0.47981804
   0.50000003  0.49864364  0.61078437
   0.75012516  0.24973702  0.60228235
   0.00000000  0.75000506  0.35432275
   0.25000000  0.00000506  0.35432275
   0.00000000  0.00000506  0.23019063
   0.25000000  0.75000506  0.23019063
   1.00000000  0.75049185  0.60598190
   0.24940368  0.99991115  0.60602335
   1.00000000  0.99993738  0.47880954
   0.24993315  0.75010185  0.47898233
   0.00000000  0.25000506  0.35432275
   0.25000000  0.50000506  0.35432275
   0.00000000  0.50000506  0.23019063
   0.25000000  0.25000506  0.23019063
   0.00000000  0.24936844  0.60605773
   0.24737317  0.49993271  0.60601875
   0.00000001  0.49998356  0.47871322
   0.24981853  0.24980648  0.47894303
   0.50000000  0.75000506  0.35432275
   0.75000000  0.00000506  0.35432275
   0.50000000  0.00000506  0.23019063
   0.75000000  0.75000506  0.23019063
   0.50000000  0.75292277  0.60646495
   0.75059632  0.99991114  0.60602338
   0.50000000  0.99987620  0.47871865
   0.75006684  0.75010185  0.47898234
   0.50000000  0.25000506  0.35432275
   0.75000000  0.50000506  0.35432275
   0.50000000  0.50000506  0.23019063
   0.75000000  0.25000506  0.23019063
   0.50000000  0.24733555  0.60575367
   0.75262688  0.49993269  0.60601876
   0.50000001  0.50004671  0.48005678
   0.75018147  0.24980646  0.47894304
 
 position of ions in cartesian coordinates  (Angst):
   4.22049434  4.35150529 12.63307904
   4.22049217  5.36063688 12.79393376
   3.39385878  3.96218214 13.08675579
   5.04712702  3.96218435 13.08675937
   0.00000001  6.33078123  3.91324063
   2.11024617  0.00004274  3.91324063
   0.00000001  0.00004274  6.02348679
   2.11024617  6.33078123  6.02348679
   0.00000002  6.32811325  8.14287316
   2.11247056  8.44094192  8.14320449
   0.00000001  8.44063817 10.24356912
   2.10754649  6.33108412 10.23648889
   0.00000001  2.11028890  3.91324063
   2.11024617  4.22053507  3.91324063
   0.00000001  4.22053507  6.02348679
   2.11024617  2.11028890  6.02348679
   8.44098462  2.11222397  8.14329227
   2.12091897  4.21975361  8.15690588
   0.00000015  4.21959760 10.23957530
   2.10918974  2.10802638 10.23879972
   4.22049233  6.33078123  3.91324063
   6.33073850  0.00004274  3.91324063
   4.22049233  0.00004274  6.02348679
   6.33073850  6.33078123  6.02348679
   4.22049230  6.31971617  8.15756130
   6.32851410  8.44094191  8.14320476
   4.22049229  0.00199163 10.23936639
   6.33343824  6.33108400 10.23648877
   4.22049233  2.11028890  3.91324063
   6.33073850  4.22053507  3.91324063
   4.22049233  4.22053507  6.02348679
   6.33073850  2.11028890  6.02348679
   4.22049232  2.12032308  8.15594368
   6.32006581  4.21975356  8.15690662
   4.22049262  4.20904334 10.38333426
   6.33179498  2.10802635 10.23879992
   0.00000001  6.33078123  6.02348679
   2.11024617  0.00004274  6.02348679
   0.00000001  0.00004274  3.91324063
   2.11024617  6.33078123  3.91324063
   8.44098465  6.33489020 10.30169222
   2.10521262  8.44023467 10.30239702
   8.44098463  8.44045611  8.13976220
   2.10968192  6.33159825  8.14269962
   0.00000001  2.11028890  6.02348679
   2.11024617  4.22053507  6.02348679
   0.00000001  4.22053507  3.91324063
   2.11024617  2.11028890  3.91324063
   0.00000002  2.10491515 10.30298143
   2.08807314  4.21992431 10.30231883
   0.00000005  4.22035357  8.13812473
   2.10871438  2.10861262  8.14203151
   4.22049233  6.33078123  6.02348679
   6.33073850  0.00004274  6.02348679
   4.22049233  0.00004274  3.91324063
   6.33073850  6.33078123  3.91324063
   4.22049230  6.35540955 10.30990421
   6.33577204  8.44023460 10.30239739
   4.22049234  8.43993970  8.13821697
   6.33130268  6.33159822  8.14269972
   4.22049233  2.11028890  6.02348679
   6.33073850  4.22053507  6.02348679
   4.22049233  4.22053507  3.91324063
   6.33073850  2.11028890  3.91324063
   4.22049235  2.08775557 10.29781240
   6.35291192  4.21992417 10.30231887
   4.22049238  4.22088659  8.16096527
   6.33227031  2.10861253  8.14203162
 


--------------------------------------------------------------------------------------------------------

--------------------------------------- Iteration      FINAL  ---------------------------------------


--------------------OUTCAR has been truncated-------------------------


--------------------OUTCAR has been truncated-------------------------


--------------------OUTCAR has been truncated-------------------------


--------------------OUTCAR has been truncated-------------------------


--------------------OUTCAR has been truncated-------------------------


--------------------OUTCAR has been truncated-------------------------


--------------------OUTCAR has been truncated-------------------------


--------------------OUTCAR has been truncated-------------------------


--------------------OUTCAR has been truncated-------------------------


--------------------OUTCAR has been truncated-------------------------


    MIXING:  cpu time      0.0035: real time      0.0035
    OFIELD:  cpu time      0.0000: real time      0.0000

  Hirshfeld charges:
            ion         q(e)     
   ------------------------------
      1     N          -0.196
      2     H           0.124
      3     H           0.128
      4     H           0.128
      5     Mg          0.437
      6     Mg          0.437
      7     Mg          0.347
      8     Mg          0.348
      9     Mg          0.352
     10     Mg          0.352
     11     Mg          0.422
     12     Mg          0.422
     13     Mg          0.437
     14     Mg          0.436
     15     Mg          0.347
     16     Mg          0.348
     17     Mg          0.352
     18     Mg          0.351
     19     Mg          0.417
     20     Mg          0.424
     21     Mg          0.436
     22     Mg          0.437
     23     Mg          0.347
     24     Mg          0.348
     25     Mg          0.352
     26     Mg          0.352
     27     Mg          0.416
     28     Mg          0.422
     29     Mg          0.436
     30     Mg          0.436
     31     Mg          0.347
     32     Mg          0.348
     33     Mg          0.351
     34     Mg          0.351
     35     Mg          0.357
     36     Mg          0.424
     37     O          -0.359
     38     O          -0.359
     39     O          -0.426
     40     O          -0.426
     41     O          -0.430
     42     O          -0.430
     43     O          -0.357
     44     O          -0.357
     45     O          -0.359
     46     O          -0.359
     47     O          -0.426
     48     O          -0.426
     49     O          -0.430
     50     O          -0.427
     51     O          -0.357
     52     O          -0.357
     53     O          -0.359
     54     O          -0.359
     55     O          -0.426
     56     O          -0.426
     57     O          -0.426
     58     O          -0.430
     59     O          -0.357
     60     O          -0.357
     61     O          -0.359
     62     O          -0.359
     63     O          -0.427
     64     O          -0.426
     65     O          -0.427
     66     O          -0.427
     67     O          -0.359
     68     O          -0.357

  Hirshfeld-I charges:
            ion         q(e)        dq(e)    
   ------------------------------------------
      1     N          -1.650     -0.495E-04
      2     H           0.539      0.142E-04
      3     H           0.540      0.139E-04
      4     H           0.540      0.139E-04
      5     Mg          2.069     -0.325E-09
      6     Mg          2.069     -0.314E-09
      7     Mg          2.061     -0.367E-08
      8     Mg          2.061      0.193E-08
      9     Mg          2.064      0.135E-07
     10     Mg          2.062      0.134E-07
     11     Mg          2.084      0.119E-07
     12     Mg          2.089     -0.681E-07
     13     Mg          2.069     -0.329E-09
     14     Mg          2.069     -0.791E-09
     15     Mg          2.061      0.281E-08
     16     Mg          2.061      0.197E-08
     17     Mg          2.061      0.145E-07
     18     Mg          2.099     -0.332E-07
     19     Mg          2.087     -0.116E-06
     20     Mg          2.087     -0.783E-07
     21     Mg          2.069     -0.787E-09
     22     Mg          2.069     -0.314E-09
     23     Mg          2.061      0.247E-08
     24     Mg          2.061      0.193E-08
     25     Mg          2.101     -0.298E-07
     26     Mg          2.062      0.134E-07
     27     Mg          2.087     -0.109E-06
     28     Mg          2.089     -0.681E-07
     29     Mg          2.069     -0.782E-09
     30     Mg          2.069     -0.791E-09
     31     Mg          2.058      0.443E-08
     32     Mg          2.061      0.197E-08
     33     Mg          2.097     -0.302E-07
     34     Mg          2.099     -0.332E-07
     35     Mg          2.096      0.905E-06
     36     Mg          2.087     -0.783E-07
     37     O          -2.119      0.253E-07
     38     O          -2.119      0.245E-07
     39     O          -2.038     -0.407E-08
     40     O          -2.038     -0.399E-08
     41     O          -2.016     -0.107E-06
     42     O          -2.015     -0.112E-06
     43     O          -2.135      0.679E-07
     44     O          -2.155     -0.199E-06
     45     O          -2.119      0.257E-07
     46     O          -2.120      0.432E-07
     47     O          -2.038     -0.411E-08
     48     O          -2.038     -0.409E-08
     49     O          -2.015     -0.149E-06
     50     O          -1.978      0.232E-05
     51     O          -2.136     -0.232E-06
     52     O          -2.152     -0.200E-06
     53     O          -2.119      0.426E-07
     54     O          -2.119      0.245E-07
     55     O          -2.038     -0.373E-08
     56     O          -2.038     -0.399E-08
     57     O          -1.970      0.221E-05
     58     O          -2.015     -0.112E-06
     59     O          -2.136     -0.215E-06
     60     O          -2.155     -0.199E-06
     61     O          -2.120      0.426E-07
     62     O          -2.120      0.432E-07
     63     O          -2.038     -0.352E-08
     64     O          -2.038     -0.409E-08
     65     O          -1.988      0.215E-05
     66     O          -1.978      0.232E-05
     67     O          -2.104     -0.347E-06
     68     O          -2.152     -0.200E-06

   Hirshfeld-I converged in  41 cycles. Convergence criterion |dq|< 0.500E-04 e

  Atomic reference data used in the T-S method for vdW correction:
            C6at              R0at           ALPHAat      REFSTATE
            (au)              (au)            (au)                
   ---------------------------------------------------------------
   N          24.200          3.345          7.400         0
   H           6.500          3.099          4.500         0
   Mg        627.000          4.271         71.000         0
   O          15.600          3.194          5.400         0

  Tkatchenko/Scheffler method for vdW energy calculation
  ---------------------------------------------------------------------------------------------

  Parameters of vdW forcefield:
            C6ts              R0ts           ALPHAts        RELVOL
            (au)              (au)            (au)                
   ---------------------------------------------------------------
   N         120.508          4.371         16.513          2.23151325
   H           0.461          1.994          1.198          0.26623161
   H           0.401          1.948          1.118          0.24849285
   H           0.401          1.948          1.118          0.24849215
   Mg          1.375          1.539          3.325          0.04682681
   Mg          1.375          1.539          3.325          0.04682694
   Mg          1.323          1.529          3.261          0.04592922
   Mg          1.322          1.529          3.260          0.04591224
   Mg          1.325          1.530          3.264          0.04597041
   Mg          1.326          1.530          3.265          0.04598619
   Mg          1.372          1.539          3.321          0.04677776
   Mg          1.372          1.539          3.322          0.04678291
   Mg          1.375          1.539          3.325          0.04682706
   Mg          1.375          1.539          3.325          0.04682857
   Mg          1.322          1.529          3.260          0.04591318
   Mg          1.322          1.529          3.260          0.04591433
   Mg          1.326          1.530          3.266          0.04599437
   Mg          1.315          1.528          3.251          0.04579468
   Mg          1.374          1.539          3.324          0.04681878
   Mg          1.373          1.539          3.323          0.04679780
   Mg          1.375          1.539          3.325          0.04682867
   Mg          1.375          1.539          3.325          0.04682694
   Mg          1.322          1.529          3.260          0.04591344
   Mg          1.322          1.529          3.260          0.04591224
   Mg          1.315          1.528          3.251          0.04578776
   Mg          1.326          1.530          3.265          0.04598620
   Mg          1.374          1.539          3.324          0.04681150
   Mg          1.372          1.539          3.322          0.04678291
   Mg          1.375          1.539          3.325          0.04682812
   Mg          1.375          1.539          3.325          0.04682857
   Mg          1.327          1.530          3.266          0.04600498
   Mg          1.322          1.529          3.260          0.04591433
   Mg          1.316          1.528          3.252          0.04580625
   Mg          1.315          1.528          3.251          0.04579468
   Mg          1.342          1.533          3.284          0.04625858
   Mg          1.373          1.539          3.323          0.04679780
   O         237.391          5.027         21.065          3.90093434
   O         237.382          5.027         21.065          3.90085625
   O         195.373          4.867         19.110          3.53890173
   O         195.432          4.867         19.113          3.53943623
   O         190.380          4.846         18.864          3.49338802
   O         190.394          4.846         18.865          3.49352206
   O         241.698          5.042         21.255          3.93615859
   O         245.944          5.057         21.441          3.97058419
   O         237.408          5.027         21.066          3.90107108
   O         237.814          5.029         21.084          3.90440363
   O         195.437          4.867         19.113          3.53948435
   O         195.446          4.867         19.114          3.53956389
   O         190.594          4.847         18.875          3.49535000
   O         186.877          4.831         18.690          3.46110243
   O         242.432          5.045         21.288          3.94213311
   O         245.292          5.055         21.413          3.96532058
   O         237.726          5.029         21.080          3.90368606
   O         237.382          5.027         21.065          3.90085594
   O         195.417          4.867         19.112          3.53930030
   O         195.432          4.867         19.113          3.53943589
   O         186.940          4.831         18.693          3.46168310
   O         190.394          4.846         18.865          3.49352111
   O         242.387          5.045         21.286          3.94176439
   O         245.944          5.057         21.441          3.97058467
   O         237.910          5.029         21.088          3.90519216
   O         237.814          5.029         21.084          3.90440324
   O         195.679          4.868         19.125          3.54166994
   O         195.446          4.867         19.114          3.53956340
   O         187.638          4.834         18.728          3.46814561
   O         186.877          4.831         18.690          3.46110223
   O         236.517          5.024         21.026          3.89374757
   O         245.292          5.055         21.413          3.96532077

  vdW correction parametrized for the method >    

  IVDW =  21
  VDW_RADIUS =    50.000 A
  VDW_IDAMPF =  0
  VDW_S6 =     1.000
  VDW_SR =     0.960
  VDW_D =    20.000
  LVDW_ONECELL = F F F
  LVDW_SAMETYPE T T T T
  LVDW_EWALD = F

  Number of pair interactions contributing to vdW energy: 1007698
  Edisp (eV):   -4.02466
    FORVDW:  cpu time    219.7936: real time    220.1674

 VOLUME and BASIS-vectors are now :
 -----------------------------------------------------------------------------
  energy-cutoff  :      520.00
  volume of cell :     1211.25
      direct lattice vectors                 reciprocal lattice vectors
     8.440984654  0.000000000  0.000000000     0.118469591  0.000000000  0.000000000
     0.000000000  8.440984654  0.000000000     0.000000000  0.118469591  0.000000000
     0.000000000  0.000000000 17.000000000     0.000000000  0.000000000  0.058823529

  length of vectors
     8.440984654  8.440984654 17.000000000     0.118469591  0.118469591  0.058823529


 FORCES acting on ions
    electron-ion (+dipol)            ewald-force                    non-local-force                 convergence-correction
 -----------------------------------------------------------------------------------------------
   -.706E-04 0.804E+01 -.956E+03   0.922E-04 -.130E+02 0.931E+03   -.775E-04 0.456E+01 0.226E+02   0.300E-06 0.275E-03 0.113E+00
   0.141E-03 -.701E+02 -.196E+03   -.154E-03 0.771E+02 0.197E+03   0.152E-04 -.696E+01 -.855E+00   0.513E-07 -.300E-03 0.229E-01
   0.581E+02 0.280E+02 -.197E+03   -.638E+02 -.307E+02 0.200E+03   0.575E+01 0.273E+01 -.293E+01   0.551E-04 0.245E-04 0.222E-01
   -.581E+02 0.280E+02 -.197E+03   0.638E+02 -.307E+02 0.200E+03   -.575E+01 0.273E+01 -.293E+01   -.551E-04 0.245E-04 0.222E-01
   0.522E-05 -.267E+00 0.172E+04   -.565E-05 0.264E+00 -.171E+04   0.243E-06 0.202E-02 -.675E+01   0.115E-06 0.639E-04 -.163E+00
   0.268E+00 -.329E-01 0.172E+04   -.264E+00 0.321E-01 -.171E+04   -.250E-02 0.507E-03 -.675E+01   -.583E-04 -.925E-05 -.163E+00
   0.173E-04 -.478E-01 0.584E+03   -.190E-04 0.531E-01 -.584E+03   0.835E-06 -.340E-02 0.470E+00   0.193E-06 -.343E-04 -.956E-01
   -.281E+00 0.281E+00 0.584E+03   0.349E+00 -.339E+00 -.584E+03   -.419E-01 0.354E-01 0.522E+00   0.203E-03 -.189E-03 -.951E-01
   0.109E-04 -.277E+01 -.540E+03   -.993E-05 0.269E+01 0.540E+03   -.574E-06 0.787E-01 0.287E-01   -.461E-06 -.605E-03 0.618E-02
   0.281E+01 -.237E+00 -.540E+03   -.272E+01 0.253E+00 0.540E+03   -.762E-01 -.132E-01 0.327E-01   0.635E-03 -.111E-03 0.624E-02
   -.245E-04 -.949E+00 -.167E+04   0.243E-04 0.962E+00 0.167E+04   0.474E-06 -.107E-01 0.568E+01   -.492E-06 -.571E-05 0.102E+00
   0.208E+02 -.199E+02 -.165E+04   -.210E+02 0.200E+02 0.164E+04   0.117E+00 -.560E-01 0.582E+01   0.238E-02 -.203E-02 0.102E+00
   0.523E-05 0.267E+00 0.172E+04   -.531E-05 -.263E+00 -.171E+04   0.259E-06 -.190E-02 -.676E+01   -.326E-06 -.617E-04 -.163E+00
   0.313E+00 0.327E-01 0.172E+04   -.304E+00 -.322E-01 -.171E+04   -.535E-02 -.355E-03 -.679E+01   -.901E-04 0.652E-05 -.162E+00
   0.362E-04 0.389E-01 0.584E+03   -.398E-04 -.477E-01 -.584E+03   0.216E-05 0.542E-02 0.376E+00   0.203E-06 0.310E-04 -.951E-01
   -.249E+00 -.290E+00 0.584E+03   0.295E+00 0.344E+00 -.584E+03   -.275E-01 -.329E-01 0.504E+00   0.185E-03 0.185E-03 -.952E-01
   -.133E-04 0.277E+01 -.541E+03   0.122E-04 -.268E+01 0.541E+03   0.158E-05 -.786E-01 0.438E-01   -.780E-06 0.600E-03 0.622E-02
   0.274E+01 0.235E+00 -.536E+03   -.238E+01 -.248E+00 0.537E+03   -.324E+00 0.112E-01 -.376E+00   0.814E-03 0.107E-03 0.842E-02
   -.971E-04 0.107E+01 -.166E+04   0.939E-04 -.108E+01 0.165E+04   0.301E-05 0.110E-01 0.566E+01   -.435E-06 0.111E-04 0.101E+00
   0.188E+02 0.194E+02 -.165E+04   -.189E+02 -.194E+02 0.164E+04   0.487E-01 0.651E-01 0.581E+01   0.187E-02 0.196E-02 0.102E+00
   -.543E-05 -.311E+00 0.172E+04   0.566E-05 0.304E+00 -.171E+04   -.443E-06 0.488E-02 -.679E+01   0.408E-06 0.849E-04 -.162E+00
   -.268E+00 -.329E-01 0.172E+04   0.264E+00 0.321E-01 -.171E+04   0.250E-02 0.507E-03 -.675E+01   0.582E-04 -.887E-05 -.163E+00
   -.194E-04 -.348E-03 0.584E+03   0.208E-04 -.149E-01 -.584E+03   -.117E-05 0.953E-02 0.379E+00   0.392E-06 -.432E-04 -.951E-01
   0.281E+00 0.281E+00 0.584E+03   -.349E+00 -.339E+00 -.584E+03   0.419E-01 0.354E-01 0.522E+00   -.204E-03 -.189E-03 -.951E-01
   -.935E-08 -.253E+01 -.537E+03   0.450E-06 0.217E+01 0.538E+03   -.409E-06 0.320E+00 -.241E+00   0.439E-07 -.753E-03 0.878E-02
   -.281E+01 -.237E+00 -.540E+03   0.272E+01 0.253E+00 0.540E+03   0.762E-01 -.132E-01 0.327E-01   -.634E-03 -.111E-03 0.624E-02
   0.805E-05 -.265E+01 -.166E+04   -.806E-05 0.268E+01 0.165E+04   0.150E-06 -.262E-01 0.565E+01   0.361E-06 -.461E-03 0.101E+00
   -.208E+02 -.199E+02 -.165E+04   0.210E+02 0.200E+02 0.164E+04   -.117E+00 -.560E-01 0.582E+01   -.238E-02 -.203E-02 0.102E+00
   -.530E-05 0.311E+00 0.172E+04   0.546E-05 -.304E+00 -.171E+04   -.372E-06 -.476E-02 -.678E+01   0.461E-06 -.920E-04 -.162E+00
   -.313E+00 0.327E-01 0.172E+04   0.304E+00 -.322E-01 -.171E+04   0.535E-02 -.356E-03 -.679E+01   0.895E-04 0.644E-05 -.162E+00
   -.370E-04 -.635E-02 0.581E+03   0.417E-04 0.174E-01 -.582E+03   -.312E-05 -.714E-02 0.590E+00   0.714E-07 0.428E-04 -.946E-01
   0.249E+00 -.290E+00 0.584E+03   -.295E+00 0.344E+00 -.584E+03   0.276E-01 -.329E-01 0.504E+00   -.185E-03 0.185E-03 -.952E-01
   -.875E-05 0.272E+01 -.536E+03   0.890E-05 -.237E+01 0.536E+03   0.107E-05 -.315E+00 -.434E+00   -.497E-07 0.779E-03 0.814E-02
   -.274E+01 0.235E+00 -.536E+03   0.238E+01 -.248E+00 0.537E+03   0.324E+00 0.112E-01 -.376E+00   -.813E-03 0.107E-03 0.842E-02
   0.144E-03 0.593E+01 -.157E+04   -.136E-03 -.624E+01 0.157E+04   -.660E-05 0.270E+00 0.897E+00   0.787E-07 0.102E-02 0.122E+00
   -.188E+02 0.194E+02 -.165E+04   0.189E+02 -.194E+02 0.164E+04   -.487E-01 0.651E-01 0.581E+01   -.187E-02 0.196E-02 0.102E+00
   0.176E-04 -.911E-01 0.438E+03   -.183E-04 0.699E-01 -.438E+03   0.521E-06 0.263E-01 -.274E-01   0.476E-06 -.143E-03 -.742E-01
   0.953E-01 0.287E-03 0.438E+03   -.717E-01 0.354E-02 -.438E+03   -.287E-01 -.459E-02 -.379E-01   0.144E-03 -.296E-04 -.742E-01
   0.303E-05 -.240E-01 0.129E+04   -.344E-05 0.247E-01 -.129E+04   0.370E-06 -.709E-03 0.304E+01   -.170E-06 -.133E-04 -.124E+00
   0.215E+00 -.213E+00 0.129E+04   -.206E+00 0.206E+00 -.129E+04   -.105E-01 0.854E-02 0.303E+01   -.414E-04 0.423E-04 -.124E+00
   -.392E-04 -.751E+01 -.127E+04   0.386E-04 0.736E+01 0.128E+04   0.159E-05 0.136E+00 -.452E+01   -.550E-06 -.638E-03 0.770E-01
   0.758E+01 -.130E+01 -.127E+04   -.742E+01 0.129E+01 0.128E+04   -.147E+00 0.153E-01 -.451E+01   0.705E-03 -.107E-03 0.771E-01
   0.157E-05 -.245E+00 -.402E+03   -.114E-05 0.250E+00 0.402E+03   -.111E-06 -.498E-02 0.287E+00   -.457E-06 -.473E-04 -.451E-03
   0.187E+01 -.187E+01 -.396E+03   -.186E+01 0.185E+01 0.395E+03   -.153E-01 0.262E-01 0.490E+00   0.644E-03 -.568E-03 0.314E-03
   0.139E-04 0.840E-01 0.438E+03   -.139E-04 -.583E-01 -.438E+03   0.469E-06 -.311E-01 -.440E-01   -.152E-06 0.139E-03 -.743E-01
   -.504E-01 -.834E-02 0.436E+03   0.743E-03 0.992E-02 -.436E+03   0.544E-01 -.139E-02 -.178E+00   0.172E-03 0.330E-04 -.740E-01
   0.488E-05 0.242E-01 0.129E+04   -.527E-05 -.247E-01 -.129E+04   0.667E-06 0.739E-03 0.302E+01   0.335E-07 0.902E-05 -.124E+00
   0.213E+00 0.213E+00 0.129E+04   -.207E+00 -.206E+00 -.129E+04   -.783E-02 -.852E-02 0.302E+01   -.426E-04 -.465E-04 -.124E+00
   -.390E-04 0.742E+01 -.127E+04   0.380E-04 -.726E+01 0.128E+04   0.212E-05 -.134E+00 -.450E+01   -.554E-06 0.622E-03 0.771E-01
   0.256E+02 0.180E+01 -.124E+04   -.248E+02 -.179E+01 0.124E+04   -.664E+00 -.135E-01 -.442E+01   0.359E-02 0.166E-03 0.784E-01
   -.559E-05 0.248E+00 -.396E+03   0.523E-05 -.252E+00 0.395E+03   0.760E-06 0.345E-02 0.371E+00   -.658E-06 0.439E-04 0.134E-03
   0.195E+01 0.188E+01 -.397E+03   -.192E+01 -.185E+01 0.396E+03   -.316E-01 -.266E-01 0.440E+00   0.551E-03 0.572E-03 0.194E-03
   -.170E-04 0.577E-01 0.436E+03   0.179E-04 -.578E-02 -.436E+03   -.100E-05 -.569E-01 -.186E+00   0.339E-06 -.173E-03 -.740E-01
   -.953E-01 0.290E-03 0.438E+03   0.717E-01 0.353E-02 -.438E+03   0.287E-01 -.459E-02 -.379E-01   -.144E-03 -.290E-04 -.742E-01
   -.346E-05 -.254E-01 0.129E+04   0.349E-05 0.239E-01 -.129E+04   -.427E-06 0.190E-02 0.302E+01   0.279E-06 -.822E-05 -.124E+00
   -.215E+00 -.213E+00 0.129E+04   0.206E+00 0.206E+00 -.129E+04   0.105E-01 0.854E-02 0.303E+01   0.411E-04 0.422E-04 -.124E+00
   0.275E-04 -.259E+02 -.123E+04   -.254E-04 0.250E+02 0.124E+04   -.135E-05 0.796E+00 -.427E+01   0.254E-06 -.370E-02 0.788E-01
   -.758E+01 -.130E+01 -.127E+04   0.742E+01 0.129E+01 0.128E+04   0.147E+00 0.153E-01 -.451E+01   -.704E-03 -.107E-03 0.771E-01
   -.114E-04 -.106E+00 -.396E+03   0.107E-04 0.111E+00 0.395E+03   0.110E-06 -.313E-02 0.371E+00   0.728E-07 -.153E-03 0.228E-03
   -.187E+01 -.187E+01 -.396E+03   0.186E+01 0.185E+01 0.395E+03   0.153E-01 0.262E-01 0.490E+00   -.644E-03 -.568E-03 0.315E-03
   -.166E-04 -.683E-01 0.436E+03   0.173E-04 0.217E-01 -.436E+03   -.894E-06 0.511E-01 -.165E+00   0.512E-06 0.174E-03 -.740E-01
   0.504E-01 -.834E-02 0.436E+03   -.746E-03 0.992E-02 -.436E+03   -.544E-01 -.139E-02 -.178E+00   -.173E-03 0.327E-04 -.740E-01
   -.491E-05 0.258E-01 0.129E+04   0.535E-05 -.241E-01 -.129E+04   -.711E-06 -.192E-02 0.300E+01   0.470E-06 0.122E-04 -.124E+00
   -.213E+00 0.213E+00 0.129E+04   0.207E+00 -.206E+00 -.129E+04   0.783E-02 -.852E-02 0.302E+01   0.425E-04 -.469E-04 -.124E+00
   0.412E-04 0.249E+02 -.124E+04   -.407E-04 -.243E+02 0.124E+04   -.318E-06 -.562E+00 -.447E+01   -.189E-06 0.337E-02 0.783E-01
   -.256E+02 0.180E+01 -.124E+04   0.248E+02 -.179E+01 0.124E+04   0.664E+00 -.135E-01 -.442E+01   -.359E-02 0.166E-03 0.784E-01
   0.158E-05 -.491E-01 -.408E+03   -.152E-05 0.429E-01 0.410E+03   0.163E-07 0.577E-02 -.107E+01   -.381E-06 0.131E-03 0.222E-02
   -.195E+01 0.188E+01 -.397E+03   0.192E+01 -.185E+01 0.396E+03   0.316E-01 -.266E-01 0.440E+00   -.550E-03 0.571E-03 0.194E-03
 -----------------------------------------------------------------------------------------------
   0.940E-04 -.403E+01 0.794E+01   0.313E-12 -.639E-13 0.114E-11   -.846E-04 0.356E+01 -.498E+01   0.156E-05 0.184E-03 -.195E+01
 
 
 POSITION                                       TOTAL-FORCE (eV/Angst)
 -----------------------------------------------------------------------------------
      4.22049      4.35151     12.63308        -0.000062      0.085088      0.372939
      4.22049      5.36064     12.79393         0.000003     -0.346857     -0.070267
      3.39386      3.96218     13.08676         0.282975      0.131121     -0.164821
      5.04713      3.96218     13.08676        -0.282920      0.131097     -0.164796
      0.00000      6.33078      3.91324        -0.000000     -0.000883      0.536683
      2.11025      0.00004      3.91324         0.001170     -0.000124      0.537468
      0.00000      0.00004      6.02349        -0.000001      0.001397      0.018248
      2.11025      6.33078      6.02349         0.019718     -0.017296      0.032010
      0.00000      6.32811      8.14287        -0.000000     -0.000143      0.041471
      2.11247      8.44094      8.14320         0.000390      0.000326      0.041033
      0.00000      8.44064     10.24357        -0.000000      0.000287     -0.138521
      2.10755      6.33108     10.23649        -0.003996      0.002112     -0.156347
      0.00000      2.11029      3.91324        -0.000000      0.000991      0.538574
      2.11025      4.22054      3.91324         0.001958      0.000241      0.547584
      0.00000      4.22054      6.02349        -0.000001     -0.002422      0.054734
      2.11025      2.11029      6.02349         0.013909      0.015996      0.032163
      8.44098      2.11222      8.14329        -0.000000      0.000347      0.040334
      2.12092      4.21975      8.15691         0.000815      0.000100      0.042169
      0.00000      4.21960     10.23958        -0.000000     -0.000446     -0.150173
      2.10919      2.10803     10.23880        -0.001092     -0.002756     -0.154215
      4.22049      6.33078      3.91324         0.000000     -0.001666      0.547808
      6.33074      0.00004      3.91324        -0.001171     -0.000124      0.537469
      4.22049      0.00004      6.02349         0.000000     -0.004132      0.054333
      6.33074      6.33078      6.02349        -0.019718     -0.017297      0.032010
      4.22049      6.31972      8.15756        -0.000000     -0.000347      0.040709
      6.32851      8.44094      8.14320        -0.000390      0.000326      0.041047
      4.22049      0.00199     10.23937         0.000000      0.003543     -0.150500
      6.33344      6.33108     10.23649         0.003995      0.002113     -0.156361
      4.22049      2.11029      3.91324         0.000000      0.001777      0.546532
      6.33074      4.22054      3.91324        -0.001958      0.000241      0.547585
      4.22049      4.22054      6.02349         0.000001      0.002945      0.075990
      6.33074      2.11029      6.02349        -0.013910      0.015996      0.032164
      4.22049      2.12032      8.15594         0.000001      0.000450      0.043176
      6.32007      4.21975      8.15691        -0.000815      0.000100      0.042231
      4.22049      4.20904     10.38333         0.000001      0.001891     -0.012244
      6.33179      2.10803     10.23880         0.001092     -0.002757     -0.154220
      0.00000      6.33078      6.02349         0.000000      0.009405      0.069724
      2.11025      0.00004      6.02349        -0.009991     -0.001654      0.067469
      0.00000      0.00004      3.91324        -0.000000     -0.000147     -0.445875
      2.11025      6.33078      3.91324        -0.003460      0.002902     -0.450939
      8.44098      6.33489     10.30169         0.000001      0.001750     -0.125871
      2.10521      8.44023     10.30240        -0.002148      0.001207     -0.125795
      8.44098      8.44046      8.13976        -0.000000     -0.000958      0.028173
      2.10968      6.33160      8.14270        -0.000062      0.000333      0.026001
      0.00000      2.11029      6.02349         0.000000     -0.010611      0.065670
      2.11025      4.22054      6.02349         0.015240      0.000080      0.086258
      0.00000      4.22054      3.91324         0.000000      0.000375     -0.452595
      2.11025      2.11029      3.91324        -0.002522     -0.002671     -0.451387
      0.00000      2.10492     10.30298         0.000001      0.000209     -0.125826
      2.08807      4.21992     10.30232        -0.040038     -0.003719     -0.144347
      0.00000      4.22035      8.13812        -0.000000      0.000165      0.036181
      2.10871      2.10861      8.14203        -0.000215      0.000045      0.028203
      4.22049      6.33078      6.02349         0.000000     -0.015861      0.086135
      6.33074      0.00004      6.02349         0.009991     -0.001653      0.067468
      4.22049      0.00004      3.91324        -0.000000      0.000771     -0.452099
      6.33074      6.33078      3.91324         0.003460      0.002902     -0.450939
      4.22049      6.35541     10.30990         0.000001      0.041336     -0.130756
      6.33577      8.44023     10.30240         0.002148      0.001207     -0.125796
      4.22049      8.43994      8.13822        -0.000001      0.000920      0.032842
      6.33130      6.33160      8.14270         0.000064      0.000333      0.026001
      4.22049      2.11029      6.02349         0.000000      0.014451      0.086518
      6.33074      4.22054      6.02349        -0.015240      0.000080      0.086259
      4.22049      4.22054      3.91324         0.000000     -0.000548     -0.460423
      6.33074      2.11029      3.91324         0.002522     -0.002671     -0.451387
      4.22049      2.08776     10.29781        -0.000000     -0.035682     -0.140221
      6.35291      4.21992     10.30232         0.040038     -0.003720     -0.144353
      4.22049      4.22089      8.16097        -0.000000      0.000139     -0.046495
      6.33227      2.10861      8.14203         0.000215      0.000046      0.028202
 -----------------------------------------------------------------------------------
    total drift:                                0.000004     -0.005281     -0.346091


--------------------------------------------------------------------------------------------------------



  FREE ENERGIE OF THE ION-ELECTRON SYSTEM (eV)
  ---------------------------------------------------
  free  energy   TOTEN  =      -492.24015383 eV

  energy  without entropy=     -492.24015383  energy(sigma->0) =     -492.24015383
 


--------------------------------------------------------------------------------------------------------


    POTLOK:  cpu time      1.1086: real time      1.1106


--------------------------------------------------------------------------------------------------------


     LOOP+:  cpu time    887.6669: real time    889.4687
    4ORBIT:  cpu time      0.0000: real time      0.0000

 total amount of memory used by VASP MPI-rank0   776541. kBytes
=======================================================================

   base      :      30000. kBytes
   nonlr-proj:      20358. kBytes
   fftplans  :      15882. kBytes
   grid      :      40992. kBytes
   one-center:        551. kBytes
   HF        :        135. kBytes
   wavefun   :     147317. kBytes
   fock_wrk  :     521306. kBytes
 
  
  
 General timing and accounting informations for this job:
 ========================================================
  
                  Total CPU time used (sec):      890.720
                            User time (sec):      883.680
                          System time (sec):        7.041
                         Elapsed time (sec):      895.973
  
                   Maximum memory used (kb):     1767528.
                   Average memory used (kb):          N/A
  
                          Minor page faults:       246474
                          Major page faults:            0
                 Voluntary context switches:        21977
