 **********************************************************************
                          MRCC program system
 **********************************************************************
 
                              Written by
     Mihaly Kallay, Peter R. Nagy, David Mester, Laszlo Gyevi-Nagy,
        Jozsef Csoka, P. Bernat Szabo, Zoltan Rolik, Gyula Samu,
     Jozsef Csontos, Bence Hegely, Adam Ganyecz, Istvan Ladjanszki,
       Lorant Szegedy, Bence Ladoczki, Klara Petrov, Mate Farkas,
                    Pal D. Mezei, and Reka A. Horvath
 
        Department of Physical Chemistry and Materials Science
            Budapest University of Technology and Economics
                  Budapest P.O.Box 91, H-1521 Hungary
 
                              www.mrcc.hu
 
                      Release date: March 18, 2022

 ************************ 2022-12-22 21:59:51 *************************
 Executing minp...

 Reading input from MINP...
 
 Input file:
 
calc=LNO-CCSD(T)
scftype=rhf
verbosity=3
mem=220GB
symm=off
unit=angs
scfiguess=small
scfmaxit=1000
scfalg=locfit1


lcorthr=tight
bpedo=0.99999
ccmaxit=400
usedisk=0
ccsdalg=dfdirect
ccsdthreads=4
ccsdmkl=thr
ptthreads=4

charge=0
core=4

basis=special
aug-cc-pVDZ
aug-cc-pVDZ
aug-cc-pVDZ
aug-cc-pVDZ
bse_CVDZ
aug-cc-pVDZ
aug-cc-pVDZ
aug-cc-pVDZ
aug-cc-pVDZ
aug-cc-pVDZ
bse_CVDZ
bse_CVDZ
bse_CVDZ
aug-cc-pVDZ
aug-cc-pVDZ
aug-cc-pVDZ
bse_CVDZ
bse_CVDZ
aug-cc-pVDZ
aug-cc-pVDZ
aug-cc-pVDZ
aug-cc-pVDZ
aug-cc-pVDZ
aug-cc-pVDZ
aug-cc-pVDZ
aug-cc-pVDZ
aug-cc-pVDZ
aug-cc-pVDZ

basis_sm=special
def2-SVP
def2-SVP
def2-SVP
def2-SVP
def2-SVP
def2-SVP
def2-SVP
def2-SVP
def2-SVP
def2-SVP
def2-SVP
def2-SVP
def2-SVP
def2-SVP
def2-SVP
def2-SVP
def2-SVP
def2-SVP
def2-SVP
def2-SVP
def2-SVP
def2-SVP
def2-SVP
def2-SVP
def2-SVP
def2-SVP
def2-SVP
def2-SVP

dfbasis_scf=special
def2-QZVPP-RI-JK
def2-QZVPP-RI-JK
def2-QZVPP-RI-JK
def2-QZVPP-RI-JK
def2-QZVPP-RI-JK
def2-QZVPP-RI-JK
def2-QZVPP-RI-JK
def2-QZVPP-RI-JK
def2-QZVPP-RI-JK
def2-QZVPP-RI-JK
def2-QZVPP-RI-JK
def2-QZVPP-RI-JK
def2-QZVPP-RI-JK
def2-QZVPP-RI-JK
def2-QZVPP-RI-JK
def2-QZVPP-RI-JK
def2-QZVPP-RI-JK
def2-QZVPP-RI-JK
def2-QZVPP-RI-JK
def2-QZVPP-RI-JK
def2-QZVPP-RI-JK
def2-QZVPP-RI-JK
def2-QZVPP-RI-JK
def2-QZVPP-RI-JK
def2-QZVPP-RI-JK
def2-QZVPP-RI-JK
def2-QZVPP-RI-JK
def2-QZVPP-RI-JK

dfbasis_cor=special
aug-cc-pVDZ-RI
aug-cc-pVDZ-RI
aug-cc-pVDZ-RI
aug-cc-pVDZ-RI
bse_CVDZ_mp2fit
aug-cc-pVDZ-RI
aug-cc-pVDZ-RI
aug-cc-pVDZ-RI
aug-cc-pVDZ-RI
aug-cc-pVDZ-RI
bse_CVDZ_mp2fit
bse_CVDZ_mp2fit
bse_CVDZ_mp2fit
aug-cc-pVDZ-RI
aug-cc-pVDZ-RI
aug-cc-pVDZ-RI
bse_CVDZ_mp2fit
bse_CVDZ_mp2fit
aug-cc-pVDZ-RI
aug-cc-pVDZ-RI
aug-cc-pVDZ-RI
aug-cc-pVDZ-RI
aug-cc-pVDZ-RI
aug-cc-pVDZ-RI
aug-cc-pVDZ-RI
aug-cc-pVDZ-RI
aug-cc-pVDZ-RI
aug-cc-pVDZ-RI

ecp=special
none
none
none
none
none
none
none
none
none
none
none
none
none
none
none
none
none
none
none
none
none
none
none
none
none
none
none
none

unit=angs
geom=xyz
28
N2 O2 Mg6 O18 ECP56
N     0.40650236773    0.40650324635    2.19318971406
N     1.75262562702    1.75262590322    2.19072651035
O     0.18283757344    0.18283994956    3.33197172865
O     1.97892907824    1.97893016918    3.32848152495
Mg    0.00000000000    0.00000000000   -0.00676672264
O    -2.10248244384    0.01668631229   -0.01474577407
O     0.01668627297   -2.10248229978   -0.01474572177
O     0.02054188635    0.02054198437   -2.14933684354
O     0.00321845804    2.14387700438    0.00000000000
O     2.14387696187    0.00321862452   -0.00000019877
Mg   -2.10340120808    2.12999911276   -0.05216931460
Mg    2.12999902754   -2.10340100097   -0.05216936576
Mg    2.14720169601    2.14720178681   -0.00912889998
O    -2.08810928088    2.12822279021   -2.16147830648
O     2.12822266324   -2.08810921352   -2.16147827765
O     2.12598938745    2.12598952190   -2.14991480714
Mg    0.01684298259    4.25007366246   -0.05209836134
Mg    4.25007349403    0.01684310357   -0.05209836121
O    -4.19156969841    2.13019178644   -0.01605724959
O     2.13019163308   -4.19156960593   -0.01605723604
O    -2.09336280792    4.23996080174   -0.00571190140
O     4.23996073707   -2.09336265477   -0.00571187630
O     0.01820450099    4.23474504523   -2.16153711614
O     4.23474504646    0.01820465012   -2.16153710268
O     2.13019163308    4.24941744989   -0.01605723604
O     4.24941735741    2.13019178644   -0.01605724959
O     0.01668627297    6.33850475604   -0.01474572177
O     6.33850461198    0.01668631229   -0.01474577407

ghost=serialno
5-28

 
 
 Checking keyword combinations...
 
 Keywords:
 
 active=none
--------------------Output has been truncated-------------------------


--------------------Output has been truncated-------------------------


--------------------Output has been truncated-------------------------


--------------------Output has been truncated-------------------------


--------------------Output has been truncated-------------------------


--------------------Output has been truncated-------------------------


--------------------Output has been truncated-------------------------


--------------------Output has been truncated-------------------------


--------------------Output has been truncated-------------------------


--------------------Output has been truncated-------------------------


 
 Final local CC results:
 
 Minimum number of correlated electrons:        22       (100.0%)
 Maximum number of correlated electrons:        22       (100.0%)
 Average number of correlated electrons:        22.0     (100.0%)
 Minimum number of correlated orbitals:         69       ( 10.4%)
 Maximum number of correlated orbitals:         88       ( 13.3%)
 Average number of correlated orbitals:         72.9     ( 11.0%)
 
 CPU time for integral calculations [min]:                  2.945
 Wall time for integral calculations [min]:                 0.091
 
 CPU time for SCF calculation [min]:                       18.276
 Wall time for SCF calculation [min]:                       0.552
 
 CPU time for orbital localization [min]:                   0.174
 Wall time for orbital localization [min]:                  0.043
 
 CPU time for integral transformations [min]:              67.836
 Wall time for integral transformations [min]:              3.040
 
 Reference energy [au]:                                  -258.444171721082
 
 LMP2 correlation energy [au]:                             -0.773009080856
 Total LMP2 energy [au]:                                 -259.217180801938
 
 Total MP2 correction for dropped NAFs [au]:                0.000053236406
 Total MP2 correction [au]:                                -0.000260626125
 
 CPU time for CCSD calculations [min]:                      6.190
 Total CPU time for CCSD [min]:                            95.421
 Wall time for CCSD calculations [min]:                     0.179
 Total wall time for CCSD [min]:                            3.905
 
 CCSD correlation energy [au]:                             -0.766070394976
 Total CCSD energy [au]:                                 -259.210242116057
 CCSD correlation energy + 0.5 MP2 corrections [au]:       -0.766200708038
 Total LNO-CCSD energy with MP2 corrections [au]:        -259.210372429120
 
 CPU time for (T) corrections [min]:                        2.974
 Total CPU time for CCSD(T) [min]:                         98.395
 Wall time for (T) corrections [min]:                       0.089
 Total wall time for CCSD(T) [min]:                         3.994
 
 Total (T) correlation energy contribution [au]:           -0.042526353751
 Total (T) correlation energy+0.5 MP2 correction [au]:     -0.042656666814
 CCSD(T) correlation energy [au]:                          -0.808596748727
 Total CCSD(T) energy [au]:                              -259.252768469809
 CCSD(T) correlation energy + MP2 corrections [au]:        -0.808857374852
 Total LNO-CCSD(T) energy with MP2 corrections [au]:     -259.253029095934
 
 ======================================================================
 ======================================================================
 
 ************************ 2022-12-22 22:04:19 *************************
                      Normal termination of mrcc.
 **********************************************************************
