 vasp.6.3.0 20Jan22 (build Aug 21 2024 11:13:42) complex                         
 executed on        HPECrayEX_GCC date 2024.08.22  13:45:32
 running  384 mpi-ranks, with    1 threads/rank
 distrk:  each k-point on  384 cores,    1 groups
 distr:  one band on NCORE=   8 cores,   48 groups


--------------------------------------------------------------------------------------------------------


 INCAR:
   SYSTEM = MgO-rocksalt
   ISMEAR = 0
   SIGMA = 0.05
   EDIFF = 1E-6
   ALGO = ALL
   ISTART = 0
   IBRION = -1
   NSW = 0
   ISYM = 0
   DIPOL = 0.5 0.5 0.5
   IDIPOL = 4
   LDIPOL = .TRUE.
   GGA = RE
   IVDW = 13
   VDW_S8 = 1.7468
   VDW_A1 = 0.5363
   VDW_A2 = 3.0726
   ENCUT = 600
   PREC = Accurate
   LASPH = .TRUE.
   LREAL = .FALSE.
   ISPIN = 1
   NELM = 200
   NELMIN = 8
   NCORE = 8
   KPAR = 1
   LWAVE = .FALSE.
   LCHARG = .FALSE.

 POTCAR:    PAW_PBE C 08Apr2002                   
 POTCAR:    PAW_PBE H 15Jun2001                   
 POTCAR:    PAW_PBE C 08Apr2002                   
   SHA256 =  253f7b50bb8d59471dbedb8285d89021f4a42ed1a2c5d38a03a736e69125dd95 C/POTCAR              
   COPYR  = (c) Copyright 08Apr2002 Georg Kresse                                                    
   COPYR  = This file is part of the software VASP. Any use, copying, and all other rights are regul
   COPYR  = If you do not have a valid VASP license, you may not use, copy or distribute this file. 
   VRHFIN =C: s2p2                                                                                  
   LEXCH  = PE                                                                                      
   EATOM  =   147.1560 eV,   10.8157 Ry                                                             
                                                                                                    
   TITEL  = PAW_PBE C 08Apr2002                                                                     
   LULTRA =        F    use ultrasoft PP ?                                                          
   IUNSCR =        1    unscreen: 0-lin 1-nonlin 2-no                                               
   RPACOR =    1.200    partial core radius                                                         
   POMASS =   12.011; ZVAL   =    4.000    mass and valenz                                          
   RCORE  =    1.500    outmost cutoff radius                                                       
   RWIGS  =    1.630; RWIGS  =    0.863    wigner-seitz radius (au A)                               
   ENMAX  =  400.000; ENMIN  =  300.000 eV                                                          
   ICORE  =        2    local potential                                                             
   LCOR   =        T    correct aug charges                                                         
   LPAW   =        T    paw PP                                                                      
   EAUG   =  644.873                                                                                
   DEXC   =    0.000                                                                                
   RMAX   =    1.529    core radius for proj-oper                                                   
   RAUG   =    1.300    factor for augmentation sphere                                              
   RDEP   =    1.501    radius for radial grids                                                     
   RDEPT  =    1.300    core radius for aug-charge                                                  
                                                                                                    
   Atomic configuration                                                                             
    4 entries                                                                                       
     n  l   j            E        occ.                                                              
     1  0  0.50      -273.3789   2.0000                                                             
     2  0  0.50       -13.7508   2.0000                                                             
     2  1  0.50        -5.2854   2.0000                                                             
     3  2  1.50        -5.4423   0.0000                                                             
   Description                                                                                      
     l       E           TYP  RCUT    TYP  RCUT                                                     
     0    -13.7508458     23  1.200                                                                 
     0     -8.2022199     23  1.200                                                                 
     1     -5.2854383     23  1.500                                                                 
     1     34.0145650     23  1.500                                                                 
     2     -5.4423304      7  1.500                                                                 
  local pseudopotential read in
  partial core-charges read in
  partial kinetic energy density read in
  atomic valenz-charges read in
  non local Contribution for L=           0  read in
    real space projection operators read in
  non local Contribution for L=           0  read in
    real space projection operators read in
  non local Contribution for L=           1  read in
    real space projection operators read in
  non local Contribution for L=           1  read in
    real space projection operators read in
    PAW grid and wavefunctions read in

   number of l-projection  operators is LMAX  =           4
   number of lm-projection operators is LMMAX =           8

 POTCAR:    PAW_PBE H 15Jun2001                   
   SHA256 =  030f79b5d3ab3cf0e668861823c8fb652ff669f3e15e46930bd03bfd63a607b6 H/POTCAR              
   COPYR  = (c) Copyright 15Jun2001 Georg Kresse                                                    
   COPYR  = This file is part of the software VASP. Any use, copying, and all other rights are regul
   COPYR  = If you do not have a valid VASP license, you may not use, copy or distribute this file. 
   VRHFIN =H: ultrasoft test                                                                        
   LEXCH  = PE                                                                                      
   EATOM  =    12.4884 eV,    0.9179 Ry                                                             
                                                                                                    
   TITEL  = PAW_PBE H 15Jun2001                                                                     
   LULTRA =        F    use ultrasoft PP ?                                                          
   IUNSCR =        0    unscreen: 0-lin 1-nonlin 2-no                                               
   RPACOR =    0.000    partial core radius                                                         
   POMASS =    1.000; ZVAL   =    1.000    mass and valenz                                          
   RCORE  =    1.100    outmost cutoff radius                                                       
   RWIGS  =    0.700; RWIGS  =    0.370    wigner-seitz radius (au A)                               
   ENMAX  =  250.000; ENMIN  =  200.000 eV                                                          
   RCLOC  =    0.701    cutoff for local pot                                                        
   LCOR   =        T    correct aug charges                                                         
   LPAW   =        T    paw PP                                                                      
   EAUG   =  400.000                                                                                
   RMAX   =    1.123    core radius for proj-oper                                                   
   RAUG   =    1.200    factor for augmentation sphere                                              
   RDEP   =    1.112    radius for radial grids                                                     
   RDEPT  =    0.926    core radius for aug-charge                                                  
                                                                                                    
   Atomic configuration                                                                             
    2 entries                                                                                       
     n  l   j            E        occ.                                                              
     1  0  0.50        -6.4927   1.0000                                                             
     2  1  0.50        -3.4015   0.0000                                                             
   Description                                                                                      
     l       E           TYP  RCUT    TYP  RCUT                                                     
     0     -6.4927494     23  1.100                                                                 
     0      6.8029130     23  1.100                                                                 
     1     -4.0817478     23  1.100                                                                 
  local pseudopotential read in
  atomic valenz-charges read in
  non local Contribution for L=           0  read in
    real space projection operators read in
  non local Contribution for L=           0  read in
    real space projection operators read in
  non local Contribution for L=           1  read in
    real space projection operators read in
    PAW grid and wavefunctions read in

   number of l-projection  operators is LMAX  =           3
   number of lm-projection operators is LMMAX =           5

 -----------------------------------------------------------------------------
|                                                                             |
|               ----> ADVICE to this user running VASP <----                  |
|                                                                             |
|     You enforced a specific xc type in the INCAR file but a different       |
|     type was found in the POTCAR file.                                      |
|     I HOPE YOU KNOW WHAT YOU ARE DOING!                                     |
|                                                                             |
 -----------------------------------------------------------------------------

  PAW_PBE C 08Apr2002                   :
 energy of atom  1       EATOM= -147.1560
 kinetic energy error for atom=    0.0057 (will be added to EATOM!!)
  PAW_PBE H 15Jun2001                   :
 energy of atom  2       EATOM=  -12.4884
 kinetic energy error for atom=    0.0004 (will be added to EATOM!!)


 POSCAR:  C  H
  positions in direct lattice
  No initial velocities read in
 -----------------------------------------------------------------------------
|                                                                             |
|           W    W    AA    RRRRR   N    N  II  N    N   GGGG   !!!           |
|           W    W   A  A   R    R  NN   N  II  NN   N  G    G  !!!           |
|           W    W  A    A  R    R  N N  N  II  N N  N  G       !!!           |
|           W WW W  AAAAAA  RRRRR   N  N N  II  N  N N  G  GGG   !            |
|           WW  WW  A    A  R   R   N   NN  II  N   NN  G    G                |
|           W    W  A    A  R    R  N    N  II  N    N   GGGG   !!!           |
|                                                                             |
|     Specifying the vdW parameters                                           |
|     VDW_S8 = 1.747                                                          |
|     VDW_A1 = 0.536                                                          |
|     VDW_A2 = 3.073                                                          |
|     in the INCAR file will overwrite the defaults for revpbe. Please        |
|     make sure that is what you intended.                                    |
|                                                                             |
 -----------------------------------------------------------------------------

 exchange correlation table for  LEXCH =       40
   RHO(1)=    0.500       N(1)  =     2000
   RHO(2)=  100.500       N(2)  =     4000



--------------------------------------------------------------------------------------------------------


 ion  position               nearest neighbor table
   1  0.615  0.515  0.484-   5 1.09   4 1.09   3 1.09   2 1.53
   2  0.673  0.486  0.514-   7 1.09   1 1.53
   3  0.595  0.473  0.444-   1 1.09
   4  0.619  0.570  0.453-   1 1.09
   5  0.584  0.524  0.532-   1 1.09
   6  0.338  0.479  0.465-
   7  0.669  0.430  0.543-   2 1.09
   8  0.327  0.526  0.556-


IMPORTANT INFORMATION: All symmetrisations will be switched off!
NOSYMM: (Re-)initialisation of all symmetry stuff for point group C_1.


----------------------------------------------------------------------------------------

                                     Primitive cell                                     

  volume of cell :    6761.9101

  direct lattice vectors                    reciprocal lattice vectors
    22.959953417  0.000000000  0.000000000     0.043554095  0.000000000  0.000000000
     0.000000000 17.427059320  0.000000000     0.000000000  0.057382028  0.000000000
     0.000000000  0.000000000 16.899516605     0.000000000  0.000000000  0.059173290

  length of vectors
    22.959953417 17.427059320 16.899516605     0.043554095  0.057382028  0.059173290

  position of ions in fractional coordinates (direct lattice)
     0.614740156  0.515104421  0.483745614
     0.673344285  0.485886510  0.513997352
     0.595055372  0.473108788  0.443799676
     0.619319498  0.569634793  0.452510338
     0.583828506  0.524114173  0.531848882
     0.338020359  0.479077999  0.465339956
     0.668704003  0.430365207  0.543215854
     0.326655715  0.525854157  0.556200324

  ion indices of the primitive-cell ions
   primitive index   ion index
                 1           1
                 2           2
                 3           3
                 4           4
                 5           5
                 6           6
                 7           7
                 8           8

----------------------------------------------------------------------------------------



 KPOINTS: pymatgen v2020.8.13 with grid density = 

Automatic generation of k-mesh.
 Grid dimensions read from file:
 generate k-points for:    1    1    1

 Generating k-lattice:

  Cartesian coordinates                     Fractional coordinates (reciprocal lattice)
     0.043554095  0.000000000  0.000000000     1.000000000  0.000000000  0.000000000
     0.000000000  0.057382028  0.000000000     0.000000000  1.000000000  0.000000000
     0.000000000  0.000000000  0.059173290     0.000000000  0.000000000  1.000000000

  Length of vectors
     0.043554095  0.057382028  0.059173290

  Shift w.r.t. Gamma in fractional coordinates (k-lattice)
     0.000000000  0.000000000  0.000000000

 
 Subroutine IBZKPT returns following result:
 ===========================================
 
 Found      1 irreducible k-points:
 
 Following reciprocal coordinates:
            Coordinates               Weight
  0.000000  0.000000  0.000000      1.000000
 
 Following cartesian coordinates:
            Coordinates               Weight
  0.000000  0.000000  0.000000      1.000000
 


--------------------------------------------------------------------------------------------------------




 Dimension of arrays:
   k-points           NKPTS =      1   k-points in BZ     NKDIM =      1   number of bands    NBANDS=     48
   number of dos      NEDOS =    301   number of ions     NIONS =      8
   non local maximal  LDIM  =      4   non local SUM 2l+1 LMDIM =      8
   total plane-waves  NPLWV = ******
   max r-space proj   IRMAX =      1   max aug-charges    IRDMAX=   6766
   dimension x,y,z NGX =   192 NGY =  140 NGZ =  140
   dimension x,y,z NGXF=   384 NGYF=  280 NGZF=  280
   support grid    NGXF=   384 NGYF=  280 NGZF=  280
   ions per type =               2   6
   NGX,Y,Z   is equivalent  to a cutoff of  13.90, 13.36, 13.77 a.u.
   NGXF,Y,Z  is equivalent  to a cutoff of  27.80, 26.71, 27.54 a.u.

 SYSTEM =  MgO-rocksalt                            
 POSCAR =   C  H                                   

--------------------------------------------------------------------------------------------------------


  energy-cutoff  :      600.00
  volume of cell :     6761.91
      direct lattice vectors                 reciprocal lattice vectors
    22.959953417  0.000000000  0.000000000     0.043554095  0.000000000  0.000000000
     0.000000000 17.427059320  0.000000000     0.000000000  0.057382028  0.000000000
     0.000000000  0.000000000 16.899516605     0.000000000  0.000000000  0.059173290

  length of vectors
    22.959953417 17.427059320 16.899516605     0.043554095  0.057382028  0.059173290



 k-points in units of 2pi/SCALE and weight: pymatgen v2020.8.13 with grid density = 
   0.00000000  0.00000000  0.00000000       1.000

 k-points in reciprocal lattice and weights: pymatgen v2020.8.13 with grid density = 
   0.00000000  0.00000000  0.00000000       1.000

 position of ions in fractional coordinates (direct lattice) 
   0.61474016  0.51510442  0.48374561
   0.67334428  0.48588651  0.51399735
   0.59505537  0.47310879  0.44379968
   0.61931950  0.56963479  0.45251034
   0.58382851  0.52411417  0.53184888
   0.33802036  0.47907800  0.46533996
   0.66870400  0.43036521  0.54321585
   0.32665572  0.52585416  0.55620032

 position of ions in cartesian coordinates  (Angst):
  14.11440534  8.97675530  8.17506703
  15.45995342  8.46757303  8.68630679
  13.66244362  8.24489492  7.50000000
  14.21954684  9.92705932  7.64720597
  13.40467531  9.13376878  8.98798901
   7.76093169  8.34892071  7.86402032
  15.35341276  7.50000000  9.18008535
   7.50000000  9.16409159  9.39951661



--------------------------------------------------------------------------------------------------------

--------------------------------------- Iteration      FINAL  ---------------------------------------


--------------------OUTCAR has been truncated-------------------------


--------------------OUTCAR has been truncated-------------------------


--------------------OUTCAR has been truncated-------------------------


--------------------OUTCAR has been truncated-------------------------


--------------------OUTCAR has been truncated-------------------------


--------------------OUTCAR has been truncated-------------------------


--------------------OUTCAR has been truncated-------------------------


--------------------OUTCAR has been truncated-------------------------


--------------------OUTCAR has been truncated-------------------------


--------------------OUTCAR has been truncated-------------------------



  FORCE on cell =-STRESS in cart. coord.  units (eV):
  Direction    XX          YY          ZZ          XY          YZ          ZX
  --------------------------------------------------------------------------------------
  Alpha Z     0.11530     0.11530     0.11530
  Ewald     165.34436   114.78384    83.31103   -52.93256   -44.96988    47.69915
  Hartree   254.20408   204.98203   191.91979   -30.49196   -25.13912    30.43437
  E(xc)     -45.93637   -45.95444   -46.20174    -0.10413    -0.21045     0.12210
  Local    -539.45915  -427.22892  -377.44455    79.67667    73.76561   -79.72675
  n-local   -19.64075   -18.25395   -14.70170    -1.60842     2.27567    -0.18895
  augment     0.27629     0.17247     0.10890     0.02506    -0.04737     0.02274
  Kinetic   183.93595   170.90592   158.93507     7.15247    -7.99669     1.40438
  Fock        0.00000     0.00000     0.00000     0.00000     0.00000     0.00000
  vdW        -0.04457    -0.01934    -0.02244     0.02285     0.00538    -0.01637
  -------------------------------------------------------------------------------------
  Total      -1.20486    -0.49708    -3.98034     1.73999    -2.31685    -0.24934
  in kB      -0.28548    -0.11778    -0.94311     0.41228    -0.54896    -0.05908
  external pressure =       -0.45 kB  Pullay stress =        0.00 kB


 VOLUME and BASIS-vectors are now :
 -----------------------------------------------------------------------------
  energy-cutoff  :      600.00
  volume of cell :     6761.91
      direct lattice vectors                 reciprocal lattice vectors
    22.959953417  0.000000000  0.000000000     0.043554095  0.000000000  0.000000000
     0.000000000 17.427059320  0.000000000     0.000000000  0.057382028  0.000000000
     0.000000000  0.000000000 16.899516605     0.000000000  0.000000000  0.059173290

  length of vectors
    22.959953417 17.427059320 16.899516605     0.043554095  0.057382028  0.059173290


 FORCES acting on ions:
    Electron-Ion                     Ewald-Force                    Non-Local-Force
 -----------------------------------------------------------------------------------------------
   0.470E+02 -.237E+02 0.216E+02   -.448E+02 0.244E+02 -.217E+02   -.464E+00 -.872E+00 0.387E+00
   -.104E+03 0.106E+02 -.242E+02   0.122E+03 -.569E+00 0.219E+02   -.179E+02 -.872E+01 0.154E+01
   0.291E+02 0.354E+02 0.388E+02   -.317E+02 -.395E+02 -.423E+02   0.227E+01 0.362E+01 0.343E+01
   -.667E+00 -.525E+02 0.301E+02   0.133E+01 0.577E+02 -.330E+02   -.609E+00 -.497E+01 0.274E+01
   0.427E+02 -.117E+02 -.405E+02   -.467E+02 0.124E+02 0.451E+02   0.362E+01 -.883E+00 -.407E+01
   0.227E+01 0.360E+01 0.657E+01   -.267E+01 -.237E+01 -.425E+01   -.883E-01 0.292E+00 0.551E+00
   -.720E+01 0.484E+02 -.269E+02   0.640E+01 -.543E+02 0.299E+02   0.203E+00 0.514E+01 -.268E+01
   0.406E+01 -.352E+01 -.678E+01   -.367E+01 0.229E+01 0.446E+01   0.985E-01 -.293E+00 -.551E+00
 -----------------------------------------------------------------------------------------------
   0.129E+02 0.668E+01 -.134E+01   0.000E+00 -.213E-13 0.000E+00   -.129E+02 -.668E+01 0.134E+01


 POSITION                                       TOTAL-FORCE (eV/Angst)
 -----------------------------------------------------------------------------------
     14.11441      8.97676      8.17507         1.721114     -0.164356      0.243867
     15.45995      8.46757      8.68631        -0.492687      1.381093     -0.783892
     13.66244      8.24489      7.50000        -0.293238     -0.450262     -0.148515
     14.21955      9.92706      7.64721         0.050772      0.170574     -0.132678
     13.40468      9.13377      8.98799        -0.386083     -0.216832      0.520452
      7.76093      8.34892      7.86402        -0.487453      1.524706      2.871830
     15.35341      7.50000      9.18009        -0.601439     -0.720333      0.300916
      7.50000      9.16409      9.39952         0.489014     -1.524590     -2.871980
 -----------------------------------------------------------------------------------
    total drift:                               -0.000697     -0.000674      0.000357


--------------------------------------------------------------------------------------------------------



  FREE ENERGIE OF THE ION-ELECTRON SYSTEM (eV)
  ---------------------------------------------------
  free  energy   TOTEN  =       -31.59625716 eV

  energy  without entropy=      -31.59625715  energy(sigma->0) =      -31.59625716



--------------------------------------------------------------------------------------------------------


    POTLOK:  cpu time      0.1699: real time      0.1699


--------------------------------------------------------------------------------------------------------


     LOOP+:  cpu time     13.4660: real time     13.5908
    4ORBIT:  cpu time      0.0000: real time      0.0000

 total amount of memory used by VASP MPI-rank0    78611. kBytes
=======================================================================

   base      :      30000. kBytes
   nonl-proj :       7225. kBytes
   fftplans  :      16739. kBytes
   grid      :      23288. kBytes
   one-center:          3. kBytes
   wavefun   :       1356. kBytes

  
  
 General timing and accounting informations for this job:
 ========================================================
  
                  Total CPU time used (sec):       32.210
                            User time (sec):       30.669
                          System time (sec):        1.541
                         Elapsed time (sec):       35.598
  
                   Maximum memory used (kb):      222524.
                   Average memory used (kb):          N/A
  
                          Minor page faults:        25231
                          Major page faults:         1135
                 Voluntary context switches:         8695
