 **********************************************************************
                          MRCC program system
 **********************************************************************
 
                              Written by
     Mihaly Kallay, Peter R. Nagy, David Mester, Laszlo Gyevi-Nagy,
        Jozsef Csoka, P. Bernat Szabo, Zoltan Rolik, Gyula Samu,
     Jozsef Csontos, Bence Hegely, Adam Ganyecz, Istvan Ladjanszki,
       Lorant Szegedy, Bence Ladoczki, Klara Petrov, Mate Farkas,
                    Pal D. Mezei, and Reka A. Horvath
 
        Department of Physical Chemistry and Materials Science
            Budapest University of Technology and Economics
                  Budapest P.O.Box 91, H-1521 Hungary
 
                              www.mrcc.hu
 
                      Release date: March 18, 2022

 ************************ 2023-02-05 13:25:25 *************************
 Executing minp...

 Reading input from MINP...
 
 Input file:
 
calc=FNO-CCSD(T)
verbosity=3
mem=220GB
unit=angs
scfiguess=small
scfalg=locfit1
ccmaxit=400
ccsdalg=dfdirect
ccsdthreads=4
ccsdmkl=thr
ptthreads=4
lnoepsv=1e-5
naf_cor=1e-2
basis=aug-cc-pVQZ
basis_sm=def2-SVP
dfbasis_scf=def2-QZVPP-RI-JK
dfbasis_cor=aug-cc-pVQZ-RI
unit=angs
geom=xyz
16

C    34.41670262    34.07107264    10.41543014
C    33.11117461    33.45680459    10.91530835
H    34.24160149    35.00442132     9.86225048
H    34.94674030    33.36940783     9.75379242
H    35.10002891    34.30603621    11.24227357
H    32.42643037    33.26105434    10.07939442
H    32.59136835    34.12756100    11.61262818
H    33.28915165    32.50678735    11.43686767
C    17.53473331    42.51205729    10.41543014
C    16.22920530    41.89778925    10.91530835
H    17.35963218    43.44540598     9.86225048
H    18.06477099    41.81039248     9.75379242
H    18.21805960    42.74702086    11.24227357
H    15.54446106    41.70203900    10.07939442
H    15.70939904    42.56854565    11.61262818
H    16.40718234    40.94777201    11.43686767

--------------------Output has been truncated-------------------------


--------------------Output has been truncated-------------------------


--------------------Output has been truncated-------------------------


--------------------Output has been truncated-------------------------


--------------------Output has been truncated-------------------------


--------------------Output has been truncated-------------------------


--------------------Output has been truncated-------------------------


--------------------Output has been truncated-------------------------


--------------------Output has been truncated-------------------------


--------------------Output has been truncated-------------------------


 
 Reference energy [au]:                      -158.528874087125
 DF-MP2 singlet pair energy [au]:              -0.635444657200
 DF-MP2 triplet pair energy [au]:              -0.153812726706
 DF-SCS-MP2 correlation energy [au]:           -0.813804497542
 DF-SCS-MP2 energy [au]:                     -159.342678584667
 DF-SOS-MP2 correlation energy [au]:           -0.826078054360
 DF-SOS-MP2 energy [au]:                     -159.354952141485
 DF-MP2 correlation energy [au]:               -0.789257383906
 DF-MP2 energy [au]:                         -159.318131471031

 Results in FNO basis:
 
 
 Reference energy [au]:                      -158.528874087125
 DF-MP2 singlet pair energy [au]:              -0.625097520402
 DF-MP2 triplet pair energy [au]:              -0.153240958991
 DF-SCS-MP2 correlation energy [au]:           -0.801197344146
 DF-SCS-MP2 energy [au]:                     -159.330071431271
 DF-SOS-MP2 correlation energy [au]:           -0.812626776523
 DF-SOS-MP2 energy [au]:                     -159.341500863648
 DF-MP2 correlation energy [au]:               -0.778338479394
 DF-MP2 energy [au]:                         -159.307212566518

 Results in NAF basis:
 
 
 Reference energy [au]:                      -158.528874087125
 DF-MP2 singlet pair energy [au]:              -0.625055345943
 DF-MP2 triplet pair energy [au]:              -0.153256915595
 DF-SCS-MP2 correlation energy [au]:           -0.801152053663
 DF-SCS-MP2 energy [au]:                     -159.330026140788
 DF-SOS-MP2 correlation energy [au]:           -0.812571949726
 DF-SOS-MP2 energy [au]:                     -159.341446036850
 DF-MP2 correlation energy [au]:               -0.778312261538
 DF-MP2 energy [au]:                         -159.307186348662

 ************************ 2023-02-05 13:27:39 *************************
 Executing ccsd...

 Allocation of 220.0 Gbytes of memory...

 Direct DF-CCSD(T) calculation
 
 Convergence criterion:  1.0E-06
 
 Number of occupied/virtual/auxiliary orbitals:    14   350  1101
   6894.54 MB is the minimal memory requirement for (T)
   1573.93 MB is the minimal memory requirement for CCSD
 
 Reference energy [au]:            -158.528874087125
 T1 contribution [au]:                0.000000000000
 Same spin MP2 energy [au]:          -0.153248932035
 Opposite spin MP2 energy [au]:      -0.625076423544
 MP2 correlation energy [au]:        -0.778325355579
 Total MP2 energy [au]:            -159.307199442704
 MP2 correction [au]:                -0.010932028327
 
 
 CPU time [min]:     1.655                   Wall time [min]:     0.565
 
 Starting CCSD iterations...
 
                     Residual norm          Energy
 Iteration  1        0.253997735174     -159.343025435664
 Iteration  2        0.062948432286     -159.362189736230
 Iteration  3        0.018511682230     -159.364461163983
 Iteration  4        0.003748067238     -159.364475611934
 Iteration  5        0.000793324775     -159.364487341053
 Iteration  6        0.000221932055     -159.364491442709
 Iteration  7        0.000052460951     -159.364490992665
 Iteration  8        0.000014140089     -159.364491720427
 Iteration  9        0.000002817363     -159.364491677613
 
 CCSD iteration has converged in  9 steps.
    59038.48 MB memory was utilized by CCSD
 
 T1 diagnostic:      8.231E-03            D1 diagnostic:      1.428E-02
 
 T1 contribution [au]:                                  0.000000000000
 PPL energy contribution [au]:                          0.217870474958
 Scaled PPL energy contribution [au]:                   0.220950007382

 OS-PPL energy contribution [au]:                       0.191084051753
 Scaled OS-PPL energy contribution [au]:                0.194273936028
 SS-PPL energy contribution [au]:                       0.026786423205
 Scaled SS-PPL energy contribution [au]:                0.026882587518

 Opposite spin CCSD energy [au]:                       -0.690280305507
 Same spin CCSD energy [au]:                           -0.145352915260
 CCSD correlation energy [au]:                         -0.835633220767
 CCSD correlation energy + MP2 correction [au]:        -0.846565249094
 CCSD correlation energy + MP2 + PPL corr. [au]:       -0.843485716670
 Total CCSD energy [au]:                             -159.364507307892
 Total CCSD energy + MP2 correction [au]:            -159.375439336218
 Total CCSD energy + MP2 + PPL corr. [au]:           -159.372359803794
 
 CPU time [min]:   154.443                   Wall time [min]:     5.435
 
 Calculation of (T) correction...
 
 
     8827.33 MB memory is utilized for (T)

 0%       25%       50%       75%       100%
 |---------|---------|---------|---------| 
 
 (T) correction [au]:                                    -0.029525311837
 (T*) correction [au]:                                   -0.029940011863
 (T+) correction [au]:                                   -0.029932954312
 CCSD(T) correlation energy [au]:                        -0.865158532604
 CCSD(T) correlation energy + MP2 correction [au]:       -0.876090560931
 CCSD(T+) correlation en. + MP2 + PPL corr. [au]:        -0.873418670981
 Total CCSD(T) energy [au]:                            -159.394032619729
 Total CCSD(T) energy + MP2 correction [au]:           -159.404964648055
 Total CCSD(T+) energy + MP2 + PPL corr. [au]:         -159.402292758106
 
 CPU time [min]:   275.673                   Wall time [min]:     9.070
 
 ************************ 2023-02-05 13:36:43 *************************
                      Normal termination of mrcc.
 **********************************************************************
