 **********************************************************************
                          MRCC program system
 **********************************************************************
 
                              Written by
     Mihaly Kallay, Peter R. Nagy, David Mester, Laszlo Gyevi-Nagy,
        Jozsef Csoka, P. Bernat Szabo, Zoltan Rolik, Gyula Samu,
     Jozsef Csontos, Bence Hegely, Adam Ganyecz, Istvan Ladjanszki,
       Lorant Szegedy, Bence Ladoczki, Klara Petrov, Mate Farkas,
                    Pal D. Mezei, and Reka A. Horvath
 
        Department of Physical Chemistry and Materials Science
            Budapest University of Technology and Economics
                  Budapest P.O.Box 91, H-1521 Hungary
 
                              www.mrcc.hu
 
                      Release date: March 18, 2022

 ************************ 2023-02-05 13:25:17 *************************
 Executing minp...

 Reading input from MINP...
 
 Input file:
 
calc=FNO-CCSD(T)
verbosity=3
mem=220GB
unit=angs
scfiguess=small
scfalg=locfit1
ccmaxit=400
ccsdalg=dfdirect
ccsdthreads=4
ccsdmkl=thr
ptthreads=4
lnoepsv=1e-5
naf_cor=1e-2
basis=aug-cc-pVTZ
basis_sm=def2-SVP
dfbasis_scf=def2-QZVPP-RI-JK
dfbasis_cor=aug-cc-pVTZ-RI
unit=angs
geom=xyz
16

C    34.41670262    34.07107264    10.41543014
C    33.11117461    33.45680459    10.91530835
H    34.24160149    35.00442132     9.86225048
H    34.94674030    33.36940783     9.75379242
H    35.10002891    34.30603621    11.24227357
H    32.42643037    33.26105434    10.07939442
H    32.59136835    34.12756100    11.61262818
H    33.28915165    32.50678735    11.43686767
C    17.53473331    42.51205729    10.41543014
C    16.22920530    41.89778925    10.91530835
H    17.35963218    43.44540598     9.86225048
H    18.06477099    41.81039248     9.75379242
H    18.21805960    42.74702086    11.24227357
H    15.54446106    41.70203900    10.07939442
H    15.70939904    42.56854565    11.61262818
H    16.40718234    40.94777201    11.43686767

--------------------Output has been truncated-------------------------


--------------------Output has been truncated-------------------------


--------------------Output has been truncated-------------------------


--------------------Output has been truncated-------------------------


--------------------Output has been truncated-------------------------


--------------------Output has been truncated-------------------------


--------------------Output has been truncated-------------------------


--------------------Output has been truncated-------------------------


--------------------Output has been truncated-------------------------


--------------------Output has been truncated-------------------------


 
 Reference energy [au]:                      -158.519101023903
 DF-MP2 singlet pair energy [au]:              -0.600508674839
 DF-MP2 triplet pair energy [au]:              -0.150062981574
 DF-SCS-MP2 correlation energy [au]:           -0.770631403665
 DF-SCS-MP2 energy [au]:                     -159.289732427568
 DF-SOS-MP2 correlation energy [au]:           -0.780661277291
 DF-SOS-MP2 energy [au]:                     -159.299762301194
 DF-MP2 correlation energy [au]:               -0.750571656413
 DF-MP2 energy [au]:                         -159.269672680316

 Results in FNO basis:
 
 
 Reference energy [au]:                      -158.519101023903
 DF-MP2 singlet pair energy [au]:              -0.598168294200
 DF-MP2 triplet pair energy [au]:              -0.149850444579
 DF-SCS-MP2 correlation energy [au]:           -0.767752101233
 DF-SCS-MP2 energy [au]:                     -159.286853125136
 DF-SOS-MP2 correlation energy [au]:           -0.777618782460
 DF-SOS-MP2 energy [au]:                     -159.296719806363
 DF-MP2 correlation energy [au]:               -0.748018738779
 DF-MP2 energy [au]:                         -159.267119762681

 Results in NAF basis:
 
 
 Reference energy [au]:                      -158.519101023903
 DF-MP2 singlet pair energy [au]:              -0.598047412007
 DF-MP2 triplet pair energy [au]:              -0.149928781344
 DF-SCS-MP2 correlation energy [au]:           -0.767633154857
 DF-SCS-MP2 energy [au]:                     -159.286734178759
 DF-SOS-MP2 correlation energy [au]:           -0.777461635609
 DF-SOS-MP2 energy [au]:                     -159.296562659512
 DF-MP2 correlation energy [au]:               -0.747976193351
 DF-MP2 energy [au]:                         -159.267077217254

 ************************ 2023-02-05 13:26:00 *************************
 Executing ccsd...

 Allocation of 220.0 Gbytes of memory...

 Direct DF-CCSD(T) calculation
 
 Convergence criterion:  1.0E-06
 
 Number of occupied/virtual/auxiliary orbitals:    14   278   756
   3422.71 MB is the minimal memory requirement for (T)
    780.99 MB is the minimal memory requirement for CCSD
 
 Reference energy [au]:            -158.519101023903
 T1 contribution [au]:                0.000000000000
 Same spin MP2 energy [au]:          -0.149889494848
 Opposite spin MP2 energy [au]:      -0.598107511898
 MP2 correlation energy [au]:        -0.747997006746
 Total MP2 energy [au]:            -159.267098030648
 MP2 correction [au]:                -0.002574649668
 
 
 CPU time [min]:     0.918                   Wall time [min]:     0.132
 
 Starting CCSD iterations...
 
                     Residual norm          Energy
 Iteration  1        0.241423509455     -159.308955239318
 Iteration  2        0.060038249904     -159.328085049855
 Iteration  3        0.015975769941     -159.329997157555
 Iteration  4        0.003604182780     -159.330013800123
 Iteration  5        0.000758960315     -159.330024213904
 Iteration  6        0.000215373646     -159.330030369072
 Iteration  7        0.000051276045     -159.330029938464
 Iteration  8        0.000013080216     -159.330030521738
 Iteration  9        0.000002622456     -159.330030469698
 
 CCSD iteration has converged in  9 steps.
    23656.02 MB memory was utilized by CCSD
 
 T1 diagnostic:      7.816E-03            D1 diagnostic:      1.353E-02
 
 T1 contribution [au]:                                  0.000000000000
 PPL energy contribution [au]:                          0.205822976314
 Scaled PPL energy contribution [au]:                   0.206540177256

 OS-PPL energy contribution [au]:                       0.179922560491
 Scaled OS-PPL energy contribution [au]:                0.180664558923
 SS-PPL energy contribution [au]:                       0.025900415823
 Scaled SS-PPL energy contribution [au]:                0.025924028642

 Opposite spin CCSD energy [au]:                       -0.668568187204
 Same spin CCSD energy [au]:                           -0.142398189281
 CCSD correlation energy [au]:                         -0.810966376485
 CCSD correlation energy + MP2 correction [au]:        -0.813541026152
 CCSD correlation energy + MP2 + PPL corr. [au]:       -0.812823825210
 Total CCSD energy [au]:                             -159.330067400387
 Total CCSD energy + MP2 correction [au]:            -159.332642050055
 Total CCSD energy + MP2 + PPL corr. [au]:           -159.331924849113
 
 CPU time [min]:    53.775                   Wall time [min]:     1.791
 
 Calculation of (T) correction...
 
 
     4429.83 MB memory is utilized for (T)

 0%       25%       50%       75%       100%
 |---------|---------|---------|---------| 
 
 (T) correction [au]:                                    -0.027917808996
 (T*) correction [au]:                                   -0.028013903736
 (T+) correction [au]:                                   -0.028012725571
 CCSD(T) correlation energy [au]:                        -0.838884185481
 CCSD(T) correlation energy + MP2 correction [au]:       -0.841458835148
 CCSD(T+) correlation en. + MP2 + PPL corr. [au]:        -0.840836550782
 Total CCSD(T) energy [au]:                            -159.357985209383
 Total CCSD(T) energy + MP2 correction [au]:           -159.360559859051
 Total CCSD(T+) energy + MP2 + PPL corr. [au]:         -159.359937574685
 
 CPU time [min]:   111.963                   Wall time [min]:     3.503
 
 ************************ 2023-02-05 13:29:30 *************************
                      Normal termination of mrcc.
 **********************************************************************
