 **********************************************************************
                          MRCC program system
 **********************************************************************
 
                              Written by
     Mihaly Kallay, Peter R. Nagy, David Mester, Laszlo Gyevi-Nagy,
        Jozsef Csoka, P. Bernat Szabo, Zoltan Rolik, Gyula Samu,
     Jozsef Csontos, Bence Hegely, Adam Ganyecz, Istvan Ladjanszki,
       Lorant Szegedy, Bence Ladoczki, Klara Petrov, Mate Farkas,
                    Pal D. Mezei, and Reka A. Horvath
 
        Department of Physical Chemistry and Materials Science
            Budapest University of Technology and Economics
                  Budapest P.O.Box 91, H-1521 Hungary
 
                              www.mrcc.hu
 
                      Release date: March 18, 2022

 ************************ 2023-02-05 13:18:38 *************************
 Executing minp...

 Reading input from MINP...
 
 Input file:
 
calc=FNO-CCSD(T)
verbosity=3
mem=220GB
unit=angs
scfiguess=small
scfalg=locfit1
ccmaxit=400
ccsdalg=dfdirect
ccsdthreads=4
ccsdmkl=thr
ptthreads=4
lnoepsv=1e-5
naf_cor=1e-2
basis=aug-cc-pVQZ
basis_sm=def2-SVP
dfbasis_scf=def2-QZVPP-RI-JK
dfbasis_cor=aug-cc-pVQZ-RI
unit=angs
geom=xyz
16

C    34.41670262    34.07107264    10.41543014
C    33.11117461    33.45680459    10.91530835
H    34.24160149    35.00442132     9.86225048
H    34.94674030    33.36940783     9.75379242
H    35.10002891    34.30603621    11.24227357
H    32.42643037    33.26105434    10.07939442
H    32.59136835    34.12756100    11.61262818
H    33.28915165    32.50678735    11.43686767
C    42.85770499    46.73257559    10.41548088
C    41.55214767    46.11828004    10.91529140
H    42.68250243    47.66601471     9.86250154
H    43.38767744    46.03070320     9.75399090
H    43.54128776    46.96765980    11.24209422
H    40.86727325    45.92238203    10.07951373
H    41.03231026    46.78921263    11.61243196
H    41.73020928    45.16817730    11.43663402

--------------------Output has been truncated-------------------------


--------------------Output has been truncated-------------------------


--------------------Output has been truncated-------------------------


--------------------Output has been truncated-------------------------


--------------------Output has been truncated-------------------------


--------------------Output has been truncated-------------------------


--------------------Output has been truncated-------------------------


--------------------Output has been truncated-------------------------


--------------------Output has been truncated-------------------------


--------------------Output has been truncated-------------------------


 
 Reference energy [au]:                       -79.264434725812
 DF-MP2 singlet pair energy [au]:              -0.317722537222
 DF-MP2 triplet pair energy [au]:              -0.076906307140
 DF-SCS-MP2 correlation energy [au]:           -0.406902480379
 DF-SCS-MP2 energy [au]:                      -79.671337206191
 DF-SOS-MP2 correlation energy [au]:           -0.413039298388
 DF-SOS-MP2 energy [au]:                      -79.677474024200
 DF-MP2 correlation energy [au]:               -0.394628844362
 DF-MP2 energy [au]:                          -79.659063570174

 Results in FNO basis:
 
 
 Reference energy [au]:                       -79.264434725812
 DF-MP2 singlet pair energy [au]:              -0.312548962658
 DF-MP2 triplet pair energy [au]:              -0.076620425758
 DF-SCS-MP2 correlation energy [au]:           -0.400598897109
 DF-SCS-MP2 energy [au]:                      -79.665033622921
 DF-SOS-MP2 correlation energy [au]:           -0.406313651456
 DF-SOS-MP2 energy [au]:                      -79.670748377268
 DF-MP2 correlation energy [au]:               -0.389169388416
 DF-MP2 energy [au]:                          -79.653604114229

 Results in NAF basis:
 
 
 Reference energy [au]:                       -79.264434725812
 DF-MP2 singlet pair energy [au]:              -0.312528000654
 DF-MP2 triplet pair energy [au]:              -0.076628431714
 DF-SCS-MP2 correlation energy [au]:           -0.400576411356
 DF-SCS-MP2 energy [au]:                      -79.665011137168
 DF-SOS-MP2 correlation energy [au]:           -0.406286400850
 DF-SOS-MP2 energy [au]:                      -79.670721126662
 DF-MP2 correlation energy [au]:               -0.389156432368
 DF-MP2 energy [au]:                          -79.653591158180

 ************************ 2023-02-05 13:20:06 *************************
 Executing ccsd...

 Allocation of 220.0 Gbytes of memory...

 Direct DF-CCSD(T) calculation
 
 Convergence criterion:  1.0E-06
 
 Number of occupied/virtual/auxiliary orbitals:     7   175   551
    851.32 MB is the minimal memory requirement for (T)
    190.43 MB is the minimal memory requirement for CCSD
 
 Reference energy [au]:             -79.264434725812
 T1 contribution [au]:                0.000000000000
 Same spin MP2 energy [au]:          -0.076624426173
 Opposite spin MP2 energy [au]:      -0.312538476949
 MP2 correlation energy [au]:        -0.389162903123
 Total MP2 energy [au]:             -79.653597628935
 MP2 correction [au]:                -0.005465941239
 
 
 CPU time [min]:     0.402                   Wall time [min]:     0.050
 
 Starting CCSD iterations...
 
                     Residual norm          Energy
 Iteration  1        0.179602553285      -79.671510547858
 Iteration  2        0.044510728669      -79.681092728158
 Iteration  3        0.013089825003      -79.682228516967
 Iteration  4        0.002650304457      -79.682235745608
 Iteration  5        0.000560979209      -79.682241611175
 Iteration  6        0.000156934024      -79.682243661397
 Iteration  7        0.000037096720      -79.682243436246
 Iteration  8        0.000009998905      -79.682243800101
 
 CCSD iteration has converged in  8 steps.
     3804.92 MB memory was utilized by CCSD
 
 T1 diagnostic:      8.231E-03            D1 diagnostic:      1.428E-02
 
 T1 contribution [au]:                                  0.000000000000
 PPL energy contribution [au]:                          0.108935795504
 Scaled PPL energy contribution [au]:                   0.110475522837

 OS-PPL energy contribution [au]:                       0.095542558871
 Scaled OS-PPL energy contribution [au]:                0.097137469100
 SS-PPL energy contribution [au]:                       0.013393236633
 Scaled SS-PPL energy contribution [au]:                0.013441313911

 Opposite spin CCSD energy [au]:                       -0.345140460177
 Same spin CCSD energy [au]:                           -0.072676367038
 CCSD correlation energy [au]:                         -0.417816827215
 CCSD correlation energy + MP2 correction [au]:        -0.423282768454
 CCSD correlation energy + MP2 + PPL corr. [au]:       -0.421743041120
 Total CCSD energy [au]:                              -79.682251553027
 Total CCSD energy + MP2 correction [au]:             -79.687717494266
 Total CCSD energy + MP2 + PPL corr. [au]:            -79.686177766933
 
 CPU time [min]:     6.642                   Wall time [min]:     0.242
 
 Calculation of (T) correction...
 
 
      783.34 MB memory is utilized for (T)

 0%       25%       50%       75%       100%
 |---------|---------|---------|---------| 
 
 (T) correction [au]:                                    -0.014762743489
 (T*) correction [au]:                                   -0.014970091845
 (T+) correction [au]:                                   -0.014966561165
 CCSD(T) correlation energy [au]:                        -0.432579570704
 CCSD(T) correlation energy + MP2 correction [au]:       -0.438045511942
 CCSD(T+) correlation en. + MP2 + PPL corr. [au]:        -0.436709602285
 Total CCSD(T) energy [au]:                             -79.697014296516
 Total CCSD(T) energy + MP2 correction [au]:            -79.702480237755
 Total CCSD(T+) energy + MP2 + PPL corr. [au]:          -79.701144328097
 
 CPU time [min]:     8.369                   Wall time [min]:     0.299
 
 ************************ 2023-02-05 13:20:24 *************************
                      Normal termination of mrcc.
 **********************************************************************
