 vasp.6.3.0 20Jan22 (build Mar 11 2022 13:48:16) complex                        
  
 executed on             LinuxIFC date 2024.01.22  00:06:59
 running on  304 total cores
 distrk:  each k-point on  304 cores,    1 groups
 distr:  one band on NCORE=   2 cores,  152 groups


--------------------------------------------------------------------------------------------------------


 INCAR:
   SYSTEM = TiO2
   ISMEAR = 0
   SIGMA = 0.05
   EDIFF = 1E-5
   ALGO = ALL
   ISTART = 0
   IBRION = -1
   NSW = 0
   ISYM = 0
   ISIF = 2
   EDIFFG = -0.01
   DIPOL = 0.5 0.5 0.5
   IDIPOL = 3
   LDIPOL = .TRUE.
   GGA = MK
   LUSE_VDW = .TRUE.
   PARAM1 = 0.1234
   PARAM2 = 0.711357
   ZAB_VDW = -1.8867
   AGGAC = 0.0
   ENCUT = 600
   PREC = Accurate
   LASPH = .TRUE.
   LREAL = .FALSE.
   ISPIN = 1
   NELM = 200
   NELMIN = 8
   NCORE = 2
   KPAR = 1
   LWAVE = .FALSE.
   LCHARG = .FALSE.

 POTCAR:    PAW_PBE C 08Apr2002                   
 POTCAR:    PAW_PBE O 08Apr2002                   
 POTCAR:    PAW_PBE H 15Jun2001                   
 POTCAR:    PAW_PBE Ti_pv 07Sep2000               
 POTCAR:    PAW_PBE O 08Apr2002                   
 -----------------------------------------------------------------------------
|                                                                             |
|           W    W    AA    RRRRR   N    N  II  N    N   GGGG   !!!           |
|           W    W   A  A   R    R  NN   N  II  NN   N  G    G  !!!           |
|           W    W  A    A  R    R  N N  N  II  N N  N  G       !!!           |
|           W WW W  AAAAAA  RRRRR   N  N N  II  N  N N  G  GGG   !            |
|           WW  WW  A    A  R   R   N   NN  II  N   NN  G    G                |
|           W    W  A    A  R    R  N    N  II  N    N   GGGG   !!!           |
|                                                                             |
|     For optimal performance we recommend to set                             |
|       NCORE = 2 up to number-of-cores-per-socket                            |
|     NCORE specifies how many cores store one orbital (NPAR=cpu/NCORE).      |
|     This setting can greatly improve the performance of VASP for DFT.       |
|     The default, NCORE=1 might be grossly inefficient on modern             |
|     multi-core architectures or massively parallel machines. Do your        |
|     own testing! More info at https://www.vasp.at/wiki/index.php/NCORE      |
|     Unfortunately you need to use the default for GW and RPA                |
|     calculations (for HF NCORE is supported but not extensively tested      |
|     yet).                                                                   |
|                                                                             |
 -----------------------------------------------------------------------------

 -----------------------------------------------------------------------------
|                                                                             |
|               ----> ADVICE to this user running VASP <----                  |
|                                                                             |
|     You have switched on vdW-DFT.                                           |
|     This routine was written and supplied by Jiri Klimes. We recommend      |
|     that you carefully read and cite the following publications:            |
|       J. Klimes, D.R. Bowler, A. Michelides                                 |
|          J. Phys.: Cond Matt. 22 022201 (2010)                              |
|       J. Klimes, D.R. Bowler, A. Michelides                                 |
|          Phys. Rev. B. 83, 195131 (2011)                                    |
|     and references therein.                                                 |
|                                                                             |
 -----------------------------------------------------------------------------

 POTCAR:    PAW_PBE C 08Apr2002                   
   SHA256 =  253f7b50bb8d59471dbedb8285d89021f4a42ed1a2c5d38a03a736e69125dd95 C/POTCAR              
   COPYR  = (c) Copyright 08Apr2002 Georg Kresse                                                    
   COPYR  = This file is part of the software VASP. Any use, copying, and all other rights are regul
   COPYR  = If you do not have a valid VASP license, you may not use, copy or distribute this file. 
   VRHFIN =C: s2p2                                                                                  
   LEXCH  = PE                                                                                      
   EATOM  =   147.1560 eV,   10.8157 Ry                                                             
                                                                                                    
   TITEL  = PAW_PBE C 08Apr2002                                                                     
   LULTRA =        F    use ultrasoft PP ?                                                          
   IUNSCR =        1    unscreen: 0-lin 1-nonlin 2-no                                               
   RPACOR =    1.200    partial core radius                                                         
   POMASS =   12.011; ZVAL   =    4.000    mass and valenz                                          
   RCORE  =    1.500    outmost cutoff radius                                                       
   RWIGS  =    1.630; RWIGS  =    0.863    wigner-seitz radius (au A)                               
   ENMAX  =  400.000; ENMIN  =  300.000 eV                                                          
   ICORE  =        2    local potential                                                             
   LCOR   =        T    correct aug charges                                                         
   LPAW   =        T    paw PP                                                                      
   EAUG   =  644.873                                                                                
   DEXC   =    0.000                                                                                
   RMAX   =    1.529    core radius for proj-oper                                                   
   RAUG   =    1.300    factor for augmentation sphere                                              
   RDEP   =    1.501    radius for radial grids                                                     
   RDEPT  =    1.300    core radius for aug-charge                                                  
                                                                                                    
   Atomic configuration                                                                             
    4 entries                                                                                       
     n  l   j            E        occ.                                                              
     1  0  0.50      -273.3789   2.0000                                                             
     2  0  0.50       -13.7508   2.0000                                                             
     2  1  0.50        -5.2854   2.0000                                                             
     3  2  1.50        -5.4423   0.0000                                                             
   Description                                                                                      
     l       E           TYP  RCUT    TYP  RCUT                                                     
     0    -13.7508458     23  1.200                                                                 
     0     -8.2022199     23  1.200                                                                 
     1     -5.2854383     23  1.500                                                                 
     1     34.0145650     23  1.500                                                                 
     2     -5.4423304      7  1.500                                                                 
  local pseudopotential read in
  partial core-charges read in
  partial kinetic energy density read in
  atomic valenz-charges read in
  non local Contribution for L=           0  read in
    real space projection operators read in
  non local Contribution for L=           0  read in
    real space projection operators read in
  non local Contribution for L=           1  read in
    real space projection operators read in
  non local Contribution for L=           1  read in
    real space projection operators read in
    PAW grid and wavefunctions read in
 
   number of l-projection  operators is LMAX  =           4
   number of lm-projection operators is LMMAX =           8
 
 POTCAR:    PAW_PBE O 08Apr2002                   
   SHA256 =  818f92134a0a090dccd8ba1447fa70422a3b330e708bb4f08108d8ae51209ddf O/POTCAR              
   COPYR  = (c) Copyright 08Apr2002 Georg Kresse                                                    
   COPYR  = This file is part of the software VASP. Any use, copying, and all other rights are regul
   COPYR  = If you do not have a valid VASP license, you may not use, copy or distribute this file. 
   VRHFIN =O: s2p4                                                                                  
   LEXCH  = PE                                                                                      
   EATOM  =   432.3788 eV,   31.7789 Ry                                                             
                                                                                                    
   TITEL  = PAW_PBE O 08Apr2002                                                                     
   LULTRA =        F    use ultrasoft PP ?                                                          
   IUNSCR =        1    unscreen: 0-lin 1-nonlin 2-no                                               
   RPACOR =    1.200    partial core radius                                                         
   POMASS =   16.000; ZVAL   =    6.000    mass and valenz                                          
   RCORE  =    1.520    outmost cutoff radius                                                       
   RWIGS  =    1.550; RWIGS  =    0.820    wigner-seitz radius (au A)                               
   ENMAX  =  400.000; ENMIN  =  300.000 eV                                                          
   ICORE  =        2    local potential                                                             
   LCOR   =        T    correct aug charges                                                         
   LPAW   =        T    paw PP                                                                      
   EAUG   =  605.392                                                                                
   DEXC   =    0.000                                                                                
   RMAX   =    1.553    core radius for proj-oper                                                   
   RAUG   =    1.300    factor for augmentation sphere                                              
   RDEP   =    1.550    radius for radial grids                                                     
   RDEPT  =    1.329    core radius for aug-charge                                                  
                                                                                                    
   Atomic configuration                                                                             
    4 entries                                                                                       
     n  l   j            E        occ.                                                              
     1  0  0.50      -514.6923   2.0000                                                             
     2  0  0.50       -23.9615   2.0000                                                             
     2  1  0.50        -9.0305   4.0000                                                             
     3  2  1.50        -9.5241   0.0000                                                             
   Description                                                                                      
     l       E           TYP  RCUT    TYP  RCUT                                                     
     0    -23.9615318     23  1.200                                                                 
     0     -9.5240782     23  1.200                                                                 
     1     -9.0304911     23  1.520                                                                 
     1      8.1634956     23  1.520                                                                 
     2     -9.5240782      7  1.500                                                                 
  local pseudopotential read in
  partial core-charges read in
  partial kinetic energy density read in
  kinetic energy density of atom read in
  atomic valenz-charges read in
  non local Contribution for L=           0  read in
    real space projection operators read in
  non local Contribution for L=           0  read in
    real space projection operators read in
  non local Contribution for L=           1  read in
    real space projection operators read in
  non local Contribution for L=           1  read in
    real space projection operators read in
    PAW grid and wavefunctions read in
 
   number of l-projection  operators is LMAX  =           4
   number of lm-projection operators is LMMAX =           8
 
 POTCAR:    PAW_PBE H 15Jun2001                   
   SHA256 =  030f79b5d3ab3cf0e668861823c8fb652ff669f3e15e46930bd03bfd63a607b6 H/POTCAR              
   COPYR  = (c) Copyright 15Jun2001 Georg Kresse                                                    
   COPYR  = This file is part of the software VASP. Any use, copying, and all other rights are regul
   COPYR  = If you do not have a valid VASP license, you may not use, copy or distribute this file. 
   VRHFIN =H: ultrasoft test                                                                        
   LEXCH  = PE                                                                                      
   EATOM  =    12.4884 eV,    0.9179 Ry                                                             
                                                                                                    
   TITEL  = PAW_PBE H 15Jun2001                                                                     
   LULTRA =        F    use ultrasoft PP ?                                                          
   IUNSCR =        0    unscreen: 0-lin 1-nonlin 2-no                                               
   RPACOR =    0.000    partial core radius                                                         
   POMASS =    1.000; ZVAL   =    1.000    mass and valenz                                          
   RCORE  =    1.100    outmost cutoff radius                                                       
   RWIGS  =    0.700; RWIGS  =    0.370    wigner-seitz radius (au A)                               
   ENMAX  =  250.000; ENMIN  =  200.000 eV                                                          
   RCLOC  =    0.701    cutoff for local pot                                                        
   LCOR   =        T    correct aug charges                                                         
   LPAW   =        T    paw PP                                                                      
   EAUG   =  400.000                                                                                
   RMAX   =    1.123    core radius for proj-oper                                                   
   RAUG   =    1.200    factor for augmentation sphere                                              
   RDEP   =    1.112    radius for radial grids                                                     
   RDEPT  =    0.926    core radius for aug-charge                                                  
                                                                                                    
   Atomic configuration                                                                             
    2 entries                                                                                       
     n  l   j            E        occ.                                                              
     1  0  0.50        -6.4927   1.0000                                                             
     2  1  0.50        -3.4015   0.0000                                                             
   Description                                                                                      
     l       E           TYP  RCUT    TYP  RCUT                                                     
     0     -6.4927494     23  1.100                                                                 
     0      6.8029130     23  1.100                                                                 
     1     -4.0817478     23  1.100                                                                 
  local pseudopotential read in
  atomic valenz-charges read in
  non local Contribution for L=           0  read in
    real space projection operators read in
  non local Contribution for L=           0  read in
    real space projection operators read in
  non local Contribution for L=           1  read in
    real space projection operators read in
    PAW grid and wavefunctions read in
 
   number of l-projection  operators is LMAX  =           3
   number of lm-projection operators is LMMAX =           5
 
 POTCAR:    PAW_PBE Ti_pv 07Sep2000               
   SHA256 =  f757a1b2c6d082f4c628fa3d987464a8763bf92e53844ac0500b0e2ddc9ce5c0 Ti_pv/POTCAR          
   COPYR  = (c) Copyright 07Sep2000 Georg Kresse                                                    
   COPYR  = This file is part of the software VASP. Any use, copying, and all other rights are regul
   COPYR  = If you do not have a valid VASP license, you may not use, copy or distribute this file. 
   VRHFIN =Ti: d3 s1                                                                                
   LEXCH  = PE                                                                                      
   EATOM  =  1042.5995 eV,   76.6289 Ry                                                             
                                                                                                    
   TITEL  = PAW_PBE Ti_pv 07Sep2000                                                                 
   LULTRA =        F    use ultrasoft PP ?                                                          
   IUNSCR =        1    unscreen: 0-lin 1-nonlin 2-no                                               
   RPACOR =    2.200    partial core radius                                                         
   POMASS =   47.880; ZVAL   =   10.000    mass and valenz                                          
   RCORE  =    2.500    outmost cutoff radius                                                       
   RWIGS  =    2.500; RWIGS  =    1.323    wigner-seitz radius (au A)                               
   ENMAX  =  222.335; ENMIN  =  166.751 eV                                                          
   RCLOC  =    1.701    cutoff for local pot                                                        
   LCOR   =        T    correct aug charges                                                         
   LPAW   =        T    paw PP                                                                      
   EAUG   =  482.848                                                                                
   DEXC   =    0.000                                                                                
   RMAX   =    2.564    core radius for proj-oper                                                   
   RAUG   =    1.300    factor for augmentation sphere                                              
   RDEP   =    2.538    radius for radial grids                                                     
   RDEPT  =    1.952    core radius for aug-charge                                                  
                                                                                                    
   Atomic configuration                                                                             
    8 entries                                                                                       
     n  l   j            E        occ.                                                              
     1  0  0.50     -4865.3608   2.0000                                                             
     2  0  0.50      -533.1368   2.0000                                                             
     2  1  1.50      -440.5031   6.0000                                                             
     3  0  0.50       -59.3186   2.0000                                                             
     3  1  1.50       -35.7012   6.0000                                                             
     3  2  2.50        -1.9157   3.0000                                                             
     4  0  0.50        -3.7291   1.0000                                                             
     4  3  2.50        -1.3606   0.0000                                                             
   Description                                                                                      
     l       E           TYP  RCUT    TYP  RCUT                                                     
     1    -35.7012140     23  2.300                                                                 
     1     -1.3605826     23  2.300                                                                 
     2     -1.9156996     23  2.500                                                                 
     2     -0.4063033     23  2.500                                                                 
     0     -3.7290856     23  2.500                                                                 
     0     20.4087390     23  2.500                                                                 
  local pseudopotential read in
  partial core-charges read in
  partial kinetic energy density read in
  atomic valenz-charges read in
  non local Contribution for L=           1  read in
    real space projection operators read in
  non local Contribution for L=           1  read in
    real space projection operators read in
  non local Contribution for L=           2  read in
    real space projection operators read in
  non local Contribution for L=           2  read in
    real space projection operators read in
  non local Contribution for L=           0  read in
    real space projection operators read in
  non local Contribution for L=           0  read in
    real space projection operators read in
    PAW grid and wavefunctions read in
 
   number of l-projection  operators is LMAX  =           6
   number of lm-projection operators is LMMAX =          18
 
 POTCAR:    PAW_PBE O 08Apr2002                   
   SHA256 =  818f92134a0a090dccd8ba1447fa70422a3b330e708bb4f08108d8ae51209ddf O/POTCAR              
   COPYR  = (c) Copyright 08Apr2002 Georg Kresse                                                    
   COPYR  = This file is part of the software VASP. Any use, copying, and all other rights are regul
   COPYR  = If you do not have a valid VASP license, you may not use, copy or distribute this file. 
   VRHFIN =O: s2p4                                                                                  
   LEXCH  = PE                                                                                      
   EATOM  =   432.3788 eV,   31.7789 Ry                                                             
                                                                                                    
   TITEL  = PAW_PBE O 08Apr2002                                                                     
   LULTRA =        F    use ultrasoft PP ?                                                          
   IUNSCR =        1    unscreen: 0-lin 1-nonlin 2-no                                               
   RPACOR =    1.200    partial core radius                                                         
   POMASS =   16.000; ZVAL   =    6.000    mass and valenz                                          
   RCORE  =    1.520    outmost cutoff radius                                                       
   RWIGS  =    1.550; RWIGS  =    0.820    wigner-seitz radius (au A)                               
   ENMAX  =  400.000; ENMIN  =  300.000 eV                                                          
   ICORE  =        2    local potential                                                             
   LCOR   =        T    correct aug charges                                                         
   LPAW   =        T    paw PP                                                                      
   EAUG   =  605.392                                                                                
   DEXC   =    0.000                                                                                
   RMAX   =    1.553    core radius for proj-oper                                                   
   RAUG   =    1.300    factor for augmentation sphere                                              
   RDEP   =    1.550    radius for radial grids                                                     
   RDEPT  =    1.329    core radius for aug-charge                                                  
                                                                                                    
   Atomic configuration                                                                             
    4 entries                                                                                       
     n  l   j            E        occ.                                                              
     1  0  0.50      -514.6923   2.0000                                                             
     2  0  0.50       -23.9615   2.0000                                                             
     2  1  0.50        -9.0305   4.0000                                                             
     3  2  1.50        -9.5241   0.0000                                                             
   Description                                                                                      
     l       E           TYP  RCUT    TYP  RCUT                                                     
     0    -23.9615318     23  1.200                                                                 
     0     -9.5240782     23  1.200                                                                 
     1     -9.0304911     23  1.520                                                                 
     1      8.1634956     23  1.520                                                                 
     2     -9.5240782      7  1.500                                                                 
  local pseudopotential read in
  partial core-charges read in
  partial kinetic energy density read in
  kinetic energy density of atom read in
  atomic valenz-charges read in
  non local Contribution for L=           0  read in
    real space projection operators read in
  non local Contribution for L=           0  read in
    real space projection operators read in
  non local Contribution for L=           1  read in
    real space projection operators read in
  non local Contribution for L=           1  read in
    real space projection operators read in
    PAW grid and wavefunctions read in
 
   number of l-projection  operators is LMAX  =           4
   number of lm-projection operators is LMMAX =           8
 
 -----------------------------------------------------------------------------
|                                                                             |
|               ----> ADVICE to this user running VASP <----                  |
|                                                                             |
|     You have a (more or less) 'large supercell' and for larger cells it     |
|     might be more efficient to use real-space projection operators.         |
|     Therefore, try LREAL= Auto in the INCAR file.                           |
|     Mind: For very accurate calculation, you might also keep the            |
|     reciprocal projection scheme (i.e. LREAL=.FALSE.).                      |
|                                                                             |
 -----------------------------------------------------------------------------

 -----------------------------------------------------------------------------
|                                                                             |
|               ----> ADVICE to this user running VASP <----                  |
|                                                                             |
|     You enforced a specific xc type in the INCAR file but a different       |
|     type was found in the POTCAR file.                                      |
|     I HOPE YOU KNOW WHAT YOU ARE DOING!                                     |
|                                                                             |
 -----------------------------------------------------------------------------

  PAW_PBE C 08Apr2002                   :
 energy of atom  1       EATOM= -147.1560
 kinetic energy error for atom=    0.0057 (will be added to EATOM!!)
  PAW_PBE O 08Apr2002                   :
 energy of atom  2       EATOM= -432.3788
 kinetic energy error for atom=    0.0168 (will be added to EATOM!!)
  PAW_PBE H 15Jun2001                   :
 energy of atom  3       EATOM=  -12.4884
 kinetic energy error for atom=    0.0004 (will be added to EATOM!!)
  PAW_PBE Ti_pv 07Sep2000               :
 energy of atom  4       EATOM=-1042.5995
 kinetic energy error for atom=    0.0007 (will be added to EATOM!!)
  PAW_PBE O 08Apr2002                   :
 energy of atom  5       EATOM= -432.3788
 kinetic energy error for atom=    0.0168 (will be added to EATOM!!)
 
 
 POSCAR:  C  O  H Ti  O
  positions in direct lattice
  No initial velocities read in
 exchange correlation table for  LEXCH =       43
   RHO(1)=    0.500       N(1)  =     2000
   RHO(2)=  100.500       N(2)  =     4000
 


--------------------------------------------------------------------------------------------------------


 ion  position               nearest neighbor table
   1  0.510  0.588  0.811-   3 1.09   5 1.10   6 1.10   2 1.45
   2  0.539  0.498  0.782-   4 1.00   1 1.45  86 2.18
   3  0.427  0.597  0.810-   1 1.09
   4  0.615  0.493  0.780-   2 1.00
   5  0.534  0.564  0.845-   1 1.10
   6  0.549  0.667  0.802-   1 1.10
   7  0.750  0.625  0.287-  88 1.95 148 1.95 147 1.95  87 1.95  90 1.98 169 1.98  17 2.96  37 2.96

   8  0.000  0.750  0.287-  89 1.95  90 1.95 109 1.95 110 1.95  91 1.98  38 2.96  18 2.96
   9  0.000  0.625  0.394-  91 1.95 151 1.95  92 1.95 152 1.95  93 1.98  94 1.98  19 2.96  39 2.96

  10  0.750  0.750  0.394-  93 1.95 113 1.95 174 1.95 194 1.95  95 1.98  88 1.98  20 2.96  40 2.96

  11  0.750  0.625  0.500-  95 1.95  96 1.95 155 1.95 156 1.95  98 1.98 177 1.98  21 2.96  41 2.96

  12  0.000  0.750  0.500-  97 1.95  98 1.95 117 1.95 118 1.95  92 1.98  99 2.00  22 2.96  42 2.96

  13  0.007  0.625  0.604- 102 1.87 159 1.90  99 1.90 100 2.02 160 2.02 101 2.03  23 2.96  43 2.96

  14  0.756  0.750  0.610- 103 1.87 101 1.93 121 1.93 182 2.01 202 2.01  96 2.09  24 2.96  44 2.96

  15  0.751  0.626  0.719- 104 1.83 164 1.87 185 2.00 106 2.02 103 2.08 163 2.09  25 2.95  45 2.99

  16  1.000  0.750  0.708- 100 1.81 125 1.94 126 1.94 105 1.95 106 1.96  26 2.95  46 2.96
  17  0.750  0.875  0.287-  88 1.95 108 1.95 107 1.95  87 1.95 110 1.98 189 1.98   7 2.96  27 2.96

  18  0.000  0.000  0.287- 109 1.95 110 1.95 129 1.95 130 1.95 111 1.98  28 2.96   8 2.96
  19  0.000  0.875  0.394-  91 1.95 111 1.95  92 1.95 112 1.95 113 1.98 114 1.98   9 2.96  29 2.96

  20  0.750  0.000  0.394- 113 1.95 133 1.95 194 1.95 214 1.95 115 1.98 108 1.98  10 2.96  30 2.96

  21  0.750  0.875  0.500-  95 1.95  96 1.95 115 1.95 116 1.95 118 1.98 197 1.98  11 2.96  31 2.96

  22  0.000  0.000  0.500- 117 1.95 118 1.95 137 1.95 138 1.95 112 1.98 119 2.00  12 2.96  32 2.96

  23  0.007  0.875  0.604- 122 1.87  99 1.90 119 1.90 120 2.02 100 2.02 121 2.04  33 2.96  13 2.96

  24  0.756  0.000  0.611- 123 1.87 121 1.93 141 1.93 222 2.01 202 2.02 116 2.10  34 2.96  14 2.96

  25  0.750  0.875  0.720- 124 1.84 104 1.84 205 2.02 126 2.04 103 2.09 123 2.09  15 2.95  35 2.95

  26  0.000  1.000  0.708- 120 1.81 126 1.95 146 1.95 145 1.95 125 1.95  16 2.95  36 2.95
  27  0.750  0.125  0.287- 108 1.95 128 1.95 127 1.95 107 1.95 130 1.98 209 1.98  17 2.96  37 2.96

  28  0.000  0.250  0.287- 129 1.95 130 1.95 149 1.95 150 1.95 131 1.98  38 2.96  18 2.96
  29  0.000  0.125  0.394- 111 1.95 131 1.95 112 1.95 132 1.95 133 1.98 134 1.98  19 2.96  39 2.96

  30  0.750  0.250  0.394- 133 1.95 153 1.95 214 1.95 234 1.95 135 1.98 128 1.98  20 2.96  40 2.96

  31  0.750  0.125  0.500- 115 1.95 116 1.95 135 1.95 136 1.95 138 1.98 217 1.98  21 2.96  41 2.96

  32  0.000  0.250  0.500- 137 1.95 138 1.95 157 1.95 158 1.95 132 1.98 139 2.00  22 2.96  42 2.96

  33  0.007  0.125  0.604- 142 1.86 139 1.90 119 1.90 120 2.02 140 2.02 141 2.04  23 2.96  43 2.96

  34  0.756  0.250  0.610- 143 1.87 141 1.93 161 1.93 222 2.01 242 2.01 136 2.09  24 2.96  44 2.96

  35  0.750  0.124  0.720- 124 1.83 144 1.84 225 2.02 146 2.04 123 2.09 143 2.10  45 2.95  25 2.95

  36  0.000  0.250  0.708- 140 1.81 145 1.94 146 1.94 165 1.95 166 1.96  26 2.95  46 2.96
  37  0.750  0.375  0.287- 128 1.95 148 1.95 147 1.95 127 1.95 150 1.98 229 1.98   7 2.96  27 2.96

  38  0.000  0.500  0.287-  89 1.95  90 1.95 149 1.95 150 1.95 151 1.98  28 2.96   8 2.96
  39  0.000  0.375  0.394- 131 1.95 151 1.95 132 1.95 152 1.95 153 1.98 154 1.98   9 2.96  29 2.96

  40  0.750  0.500  0.394-  93 1.95 153 1.95 174 1.95 234 1.95 148 1.98 155 1.98  10 2.96  30 2.96

  41  0.750  0.375  0.500- 135 1.95 136 1.95 155 1.95 156 1.95 158 1.98 237 1.98  11 2.96  31 2.96

  42  0.000  0.500  0.500-  97 1.95  98 1.95 157 1.95 158 1.95 152 1.98 159 2.00  12 2.96  32 2.96

  43  0.007  0.375  0.604- 162 1.87 159 1.90 139 1.90 140 2.02 160 2.02 161 2.03  33 2.96  13 2.96

  44  0.756  0.500  0.610- 163 1.86 161 1.93 101 1.93 242 2.02 182 2.02 156 2.10  14 2.96  34 2.96

  45  0.751  0.373  0.719- 144 1.83 164 1.87 166 2.01 245 2.02 143 2.06 163 2.10  35 2.95  15 2.99

  46  0.001  0.500  0.708- 160 1.81 165 1.94 105 1.94 106 1.95 166 1.95  16 2.96  36 2.96
  47  0.250  0.625  0.287- 168 1.95 228 1.95 227 1.95 167 1.95  89 1.98 170 1.98  57 2.96  77 2.96

  48  0.500  0.750  0.287- 169 1.95 170 1.95 189 1.95 190 1.95 171 1.98  78 2.96  58 2.96
  49  0.500  0.625  0.394- 171 1.95 231 1.95 172 1.95 232 1.95 173 1.98 174 1.98  59 2.96  79 2.96

  50  0.250  0.750  0.394-  94 1.95 114 1.95 173 1.95 193 1.95 175 1.98 168 1.98  60 2.96  80 2.96

  51  0.250  0.625  0.500- 175 1.95 176 1.95 235 1.95 236 1.95  97 1.98 178 1.98  61 2.96  81 2.96

  52  0.500  0.750  0.500- 177 1.95 178 1.95 197 1.95 198 1.95 172 1.98 179 1.99  62 2.96  82 2.96

  53  0.507  0.623  0.605- 182 1.88 239 1.90 179 1.93 240 1.98 180 2.01 181 2.04  83 2.90  63 2.97

  54  0.256  0.750  0.610- 183 1.87 181 1.92 201 1.92 102 2.02 122 2.02 176 2.10  84 2.96  64 2.96

  55  0.250  0.625  0.720- 184 1.83 244 1.84 105 2.03 186 2.04 183 2.09 243 2.09  65 2.96  85 2.96

  56  0.501  0.750  0.707- 180 1.80 185 1.91 186 1.94 205 1.95 206 1.96  66 2.96  86 2.97
  57  0.250  0.875  0.287- 168 1.95 188 1.95 187 1.95 167 1.95 109 1.98 190 1.98  47 2.96  67 2.96

  58  0.500  0.000  0.287- 189 1.95 190 1.95 209 1.95 210 1.95 191 1.98  68 2.96  48 2.96
  59  0.500  0.875  0.394- 171 1.95 191 1.95 172 1.95 192 1.95 193 1.98 194 1.98  49 2.96  69 2.96

  60  0.250  0.000  0.394- 114 1.95 134 1.95 193 1.95 213 1.95 195 1.98 188 1.98  50 2.96  70 2.96

  61  0.250  0.875  0.500- 175 1.95 176 1.95 195 1.95 196 1.95 117 1.98 198 1.98  51 2.96  71 2.96

  62  0.500  0.000  0.500- 197 1.95 198 1.95 217 1.95 218 1.95 192 1.98 199 1.98  52 2.96  72 2.96

  63  0.507  0.874  0.603- 202 1.88 179 1.88 199 1.90 180 2.00 200 2.03 201 2.04  53 2.97  73 2.98

  64  0.256  1.000  0.611- 203 1.86 201 1.92 221 1.92 142 2.02 122 2.02 196 2.11  54 2.96  74 2.96

  65  0.251  0.875  0.720- 204 1.83 184 1.84 206 2.02 125 2.04 203 2.10 183 2.10  55 2.96  75 2.96

  66  0.499  1.000  0.707- 200 1.80 206 1.94 226 1.94 225 1.96 205 1.96  76 2.95  56 2.96
  67  0.250  0.125  0.287- 188 1.95 208 1.95 207 1.95 187 1.95 129 1.98 210 1.98  57 2.96  77 2.96

  68  0.500  0.250  0.287- 209 1.95 210 1.95 229 1.95 230 1.95 211 1.98  78 2.96  58 2.96
  69  0.500  0.125  0.394- 191 1.95 211 1.95 192 1.95 212 1.95 213 1.98 214 1.98  59 2.96  79 2.96

  70  0.250  0.250  0.394- 134 1.95 154 1.95 213 1.95 233 1.95 215 1.98 208 1.98  60 2.96  80 2.96

  71  0.250  0.125  0.500- 195 1.95 196 1.95 215 1.95 216 1.95 137 1.98 218 1.98  61 2.96  81 2.96

  72  0.500  0.250  0.500- 217 1.95 218 1.95 237 1.95 238 1.95 212 1.98 219 1.99  62 2.96  82 2.96

  73  0.507  0.126  0.603- 222 1.88 219 1.88 199 1.90 220 2.00 200 2.03 221 2.04  83 2.97  63 2.98

  74  0.256  0.250  0.611- 223 1.86 241 1.92 221 1.93 162 2.02 142 2.02 216 2.11  84 2.96  64 2.96

  75  0.251  0.125  0.720- 204 1.83 224 1.84 226 2.02 145 2.04 223 2.10 203 2.10  65 2.96  85 2.96

  76  0.501  0.250  0.707- 220 1.80 245 1.92 246 1.94 225 1.95 226 1.96  66 2.95  86 2.96
  77  0.250  0.375  0.287- 208 1.95 228 1.95 227 1.95 207 1.95 149 1.98 230 1.98  47 2.96  67 2.96

  78  0.500  0.500  0.287- 169 1.95 170 1.95 229 1.95 230 1.95 231 1.98  68 2.96  48 2.96
  79  0.500  0.375  0.394- 211 1.95 231 1.95 212 1.95 232 1.95 233 1.98 234 1.98  49 2.96  69 2.96

  80  0.250  0.500  0.394-  94 1.95 154 1.95 173 1.95 233 1.95 228 1.98 235 1.98  50 2.96  70 2.96

  81  0.250  0.375  0.500- 215 1.95 216 1.95 235 1.95 236 1.95 157 1.98 238 1.98  51 2.96  71 2.96

  82  0.500  0.500  0.500- 177 1.95 178 1.95 237 1.95 238 1.95 232 1.98 239 2.00  52 2.96  72 2.96

  83  0.507  0.377  0.606- 242 1.88 239 1.90 219 1.94 240 1.98 220 2.01 241 2.04  53 2.90  73 2.97

  84  0.256  0.500  0.611- 243 1.86 181 1.92 241 1.93 162 2.02 102 2.02 236 2.11  74 2.96  54 2.96

  85  0.250  0.375  0.720- 224 1.83 244 1.84 165 2.03 246 2.03 223 2.10 243 2.10  75 2.96  55 2.96

  86  0.501  0.499  0.712- 240 1.91 246 1.93 186 1.94 245 1.96 185 1.99   2 2.18  76 2.96  56 2.97

  87  0.750  0.750  0.245-   7 1.95  17 1.95
  88  0.750  0.750  0.329-   7 1.95  17 1.95  10 1.98
  89  0.098  0.625  0.287-   8 1.95  38 1.95  47 1.98
  90  0.902  0.625  0.287-   8 1.95  38 1.95   7 1.98
  91  0.000  0.750  0.352-   9 1.95  19 1.95   8 1.98
  92  0.000  0.750  0.435-   9 1.95  19 1.95  12 1.98
  93  0.848  0.625  0.394-  10 1.95  40 1.95   9 1.98
  94  0.152  0.625  0.394-  50 1.95  80 1.95   9 1.98
  95  0.750  0.750  0.458-  11 1.95  21 1.95  10 1.98
  96  0.750  0.750  0.542-  11 1.95  21 1.95  14 2.09
  97  0.098  0.625  0.500-  12 1.95  42 1.95  51 1.98
  98  0.902  0.625  0.500-  12 1.95  42 1.95  11 1.98
  99  0.001  0.750  0.565-  23 1.90  13 1.90  12 2.00
 100  1.000  0.750  0.649-  16 1.81  13 2.02  23 2.02
 101  0.851  0.625  0.607-  14 1.93  44 1.93  13 2.03
 102  0.150  0.625  0.607-  13 1.87  84 2.02  54 2.02
 103  0.754  0.751  0.671-  14 1.87  15 2.08  25 2.09
 104  0.748  0.749  0.756-  15 1.83  25 1.84
 105  0.095  0.625  0.719-  46 1.94  16 1.95  55 2.03
 106  0.906  0.624  0.720-  46 1.95  16 1.96  15 2.02
 107  0.750  0.000  0.245-  17 1.95  27 1.95
 108  0.750  0.000  0.329-  17 1.95  27 1.95  20 1.98
 109  0.098  0.875  0.287-   8 1.95  18 1.95  57 1.98
 110  0.902  0.875  0.287-   8 1.95  18 1.95  17 1.98
 111  0.000  0.000  0.352-  19 1.95  29 1.95  18 1.98
 112  0.000  0.000  0.435-  19 1.95  29 1.95  22 1.98
 113  0.848  0.875  0.394-  10 1.95  20 1.95  19 1.98
 114  0.152  0.875  0.394-  50 1.95  60 1.95  19 1.98
 115  0.750  0.000  0.458-  21 1.95  31 1.95  20 1.98
 116  0.750  0.000  0.542-  21 1.95  31 1.95  24 2.10
 117  0.098  0.875  0.500-  12 1.95  22 1.95  61 1.98
 118  0.902  0.875  0.500-  12 1.95  22 1.95  21 1.98
 119  0.001  0.000  0.565-  33 1.90  23 1.90  22 2.00
 120  0.000  0.000  0.649-  26 1.81  33 2.02  23 2.02
 121  0.851  0.876  0.607-  24 1.93  14 1.93  23 2.04
 122  0.150  0.875  0.607-  23 1.87  54 2.02  64 2.02
 123  0.751  0.000  0.672-  24 1.87  35 2.09  25 2.09
 124  0.750  1.000  0.756-  35 1.83  25 1.84
 125  0.094  0.875  0.719-  16 1.94  26 1.95  65 2.04
 126  0.906  0.875  0.719-  16 1.94  26 1.95  25 2.04
 127  0.750  0.250  0.245-  27 1.95  37 1.95
 128  0.750  0.250  0.329-  27 1.95  37 1.95  30 1.98
 129  0.098  0.125  0.287-  18 1.95  28 1.95  67 1.98
 130  0.902  0.125  0.287-  18 1.95  28 1.95  27 1.98
 131  0.000  0.250  0.352-  29 1.95  39 1.95  28 1.98
 132  0.000  0.250  0.435-  29 1.95  39 1.95  32 1.98
 133  0.848  0.125  0.394-  20 1.95  30 1.95  29 1.98
 134  0.152  0.125  0.394-  60 1.95  70 1.95  29 1.98
 135  0.750  0.250  0.458-  31 1.95  41 1.95  30 1.98
 136  0.750  0.250  0.542-  31 1.95  41 1.95  34 2.09
 137  0.098  0.125  0.500-  22 1.95  32 1.95  71 1.98
 138  0.902  0.125  0.500-  22 1.95  32 1.95  31 1.98
 139  0.001  0.250  0.565-  43 1.90  33 1.90  32 2.00
 140  0.000  0.250  0.649-  36 1.81  43 2.02  33 2.02
 141  0.851  0.125  0.607-  24 1.93  34 1.93  33 2.04
 142  0.150  0.125  0.607-  33 1.86  64 2.02  74 2.02
 143  0.753  0.250  0.671-  34 1.87  45 2.06  35 2.10
 144  0.749  0.251  0.756-  45 1.83  35 1.84
 145  0.094  0.125  0.719-  36 1.94  26 1.95  75 2.04
 146  0.906  0.125  0.719-  36 1.94  26 1.95  35 2.04
 147  0.750  0.500  0.245-   7 1.95  37 1.95
 148  0.750  0.500  0.329-   7 1.95  37 1.95  40 1.98
 149  0.098  0.375  0.287-  28 1.95  38 1.95  77 1.98
 150  0.902  0.375  0.287-  28 1.95  38 1.95  37 1.98
 151  0.000  0.500  0.352-   9 1.95  39 1.95  38 1.98
 152  0.000  0.500  0.435-   9 1.95  39 1.95  42 1.98
 153  0.848  0.375  0.394-  30 1.95  40 1.95  39 1.98
 154  0.152  0.375  0.394-  70 1.95  80 1.95  39 1.98
 155  0.750  0.500  0.458-  11 1.95  41 1.95  40 1.98
 156  0.750  0.500  0.542-  11 1.95  41 1.95  44 2.10
 157  0.098  0.375  0.500-  32 1.95  42 1.95  81 1.98
 158  0.902  0.375  0.500-  32 1.95  42 1.95  41 1.98
 159  0.001  0.500  0.565-  43 1.90  13 1.90  42 2.00
 160  0.000  0.500  0.649-  46 1.81  13 2.02  43 2.02
 161  0.851  0.375  0.607-  34 1.93  44 1.93  43 2.03
 162  0.150  0.375  0.607-  43 1.87  84 2.02  74 2.02
 163  0.755  0.500  0.671-  44 1.86  15 2.09  45 2.10
 164  0.740  0.500  0.756-  15 1.87  45 1.87
 165  0.095  0.375  0.719-  46 1.94  36 1.95  85 2.03
 166  0.906  0.376  0.720-  46 1.95  36 1.96  45 2.01
 167  0.250  0.750  0.245-  47 1.95  57 1.95
 168  0.250  0.750  0.329-  47 1.95  57 1.95  50 1.98
 169  0.598  0.625  0.287-  48 1.95  78 1.95   7 1.98
 170  0.402  0.625  0.287-  48 1.95  78 1.95  47 1.98
 171  0.500  0.750  0.352-  49 1.95  59 1.95  48 1.98
 172  0.500  0.750  0.435-  49 1.95  59 1.95  52 1.98
 173  0.348  0.625  0.394-  50 1.95  80 1.95  49 1.98
 174  0.652  0.625  0.394-  10 1.95  40 1.95  49 1.98
 175  0.250  0.750  0.458-  51 1.95  61 1.95  50 1.98
 176  0.250  0.750  0.542-  51 1.95  61 1.95  54 2.10
 177  0.598  0.625  0.500-  52 1.95  82 1.95  11 1.98
 178  0.402  0.625  0.500-  52 1.95  82 1.95  51 1.98
 179  0.501  0.749  0.565-  63 1.88  53 1.93  52 1.99
 180  0.498  0.752  0.648-  56 1.80  63 2.00  53 2.01
 181  0.350  0.625  0.607-  54 1.92  84 1.92  53 2.04
 182  0.651  0.625  0.608-  53 1.88  14 2.01  44 2.02
 183  0.251  0.750  0.672-  54 1.87  55 2.09  65 2.10
 184  0.251  0.750  0.756-  55 1.83  65 1.84
 185  0.597  0.630  0.714-  56 1.91  86 1.99  15 2.00
 186  0.408  0.626  0.719-  86 1.94  56 1.94  55 2.04
 187  0.250  0.000  0.245-  57 1.95  67 1.95
 188  0.250  0.000  0.329-  57 1.95  67 1.95  60 1.98
 189  0.598  0.875  0.287-  48 1.95  58 1.95  17 1.98
 190  0.402  0.875  0.287-  48 1.95  58 1.95  57 1.98
 191  0.500  0.000  0.352-  59 1.95  69 1.95  58 1.98
 192  0.500  0.000  0.435-  59 1.95  69 1.95  62 1.98
 193  0.348  0.875  0.394-  50 1.95  60 1.95  59 1.98
 194  0.652  0.875  0.394-  10 1.95  20 1.95  59 1.98
 195  0.250  0.000  0.458-  61 1.95  71 1.95  60 1.98
 196  0.250  0.000  0.542-  61 1.95  71 1.95  64 2.11
 197  0.598  0.875  0.500-  52 1.95  62 1.95  21 1.98
 198  0.402  0.875  0.500-  52 1.95  62 1.95  61 1.98
 199  0.500  0.000  0.565-  63 1.90  73 1.90  62 1.98
 200  0.500  1.000  0.648-  66 1.80  63 2.03  73 2.03
 201  0.350  0.875  0.607-  64 1.92  54 1.92  63 2.04
 202  0.651  0.875  0.607-  63 1.88  14 2.01  24 2.02
 203  0.250  1.000  0.672-  64 1.86  65 2.10  75 2.10
 204  0.250  0.000  0.756-  65 1.83  75 1.83
 205  0.595  0.875  0.718-  56 1.95  66 1.96  25 2.02
 206  0.406  0.876  0.718-  66 1.94  56 1.96  65 2.02
 207  0.250  0.250  0.245-  67 1.95  77 1.95
 208  0.250  0.250  0.329-  67 1.95  77 1.95  70 1.98
 209  0.598  0.125  0.287-  58 1.95  68 1.95  27 1.98
 210  0.402  0.125  0.287-  58 1.95  68 1.95  67 1.98
 211  0.500  0.250  0.352-  69 1.95  79 1.95  68 1.98
 212  0.500  0.250  0.435-  69 1.95  79 1.95  72 1.98
 213  0.348  0.125  0.394-  60 1.95  70 1.95  69 1.98
 214  0.652  0.125  0.394-  20 1.95  30 1.95  69 1.98
 215  0.250  0.250  0.458-  71 1.95  81 1.95  70 1.98
 216  0.250  0.250  0.542-  71 1.95  81 1.95  74 2.11
 217  0.598  0.125  0.500-  62 1.95  72 1.95  31 1.98
 218  0.402  0.125  0.500-  62 1.95  72 1.95  71 1.98
 219  0.501  0.251  0.565-  73 1.88  83 1.94  72 1.99
 220  0.499  0.248  0.648-  76 1.80  73 2.00  83 2.01
 221  0.350  0.125  0.607-  64 1.92  74 1.93  73 2.04
 222  0.651  0.125  0.607-  73 1.88  34 2.01  24 2.01
 223  0.250  0.250  0.672-  74 1.86  75 2.10  85 2.10
 224  0.251  0.250  0.756-  85 1.83  75 1.84
 225  0.595  0.125  0.718-  76 1.95  66 1.96  35 2.02
 226  0.406  0.124  0.718-  66 1.94  76 1.96  75 2.02
 227  0.250  0.500  0.245-  47 1.95  77 1.95
 228  0.250  0.500  0.329-  47 1.95  77 1.95  80 1.98
 229  0.598  0.375  0.287-  68 1.95  78 1.95  37 1.98
 230  0.402  0.375  0.287-  68 1.95  78 1.95  77 1.98
 231  0.500  0.500  0.352-  49 1.95  79 1.95  78 1.98
 232  0.500  0.500  0.435-  49 1.95  79 1.95  82 1.98
 233  0.348  0.375  0.394-  70 1.95  80 1.95  79 1.98
 234  0.652  0.375  0.394-  30 1.95  40 1.95  79 1.98
 235  0.250  0.500  0.458-  51 1.95  81 1.95  80 1.98
 236  0.250  0.500  0.542-  51 1.95  81 1.95  84 2.11
 237  0.598  0.375  0.500-  72 1.95  82 1.95  41 1.98
 238  0.402  0.375  0.500-  72 1.95  82 1.95  81 1.98
 239  0.501  0.500  0.566-  53 1.90  83 1.90  82 2.00
 240  0.500  0.500  0.650-  86 1.91  53 1.98  83 1.98
 241  0.350  0.375  0.607-  74 1.92  84 1.93  83 2.04
 242  0.651  0.375  0.608-  83 1.88  34 2.01  44 2.02
 243  0.250  0.500  0.672-  84 1.86  55 2.09  85 2.10
 244  0.252  0.500  0.756-  85 1.84  55 1.84
 245  0.597  0.371  0.715-  76 1.92  86 1.96  45 2.02
 246  0.407  0.374  0.718-  86 1.93  76 1.94  85 2.03
 

IMPORTANT INFORMATION: All symmetrisations will be switched off!
NOSYMM: (Re-)initialisation of all symmetry stuff for point group C_1.


----------------------------------------------------------------------------------------

                                     Primitive cell                                     

  volume of cell :    4700.2961

  direct lattice vectors                    reciprocal lattice vectors
    13.003980404  0.000000000  0.000000000     0.076899531  0.000000000  0.000000000
     0.000000000 11.830378115  0.000000000     0.000000000  0.084528152  0.000000000
     0.000000000  0.000000000 30.552748813     0.000000000  0.000000000  0.032730279

  length of vectors
    13.003980404 11.830378115 30.552748813     0.076899531  0.084528152  0.032730279

  position of ions in fractional coordinates (direct lattice)
     0.510331046  0.587956007  0.811456567
     0.538671440  0.497713104  0.781633741
     0.426741788  0.597312864  0.809779257
     0.615374851  0.493003635  0.780229999
     0.533730470  0.564408842  0.844772367
     0.548744893  0.667393848  0.802204187
     0.750000000  0.625000000  0.287188045
     0.000000000  0.750000000  0.287188045
     0.000000000  0.625000000  0.393594023
     0.750000000  0.750000000  0.393594023
     0.750000000  0.625000000  0.500000000
     0.000000000  0.750000000  0.500000000
     0.006993774  0.625073986  0.604046202
     0.756133557  0.750114422  0.610207977
     0.750759752  0.625797847  0.719102266
     0.999978673  0.750342000  0.708177627
     0.750000000  0.875000000  0.287188045
     0.000000000  0.000000000  0.287188045
     0.000000000  0.875000000  0.393594023
     0.750000000  0.000000000  0.393594023
     0.750000000  0.875000000  0.500000000
     0.000000000  0.000000000  0.500000000
     0.007105127  0.875049078  0.604101504
     0.755700079  0.000050128  0.610520273
     0.749628850  0.874940193  0.720168330
     0.000248360  0.999945581  0.708144814
     0.750000000  0.125000000  0.287188045
     0.000000000  0.250000000  0.287188045
     0.000000000  0.125000000  0.393594023
     0.750000000  0.250000000  0.393594023
     0.750000000  0.125000000  0.500000000
     0.000000000  0.250000000  0.500000000
     0.007272160  0.124967895  0.604110878
     0.756020659  0.249869324  0.610140302
     0.749590896  0.124216859  0.720174278
     0.000192105  0.249631163  0.708168764
     0.750000000  0.375000000  0.287188045
     0.000000000  0.500000000  0.287188045
     0.000000000  0.375000000  0.393594023
     0.750000000  0.500000000  0.393594023
     0.750000000  0.375000000  0.500000000
     0.000000000  0.500000000  0.500000000
     0.006984987  0.374982529  0.604028350
     0.756360084  0.500008577  0.610371278
     0.751441947  0.373222885  0.719136832
     0.000822413  0.500125693  0.708109682
     0.250000000  0.625000000  0.287188045
     0.500000000  0.750000000  0.287188045
     0.500000000  0.625000000  0.393594023
     0.250000000  0.750000000  0.393594023
     0.250000000  0.625000000  0.500000000
     0.500000000  0.750000000  0.500000000
     0.507162857  0.622674843  0.605370118
     0.256146052  0.749992212  0.610460436
     0.250336699  0.625322801  0.720069271
     0.500758605  0.750128350  0.706878545
     0.250000000  0.875000000  0.287188045
     0.500000000  0.000000000  0.287188045
     0.500000000  0.875000000  0.393594023
     0.250000000  0.000000000  0.393594023
     0.250000000  0.875000000  0.500000000
     0.500000000  0.000000000  0.500000000
     0.507083618  0.874027206  0.603027326
     0.256004148  0.999990077  0.610576970
     0.251039654  0.875163053  0.720262046
     0.499486054  0.999974098  0.707124768
     0.250000000  0.125000000  0.287188045
     0.500000000  0.250000000  0.287188045
     0.500000000  0.125000000  0.393594023
     0.250000000  0.250000000  0.393594023
     0.250000000  0.125000000  0.500000000
     0.500000000  0.250000000  0.500000000
     0.506947780  0.126158046  0.603135701
     0.256059418  0.250139164  0.610565047
     0.250828751  0.125040888  0.720228214
     0.500662990  0.249742204  0.707249763
     0.250000000  0.375000000  0.287188045
     0.500000000  0.500000000  0.287188045
     0.500000000  0.375000000  0.393594023
     0.250000000  0.500000000  0.393594023
     0.250000000  0.375000000  0.500000000
     0.500000000  0.500000000  0.500000000
     0.507134435  0.377364860  0.605557422
     0.255708164  0.500065870  0.610602186
     0.250326702  0.375025466  0.720203536
     0.500756877  0.499470884  0.712074479
     0.750000000  0.750000000  0.245477094
     0.750000000  0.750000000  0.328898996
     0.097999548  0.625000000  0.287188045
     0.902000452  0.625000000  0.287188045
     0.000000000  0.750000000  0.351883072
     0.000000000  0.750000000  0.435304973
     0.847999548  0.625000000  0.393594023
     0.152000452  0.625000000  0.393594023
     0.750000000  0.750000000  0.458289049
     0.750000000  0.750000000  0.541710951
     0.097999548  0.625000000  0.500000000
     0.902000452  0.625000000  0.500000000
     0.000615644  0.750151725  0.565324429
     0.999880055  0.749849025  0.649067897
     0.850906167  0.625290898  0.606562138
     0.150469956  0.625204486  0.607029998
     0.753940980  0.750900793  0.671404483
     0.748495082  0.748910957  0.755559228
     0.094583664  0.625127146  0.718791808
     0.906251560  0.624285174  0.719686922
     0.750000000  0.000000000  0.245477094
     0.750000000  0.000000000  0.328898996
     0.097999548  0.875000000  0.287188045
     0.902000452  0.875000000  0.287188045
     0.000000000  0.000000000  0.351883072
     0.000000000  0.000000000  0.435304973
     0.847999548  0.875000000  0.393594023
     0.152000452  0.875000000  0.393594023
     0.750000000  0.000000000  0.458289049
     0.750000000  0.000000000  0.541710951
     0.097999548  0.875000000  0.500000000
     0.902000452  0.875000000  0.500000000
     0.000682385  0.000026813  0.565338635
     0.000247765  0.000016497  0.649040569
     0.850688897  0.875516295  0.606877656
     0.150463510  0.874886358  0.607121453
     0.750905919  0.000042456  0.671706932
     0.750102757  0.999777503  0.755869917
     0.094382871  0.874549383  0.718552585
     0.906260447  0.875021857  0.719161215
     0.750000000  0.250000000  0.245477094
     0.750000000  0.250000000  0.328898996
     0.097999548  0.125000000  0.287188045
     0.902000452  0.125000000  0.287188045
     0.000000000  0.250000000  0.351883072
     0.000000000  0.250000000  0.435304973
     0.847999548  0.125000000  0.393594023
     0.152000452  0.125000000  0.393594023
     0.750000000  0.250000000  0.458289049
     0.750000000  0.250000000  0.541710951
     0.097999548  0.125000000  0.500000000
     0.902000452  0.125000000  0.500000000
     0.000594458  0.249884179  0.565331516
     0.000046012  0.250192028  0.649073596
     0.850623896  0.124733471  0.606968538
     0.150460516  0.125032257  0.607028445
     0.753114175  0.249795904  0.671440357
     0.749299467  0.250631071  0.755500054
     0.094250770  0.125326590  0.718678543
     0.906206091  0.124979667  0.718960367
     0.750000000  0.500000000  0.245477094
     0.750000000  0.500000000  0.328898996
     0.097999548  0.375000000  0.287188045
     0.902000452  0.375000000  0.287188045
     0.000000000  0.500000000  0.351883072
     0.000000000  0.500000000  0.435304973
     0.847999548  0.375000000  0.393594023
     0.152000452  0.375000000  0.393594023
     0.750000000  0.500000000  0.458289049
     0.750000000  0.500000000  0.541710951
     0.097999548  0.375000000  0.500000000
     0.902000452  0.375000000  0.500000000
     0.000711837  0.500024658  0.565311345
     0.000093537  0.500040047  0.649009457
     0.850890441  0.374717535  0.606589777
     0.150481257  0.374977112  0.607008893
     0.755446116  0.500065496  0.671264341
     0.739605783  0.499859698  0.755610271
     0.094500812  0.375093184  0.718786457
     0.906287798  0.375724569  0.719662355
     0.250000000  0.750000000  0.245477094
     0.250000000  0.750000000  0.328898996
     0.597999548  0.625000000  0.287188045
     0.402000452  0.625000000  0.287188045
     0.500000000  0.750000000  0.351883072
     0.500000000  0.750000000  0.435304973
     0.347999548  0.625000000  0.393594023
     0.652000452  0.625000000  0.393594023
     0.250000000  0.750000000  0.458289049
     0.250000000  0.750000000  0.541710951
     0.597999548  0.625000000  0.500000000
     0.402000452  0.625000000  0.500000000
     0.500817049  0.748794576  0.565136117
     0.498058711  0.751631840  0.647994695
     0.350072833  0.624919736  0.606983878
     0.651289387  0.625309938  0.607548003
     0.251299759  0.749734257  0.671563240
     0.250923658  0.749841388  0.755826028
     0.597218859  0.629836769  0.713507024
     0.407567280  0.625641522  0.719239697
     0.250000000  0.000000000  0.245477094
     0.250000000  0.000000000  0.328898996
     0.597999548  0.875000000  0.287188045
     0.402000452  0.875000000  0.287188045
     0.500000000  0.000000000  0.351883072
     0.500000000  0.000000000  0.435304973
     0.347999548  0.875000000  0.393594023
     0.652000452  0.875000000  0.393594023
     0.250000000  0.000000000  0.458289049
     0.250000000  0.000000000  0.541710951
     0.597999548  0.875000000  0.500000000
     0.402000452  0.875000000  0.500000000
     0.500411853  0.000153594  0.564859564
     0.500313159  0.999954189  0.648256401
     0.350145731  0.875259307  0.606698772
     0.650976788  0.874850565  0.606937819
     0.250398031  0.999970649  0.671537684
     0.249740186  0.000045268  0.755786521
     0.594530483  0.874909592  0.718125345
     0.406093554  0.875992683  0.718461482
     0.250000000  0.250000000  0.245477094
     0.250000000  0.250000000  0.328898996
     0.597999548  0.125000000  0.287188045
     0.402000452  0.125000000  0.287188045
     0.500000000  0.250000000  0.351883072
     0.500000000  0.250000000  0.435304973
     0.347999548  0.125000000  0.393594023
     0.652000452  0.125000000  0.393594023
     0.250000000  0.250000000  0.458289049
     0.250000000  0.250000000  0.541710951
     0.597999548  0.125000000  0.500000000
     0.402000452  0.125000000  0.500000000
     0.500741738  0.251373525  0.565249602
     0.499125970  0.248430626  0.648287452
     0.350242985  0.124918128  0.606846442
     0.651012287  0.125185125  0.606912983
     0.250310268  0.249985933  0.671530308
     0.250696189  0.250246931  0.755742290
     0.594578165  0.124797019  0.718169900
     0.406007380  0.124344726  0.718328016
     0.250000000  0.500000000  0.245477094
     0.250000000  0.500000000  0.328898996
     0.597999548  0.375000000  0.287188045
     0.402000452  0.375000000  0.287188045
     0.500000000  0.500000000  0.351883072
     0.500000000  0.500000000  0.435304973
     0.347999548  0.375000000  0.393594023
     0.652000452  0.375000000  0.393594023
     0.250000000  0.500000000  0.458289049
     0.250000000  0.500000000  0.541710951
     0.597999548  0.375000000  0.500000000
     0.402000452  0.375000000  0.500000000
     0.500907707  0.499897338  0.565520620
     0.499945957  0.500351109  0.649525778
     0.350131684  0.375057394  0.607190442
     0.651263466  0.374989739  0.607526633
     0.250216959  0.500342565  0.671574508
     0.252067876  0.500246127  0.755740575
     0.596688626  0.371476091  0.714507138
     0.406527982  0.374096473  0.717865471

  ion indices of the primitive-cell ions
   primitive index   ion index
                 1           1
                 2           2
                 3           3
                 4           4
                 5           5
                 6           6
                 7           7
                 8           8
                 9           9
                10          10
                11          11
                12          12
                13          13
                14          14
                15          15
                16          16
                17          17
                18          18
                19          19
                20          20
                21          21
                22          22
                23          23
                24          24
                25          25
                26          26
                27          27
                28          28
                29          29
                30          30
                31          31
                32          32
                33          33
                34          34
                35          35
                36          36
                37          37
                38          38
                39          39
                40          40
                41          41
                42          42
                43          43
                44          44
                45          45
                46          46
                47          47
                48          48
                49          49
                50          50
                51          51
                52          52
                53          53
                54          54
                55          55
                56          56
                57          57
                58          58
                59          59
                60          60
                61          61
                62          62
                63          63
                64          64
                65          65
                66          66
                67          67
                68          68
                69          69
                70          70
                71          71
                72          72
                73          73
                74          74
                75          75
                76          76
                77          77
                78          78
                79          79
                80          80
                81          81
                82          82
                83          83
                84          84
                85          85
                86          86
                87          87
                88          88
                89          89
                90          90
                91          91
                92          92
                93          93
                94          94
                95          95
                96          96
                97          97
                98          98
                99          99
               100         100
               101         101
               102         102
               103         103
               104         104
               105         105
               106         106
               107         107
               108         108
               109         109
               110         110
               111         111
               112         112
               113         113
               114         114
               115         115
               116         116
               117         117
               118         118
               119         119
               120         120
               121         121
               122         122
               123         123
               124         124
               125         125
               126         126
               127         127
               128         128
               129         129
               130         130
               131         131
               132         132
               133         133
               134         134
               135         135
               136         136
               137         137
               138         138
               139         139
               140         140
               141         141
               142         142
               143         143
               144         144
               145         145
               146         146
               147         147
               148         148
               149         149
               150         150
               151         151
               152         152
               153         153
               154         154
               155         155
               156         156
               157         157
               158         158
               159         159
               160         160
               161         161
               162         162
               163         163
               164         164
               165         165
               166         166
               167         167
               168         168
               169         169
               170         170
               171         171
               172         172
               173         173
               174         174
               175         175
               176         176
               177         177
               178         178
               179         179
               180         180
               181         181
               182         182
               183         183
               184         184
               185         185
               186         186
               187         187
               188         188
               189         189
               190         190
               191         191
               192         192
               193         193
               194         194
               195         195
               196         196
               197         197
               198         198
               199         199
               200         200
               201         201
               202         202
               203         203
               204         204
               205         205
               206         206
               207         207
               208         208
               209         209
               210         210
               211         211
               212         212
               213         213
               214         214
               215         215
               216         216
               217         217
               218         218
               219         219
               220         220
               221         221
               222         222
               223         223
               224         224
               225         225
               226         226
               227         227
               228         228
               229         229
               230         230
               231         231
               232         232
               233         233
               234         234
               235         235
               236         236
               237         237
               238         238
               239         239
               240         240
               241         241
               242         242
               243         243
               244         244
               245         245
               246         246

----------------------------------------------------------------------------------------

 
 
 KPOINTS: pymatgen v2020.8.13 with grid density = 

Automatic generation of k-mesh.
 Grid dimensions read from file:
 generate k-points for:    2    2    1

 Generating k-lattice:

  Cartesian coordinates                     Fractional coordinates (reciprocal lattice)
     0.038449766  0.000000000  0.000000000     0.500000000  0.000000000  0.000000000
     0.000000000  0.042264076  0.000000000     0.000000000  0.500000000  0.000000000
     0.000000000  0.000000000  0.032730279     0.000000000  0.000000000  1.000000000

  Length of vectors
     0.038449766  0.042264076  0.032730279

  Shift w.r.t. Gamma in fractional coordinates (k-lattice)
     0.000000000  0.000000000  0.000000000

 
 Subroutine IBZKPT returns following result:
 ===========================================
 
 Found      4 irreducible k-points:
 
 Following reciprocal coordinates:
            Coordinates               Weight
  0.000000  0.000000  0.000000      1.000000
  0.500000  0.000000  0.000000      1.000000
  0.000000  0.500000  0.000000      1.000000
  0.500000  0.500000  0.000000      1.000000
 
 Following cartesian coordinates:
            Coordinates               Weight
  0.000000  0.000000  0.000000      1.000000
  0.038450  0.000000  0.000000      1.000000
  0.000000  0.042264  0.000000      1.000000
  0.038450  0.042264  0.000000      1.000000
 


--------------------------------------------------------------------------------------------------------




 Dimension of arrays:
   k-points           NKPTS =      4   k-points in BZ     NKDIM =      4   number of bands    NBANDS=   1064
   number of dos      NEDOS =    301   number of ions     NIONS =    246
   non local maximal  LDIM  =      6   non local SUM 2l+1 LMDIM =     18
   total plane-waves  NPLWV = ******
   max r-space proj   IRMAX =      1   max aug-charges    IRDMAX=  21607
   dimension x,y,z NGX =   108 NGY =   96 NGZ =  250
   dimension x,y,z NGXF=   216 NGYF=  192 NGZF=  500
   support grid    NGXF=   216 NGYF=  192 NGZF=  500
   ions per type =               1   1   4  80 160
   NGX,Y,Z   is equivalent  to a cutoff of  13.81, 13.49, 13.60 a.u.
   NGXF,Y,Z  is equivalent  to a cutoff of  27.61, 26.98, 27.21 a.u.

 SYSTEM =  TiO2                                    
 POSCAR =   C  O  H Ti  O                          

--------------------------------------------------------------------------------------------------------


  energy-cutoff  :      600.00
  volume of cell :     4700.30
      direct lattice vectors                 reciprocal lattice vectors
    13.003980404  0.000000000  0.000000000     0.076899531  0.000000000  0.000000000
     0.000000000 11.830378115  0.000000000     0.000000000  0.084528152  0.000000000
     0.000000000  0.000000000 30.552748813     0.000000000  0.000000000  0.032730279

  length of vectors
    13.003980404 11.830378115 30.552748813     0.076899531  0.084528152  0.032730279


 
 k-points in units of 2pi/SCALE and weight: pymatgen v2020.8.13 with grid density = 
   0.00000000  0.00000000  0.00000000       0.250
   0.03844977  0.00000000  0.00000000       0.250
   0.00000000  0.04226408  0.00000000       0.250
   0.03844977  0.04226408  0.00000000       0.250
 
 k-points in reciprocal lattice and weights: pymatgen v2020.8.13 with grid density = 
   0.00000000  0.00000000  0.00000000       0.250
   0.50000000  0.00000000  0.00000000       0.250
   0.00000000  0.50000000  0.00000000       0.250
   0.50000000  0.50000000  0.00000000       0.250
 
 position of ions in fractional coordinates (direct lattice) 
   0.51033105  0.58795601  0.81145657
   0.53867144  0.49771310  0.78163374
   0.42674179  0.59731286  0.80977926
   0.61537485  0.49300363  0.78023000
   0.53373047  0.56440884  0.84477237
   0.54874489  0.66739385  0.80220419
   0.75000000  0.62500000  0.28718805
   0.00000000  0.75000000  0.28718805
   0.00000000  0.62500000  0.39359402
   0.75000000  0.75000000  0.39359402
   0.75000000  0.62500000  0.50000000
   0.00000000  0.75000000  0.50000000
   0.00699377  0.62507399  0.60404620
   0.75613356  0.75011442  0.61020798
   0.75075975  0.62579785  0.71910227
   0.99997867  0.75034200  0.70817763
   0.75000000  0.87500000  0.28718805
   0.00000000  0.00000000  0.28718805
   0.00000000  0.87500000  0.39359402
   0.75000000  0.00000000  0.39359402
   0.75000000  0.87500000  0.50000000
   0.00000000  0.00000000  0.50000000
   0.00710513  0.87504908  0.60410150
   0.75570008  0.00005013  0.61052027
   0.74962885  0.87494019  0.72016833
   0.00024836  0.99994558  0.70814481
   0.75000000  0.12500000  0.28718805
   0.00000000  0.25000000  0.28718805
   0.00000000  0.12500000  0.39359402
   0.75000000  0.25000000  0.39359402
   0.75000000  0.12500000  0.50000000
   0.00000000  0.25000000  0.50000000
   0.00727216  0.12496790  0.60411088
   0.75602066  0.24986932  0.61014030
   0.74959090  0.12421686  0.72017428
   0.00019211  0.24963116  0.70816876
   0.75000000  0.37500000  0.28718805
   0.00000000  0.50000000  0.28718805
   0.00000000  0.37500000  0.39359402
   0.75000000  0.50000000  0.39359402
   0.75000000  0.37500000  0.50000000
   0.00000000  0.50000000  0.50000000
   0.00698499  0.37498253  0.60402835
   0.75636008  0.50000858  0.61037128
   0.75144195  0.37322288  0.71913683
   0.00082241  0.50012569  0.70810968
   0.25000000  0.62500000  0.28718805
   0.50000000  0.75000000  0.28718805
   0.50000000  0.62500000  0.39359402
   0.25000000  0.75000000  0.39359402
   0.25000000  0.62500000  0.50000000
   0.50000000  0.75000000  0.50000000
   0.50716286  0.62267484  0.60537012
   0.25614605  0.74999221  0.61046044
   0.25033670  0.62532280  0.72006927
   0.50075861  0.75012835  0.70687855
   0.25000000  0.87500000  0.28718805
   0.50000000  0.00000000  0.28718805
   0.50000000  0.87500000  0.39359402
   0.25000000  0.00000000  0.39359402
   0.25000000  0.87500000  0.50000000
   0.50000000  0.00000000  0.50000000
   0.50708362  0.87402721  0.60302733
   0.25600415  0.99999008  0.61057697
   0.25103965  0.87516305  0.72026205
   0.49948605  0.99997410  0.70712477
   0.25000000  0.12500000  0.28718805
   0.50000000  0.25000000  0.28718805
   0.50000000  0.12500000  0.39359402
   0.25000000  0.25000000  0.39359402
   0.25000000  0.12500000  0.50000000
   0.50000000  0.25000000  0.50000000
   0.50694778  0.12615805  0.60313570
   0.25605942  0.25013916  0.61056505
   0.25082875  0.12504089  0.72022821
   0.50066299  0.24974220  0.70724976
   0.25000000  0.37500000  0.28718805
   0.50000000  0.50000000  0.28718805
   0.50000000  0.37500000  0.39359402
   0.25000000  0.50000000  0.39359402
   0.25000000  0.37500000  0.50000000
   0.50000000  0.50000000  0.50000000
   0.50713444  0.37736486  0.60555742
   0.25570816  0.50006587  0.61060219
   0.25032670  0.37502547  0.72020354
   0.50075688  0.49947088  0.71207448
   0.75000000  0.75000000  0.24547709
   0.75000000  0.75000000  0.32889900
   0.09799955  0.62500000  0.28718805
   0.90200045  0.62500000  0.28718805
   0.00000000  0.75000000  0.35188307
   0.00000000  0.75000000  0.43530497
   0.84799955  0.62500000  0.39359402
   0.15200045  0.62500000  0.39359402
   0.75000000  0.75000000  0.45828905
   0.75000000  0.75000000  0.54171095
   0.09799955  0.62500000  0.50000000
   0.90200045  0.62500000  0.50000000
   0.00061564  0.75015172  0.56532443
   0.99988005  0.74984903  0.64906790
   0.85090617  0.62529090  0.60656214
   0.15046996  0.62520449  0.60703000
   0.75394098  0.75090079  0.67140448
   0.74849508  0.74891096  0.75555923
   0.09458366  0.62512715  0.71879181
   0.90625156  0.62428517  0.71968692
   0.75000000  0.00000000  0.24547709
   0.75000000  0.00000000  0.32889900
   0.09799955  0.87500000  0.28718805
   0.90200045  0.87500000  0.28718805
   0.00000000  0.00000000  0.35188307
   0.00000000  0.00000000  0.43530497
   0.84799955  0.87500000  0.39359402
   0.15200045  0.87500000  0.39359402
   0.75000000  0.00000000  0.45828905
   0.75000000  0.00000000  0.54171095
   0.09799955  0.87500000  0.50000000
   0.90200045  0.87500000  0.50000000
   0.00068238  0.00002681  0.56533863
   0.00024777  0.00001650  0.64904057
   0.85068890  0.87551630  0.60687766
   0.15046351  0.87488636  0.60712145
   0.75090592  0.00004246  0.67170693
   0.75010276  0.99977750  0.75586992
   0.09438287  0.87454938  0.71855259
   0.90626045  0.87502186  0.71916121
   0.75000000  0.25000000  0.24547709
   0.75000000  0.25000000  0.32889900
   0.09799955  0.12500000  0.28718805
   0.90200045  0.12500000  0.28718805
   0.00000000  0.25000000  0.35188307
   0.00000000  0.25000000  0.43530497
   0.84799955  0.12500000  0.39359402
   0.15200045  0.12500000  0.39359402
   0.75000000  0.25000000  0.45828905
   0.75000000  0.25000000  0.54171095
   0.09799955  0.12500000  0.50000000
   0.90200045  0.12500000  0.50000000
   0.00059446  0.24988418  0.56533152
   0.00004601  0.25019203  0.64907360
   0.85062390  0.12473347  0.60696854
   0.15046052  0.12503226  0.60702845
   0.75311417  0.24979590  0.67144036
   0.74929947  0.25063107  0.75550005
   0.09425077  0.12532659  0.71867854
   0.90620609  0.12497967  0.71896037
   0.75000000  0.50000000  0.24547709
   0.75000000  0.50000000  0.32889900
   0.09799955  0.37500000  0.28718805
   0.90200045  0.37500000  0.28718805
   0.00000000  0.50000000  0.35188307
   0.00000000  0.50000000  0.43530497
   0.84799955  0.37500000  0.39359402
   0.15200045  0.37500000  0.39359402
   0.75000000  0.50000000  0.45828905
   0.75000000  0.50000000  0.54171095
   0.09799955  0.37500000  0.50000000
   0.90200045  0.37500000  0.50000000
   0.00071184  0.50002466  0.56531135
   0.00009354  0.50004005  0.64900946
   0.85089044  0.37471754  0.60658978
   0.15048126  0.37497711  0.60700889
   0.75544612  0.50006550  0.67126434
   0.73960578  0.49985970  0.75561027
   0.09450081  0.37509318  0.71878646
   0.90628780  0.37572457  0.71966235
   0.25000000  0.75000000  0.24547709
   0.25000000  0.75000000  0.32889900
   0.59799955  0.62500000  0.28718805
   0.40200045  0.62500000  0.28718805
   0.50000000  0.75000000  0.35188307
   0.50000000  0.75000000  0.43530497
   0.34799955  0.62500000  0.39359402
   0.65200045  0.62500000  0.39359402
   0.25000000  0.75000000  0.45828905
   0.25000000  0.75000000  0.54171095
   0.59799955  0.62500000  0.50000000
   0.40200045  0.62500000  0.50000000
   0.50081705  0.74879458  0.56513612
   0.49805871  0.75163184  0.64799470
   0.35007283  0.62491974  0.60698388
   0.65128939  0.62530994  0.60754800
   0.25129976  0.74973426  0.67156324
   0.25092366  0.74984139  0.75582603
   0.59721886  0.62983677  0.71350702
   0.40756728  0.62564152  0.71923970
   0.25000000  0.00000000  0.24547709
   0.25000000  0.00000000  0.32889900
   0.59799955  0.87500000  0.28718805
   0.40200045  0.87500000  0.28718805
   0.50000000  0.00000000  0.35188307
   0.50000000  0.00000000  0.43530497
   0.34799955  0.87500000  0.39359402
   0.65200045  0.87500000  0.39359402
   0.25000000  0.00000000  0.45828905
   0.25000000  0.00000000  0.54171095
   0.59799955  0.87500000  0.50000000
   0.40200045  0.87500000  0.50000000
   0.50041185  0.00015359  0.56485956
   0.50031316  0.99995419  0.64825640
   0.35014573  0.87525931  0.60669877
   0.65097679  0.87485056  0.60693782
   0.25039803  0.99997065  0.67153768
   0.24974019  0.00004527  0.75578652
   0.59453048  0.87490959  0.71812534
   0.40609355  0.87599268  0.71846148
   0.25000000  0.25000000  0.24547709
   0.25000000  0.25000000  0.32889900
   0.59799955  0.12500000  0.28718805
   0.40200045  0.12500000  0.28718805
   0.50000000  0.25000000  0.35188307
   0.50000000  0.25000000  0.43530497
   0.34799955  0.12500000  0.39359402
   0.65200045  0.12500000  0.39359402
   0.25000000  0.25000000  0.45828905
   0.25000000  0.25000000  0.54171095
   0.59799955  0.12500000  0.50000000
   0.40200045  0.12500000  0.50000000
   0.50074174  0.25137352  0.56524960
   0.49912597  0.24843063  0.64828745
   0.35024299  0.12491813  0.60684644
   0.65101229  0.12518512  0.60691298
   0.25031027  0.24998593  0.67153031
   0.25069619  0.25024693  0.75574229
   0.59457816  0.12479702  0.71816990
   0.40600738  0.12434473  0.71832802
   0.25000000  0.50000000  0.24547709
   0.25000000  0.50000000  0.32889900
   0.59799955  0.37500000  0.28718805
   0.40200045  0.37500000  0.28718805
   0.50000000  0.50000000  0.35188307
   0.50000000  0.50000000  0.43530497
   0.34799955  0.37500000  0.39359402
   0.65200045  0.37500000  0.39359402
   0.25000000  0.50000000  0.45828905
   0.25000000  0.50000000  0.54171095
   0.59799955  0.37500000  0.50000000
   0.40200045  0.37500000  0.50000000
   0.50090771  0.49989734  0.56552062
   0.49994596  0.50035111  0.64952578
   0.35013168  0.37505739  0.60719044
   0.65126347  0.37498974  0.60752663
   0.25021696  0.50034256  0.67157451
   0.25206788  0.50024613  0.75574058
   0.59668863  0.37147609  0.71450714
   0.40652798  0.37409647  0.71786547
 
 position of ions in cartesian coordinates  (Angst):
   6.63633492  6.95574188 24.79222865
   7.00487284  5.88813422 23.88105936
   5.54934185  7.06643704 24.74098224
   8.00232250  5.83241941 23.83817118
   6.94062057  6.67717001 25.81011792
   7.13586783  7.89552157 24.50954303
   9.75298530  7.39398632  8.77438420
   0.00000000  8.87278359  8.77438420
   0.00000000  7.39398632 12.02537931
   9.75298530  8.87278359 12.02537931
   9.75298530  7.39398632 15.27637441
   0.00000000  8.87278359 15.27637441
   0.09094689  7.39486160 18.45527187
   9.83274596  8.87413724 18.64353105
[...]
      9.74767      1.46953     22.00330         0.009096      0.002168      0.061579
      0.00250      2.95323     21.63650         0.001086      0.009359      0.169600
      9.75299      4.43639      8.77438        -0.002573     -0.000069     -3.543971
      0.00000      5.91519      8.77438         0.001158     -0.000049      2.690042
      0.00000      4.43639     12.02538         0.004948     -0.000038      0.519698
      9.75299      5.91519     12.02538        -0.007288      0.000503     -0.729153
      9.75299      4.43639     15.27637        -0.034359      0.027755      0.616879
      0.00000      5.91519     15.27637        -0.000780      0.000544     -0.724159
      0.09083      4.43619     18.45473        -0.079794     -0.000572      0.089191
      9.83569      5.91529     18.64852        -0.050579     -0.000213     -0.084253
      9.77174      4.41537     21.97161         0.014021     -0.008161      0.053394
      0.01069      5.91668     21.63470         0.000425     -0.002825      0.170629
      3.25100      7.39399      8.77438         0.002743     -0.000093     -3.541830
      6.50199      8.87278      8.77438        -0.000967      0.000266      2.696759
      6.50199      7.39399     12.02538        -0.004544      0.008757      0.544718
      3.25100      8.87278     12.02538         0.008259      0.000355     -0.715184
      3.25100      7.39399     15.27637         0.048231     -0.014351      0.665905
      6.50199      8.87278     15.27637        -0.024031     -0.045406     -0.590268
      6.59514      7.36648     18.49572        -0.077843      0.009113      0.072767
      3.33092      8.87269     18.65124        -0.051414     -0.003151     -0.074102
      3.25537      7.39781     22.00010        -0.006336      0.000261      0.052807
      6.51186      8.87430     21.59708        -0.012588      0.038333      0.171087
      3.25100     10.35158      8.77438         0.002807      0.000392     -3.541961
      6.50199      0.00000      8.77438        -0.000972      0.000015      2.696586
      6.50199     10.35158     12.02538        -0.004857     -0.001335      0.545543
      3.25100      0.00000     12.02538         0.008477      0.000079     -0.714410
      3.25100     10.35158     15.27637         0.038796      0.012959      0.664420
      6.50199      0.00000     15.27637        -0.029908     -0.000493     -0.785604
      6.59411     10.34007     18.42414        -0.080218      0.009027      0.091615
      3.32907     11.83026     18.65480        -0.057213      0.003244     -0.076510
      3.26451     10.35351     22.00599        -0.005403      0.004608      0.058095
      6.49531     11.83007     21.60461         0.011506      0.005284      0.177304
      3.25100      1.47880      8.77438         0.002762      0.000012     -3.541948
      6.50199      2.95759      8.77438        -0.001035     -0.000272      2.696271
      6.50199      1.47880     12.02538        -0.005193     -0.001172      0.543950
      3.25100      2.95759     12.02538         0.008003     -0.000359     -0.713156
      3.25100      1.47880     15.27637         0.038217     -0.000063      0.674307
      6.50199      2.95759     15.27637        -0.026877      0.047501     -0.574430
      6.59234      1.49250     18.42745        -0.075463     -0.008035      0.092193
      3.32979      2.95924     18.65444        -0.053263     -0.000146     -0.076286
      3.26177      1.47928     22.00495        -0.000748      0.002523      0.060790
      6.51061      2.95454     21.60842        -0.009744     -0.022839      0.171665
      3.25100      4.43639      8.77438         0.002698     -0.000303     -3.541807
      6.50199      5.91519      8.77438        -0.001006     -0.000006      2.696441
      6.50199      4.43639     12.02538        -0.004890     -0.006247      0.543362
      3.25100      5.91519     12.02538         0.007860     -0.000098     -0.713297
      3.25100      4.43639     15.27637         0.048454      0.001342      0.674763
      6.50199      5.91519     15.27637        -0.022376     -0.001629     -0.614788
      6.59477      4.46437     18.50144        -0.080013     -0.008587      0.072601
      3.32522      5.91597     18.65558        -0.044972     -0.000900     -0.076909
      3.25524      4.43669     22.00420         0.000163     -0.010248      0.053591
      6.51183      5.90893     21.75583         0.036464     -0.016351      0.237998
      9.75299      8.87278      7.50000         0.000663     -0.000151      1.902815
      9.75299      8.87278     10.04877         0.001068     -0.000125      1.717779
      1.27438      7.39399      8.77438        -1.807484     -0.000010     -0.749677
     11.72960      7.39399      8.77438         1.805989     -0.000030     -0.749604
      0.00000      8.87278     10.75100        -0.000618     -0.000016     -1.379102
      0.00000      8.87278     13.29976        -0.000031      0.000188     -0.093610
     11.02737      7.39399     12.02538         0.450100     -0.000201      0.052160
      1.97661      7.39399     12.02538        -0.455469      0.000174      0.050273
      9.75299      8.87278     14.00199         0.000916     -0.001068     -0.099075
      9.75299      8.87278     16.55076         0.016407      0.005394      0.105243
      1.27438      7.39399     15.27637        -0.459879      0.002296      0.087772
     11.72960      7.39399     15.27637         0.445850      0.000948      0.103681
      0.00801      8.87458     17.27222        -0.006114      0.000224     -0.062580
     13.00242      8.87100     19.83081        -0.004276      0.001872     -0.093474
     11.06517      7.39743     18.53214         0.053585     -0.000801     -0.009152
      1.95671      7.39641     18.54644         0.084242      0.000789     -0.001960
      9.80423      8.88344     20.51325        -0.002459      0.001557      0.103974
      9.73342      8.85990     23.08441         0.002642      0.002564     -0.021477
      1.22996      7.39549     21.96107         0.008980      0.002136      0.019436
     11.78488      7.38553     21.98841        -0.002249      0.004609      0.015554
      9.75299      0.00000      7.50000         0.000667      0.000004      1.903110
      9.75299      0.00000     10.04877         0.001165      0.000085      1.717780
      1.27438     10.35158      8.77438        -1.807496     -0.000061     -0.749638
     11.72960     10.35158      8.77438         1.806025     -0.000050     -0.749535
      0.00000      0.00000     10.75100        -0.000618      0.000018     -1.379079
      0.00000      0.00000     13.29976        -0.000086      0.000108     -0.092957
     11.02737     10.35158     12.02538         0.450094      0.000112      0.052112
      1.97661     10.35158     12.02538        -0.455419     -0.000207      0.050324
      9.75299      0.00000     14.00199         0.001081      0.003001     -0.098430
      9.75299      0.00000     16.55076         0.004805      0.004571      0.096666
      1.27438     10.35158     15.27637        -0.458018      0.000117      0.085897
     11.72960     10.35158     15.27637         0.445796      0.000072      0.101681
      0.00887      0.00032     17.27265        -0.008563     -0.000267     -0.062716
      0.00322      0.00020     19.82997        -0.004188     -0.001018     -0.092647
     11.06234     10.35769     18.54178         0.056553      0.000689     -0.010840
      1.95662     10.35024     18.54923         0.085854     -0.001444     -0.002956
      9.76477      0.00050     20.52249        -0.000913     -0.001833      0.107414
      9.75432     11.82775     23.09390         0.003747     -0.002955     -0.033997
      1.22735     10.34625     21.95376         0.017485      0.002522      0.018919
     11.78499     10.35184     21.97235        -0.015739      0.001665      0.021513
      9.75299      2.95759      7.50000         0.000676      0.000141      1.903104
      9.75299      2.95759     10.04877         0.001041      0.000121      1.718409
      1.27438      1.47880      8.77438        -1.807532      0.000016     -0.749616
     11.72960      1.47880      8.77438         1.805998      0.000018     -0.749479
      0.00000      2.95759     10.75100        -0.000615      0.000029     -1.379022
      0.00000      2.95759     13.29976        -0.000304     -0.000078     -0.093058
     11.02737      1.47880     12.02538         0.449952      0.000314      0.052186
      1.97661      1.47880     12.02538        -0.455565     -0.000037      0.050236
      9.75299      2.95759     14.00199         0.000988      0.001135     -0.095183
      9.75299      2.95759     16.55076         0.013440      0.000543      0.118870
      1.27438      1.47880     15.27637        -0.460811      0.000417      0.085125
     11.72960      1.47880     15.27637         0.443167      0.001494      0.102576
      0.00773      2.95622     17.27243        -0.006699     -0.000259     -0.062948
      0.00060      2.95987     19.83098        -0.002988     -0.000858     -0.094666
     11.06150      1.47564     18.54456         0.058258     -0.002169     -0.009705
      1.95659      1.47918     18.54639         0.085817      0.000996     -0.000852
      9.79348      2.95518     20.51435        -0.002547     -0.007960      0.100369
      9.74388      2.96506     23.08260         0.001812     -0.006395     -0.029000
      1.22564      1.48266     21.95760         0.017933     -0.003895      0.018423
     11.78429      1.47856     21.96622        -0.014857     -0.002156      0.020944
      9.75299      5.91519      7.50000         0.000651     -0.000012      1.902733
      9.75299      5.91519     10.04877         0.001075     -0.000067      1.717892
      1.27438      4.43639      8.77438        -1.807509      0.000039     -0.749657
     11.72960      4.43639      8.77438         1.805970      0.000048     -0.749554
      0.00000      5.91519     10.75100        -0.000644     -0.000025     -1.379035
      0.00000      5.91519     13.29976        -0.000087     -0.000004     -0.093470
     11.02737      4.43639     12.02538         0.449932     -0.000196      0.052253
      1.97661      4.43639     12.02538        -0.455639      0.000076      0.050184
      9.75299      5.91519     14.00199         0.003266     -0.002325     -0.098372
      9.75299      5.91519     16.55076         0.005447     -0.000633      0.096559
      1.27438      4.43639     15.27637        -0.462851     -0.001673      0.087420
     11.72960      4.43639     15.27637         0.443504     -0.001349      0.104441
      0.00926      5.91548     17.27182        -0.006987      0.000222     -0.063488
      0.00122      5.91566     19.82902        -0.003036      0.000236     -0.094582
     11.06496      4.43305     18.53299         0.053643      0.000796     -0.009079
      1.95686      4.43612     18.54579         0.082842      0.000173     -0.002776
      9.82381      5.91596     20.50897         0.001097     -0.001374      0.111838
      9.61782      5.91353     23.08597        -0.005946     -0.002175     -0.017595
      1.22889      4.43749     21.96090         0.008656     -0.001921      0.019078
     11.78535      4.44496     21.98766         0.000910     -0.004941      0.017280
      3.25100      8.87278      7.50000        -0.000627     -0.000126      1.902087
      3.25100      8.87278     10.04877        -0.001319     -0.000084      1.714233
      7.77637      7.39399      8.77438        -1.803456     -0.000171     -0.750485
      5.22761      7.39399      8.77438         1.804989     -0.000163     -0.750618
      6.50199      8.87278     10.75100         0.000628     -0.001021     -1.392880
      6.50199      8.87278     13.29976         0.003131     -0.002394     -0.148522
      4.52538      7.39399     12.02538         0.443208     -0.000228      0.048855
      8.47860      7.39399     12.02538        -0.438222     -0.000650      0.050531
      3.25100      8.87278     14.00199        -0.009504      0.000324     -0.117678
      3.25100      8.87278     16.55076        -0.009095     -0.000004      0.101806
      7.77637      7.39399     15.27637        -0.398899     -0.024941      0.062871
      5.22761      7.39399     15.27637         0.427566     -0.025450      0.080925
      6.51262      8.85852     17.26646        -0.006625     -0.026909     -0.053615
      6.47675      8.89209     19.79802        -0.006083     -0.007168     -0.101833
      4.55234      7.39304     18.54503         0.059912      0.003971     -0.009509
      8.46935      7.39765     18.56226         0.077164      0.001585     -0.002154
      3.26790      8.86964     20.51810        -0.000881      0.002853      0.111117
      3.26301      8.87091     23.09256        -0.000320      0.003307     -0.025903
      7.76622      7.45121     21.79960         0.023356     -0.011589      0.021381
      5.30000      7.40158     21.97475        -0.038182      0.008807      0.024287
      3.25100      0.00000      7.50000        -0.000640     -0.000119      1.902317
      3.25100      0.00000     10.04877        -0.001360     -0.000096      1.713929
      7.77637     10.35158      8.77438        -1.803442     -0.000073     -0.750460
      5.22761     10.35158      8.77438         1.804964     -0.000075     -0.750561
      6.50199      0.00000     10.75100         0.000716      0.000389     -1.392460
      6.50199      0.00000     13.29976         0.002570      0.000920     -0.144775
      4.52538     10.35158     12.02538         0.442197     -0.000071      0.048740
      8.47860     10.35158     12.02538        -0.437317      0.000301      0.050575
      3.25100      0.00000     14.00199        -0.009015     -0.002212     -0.119569
      3.25100      0.00000     16.55076        -0.018171      0.000547      0.084708
      7.77637     10.35158     15.27637        -0.399222      0.005724      0.079313
      5.22761     10.35158     15.27637         0.422742      0.000986      0.087796
      6.50735      0.00182     17.25801        -0.010235      0.000758     -0.061441
      6.50606     11.82984     19.80601        -0.002990      0.000066     -0.111812
      4.55329     10.35465     18.53632         0.064459     -0.001980     -0.010229
      8.46529     10.34981     18.54362         0.073103      0.003083     -0.001768
      3.25617     11.83003     20.51732        -0.002721     -0.000892      0.111661
      3.24762      0.00054     23.09136         0.001914     -0.002288     -0.031227
      7.73126     10.35051     21.94070         0.017427      0.007653      0.019684
      5.28083     10.36332     21.95097        -0.015308     -0.002288      0.019687
      3.25100      2.95759      7.50000        -0.000638      0.000100      1.902219
      3.25100      2.95759     10.04877        -0.001294      0.000087      1.713798
      7.77637      1.47880      8.77438        -1.803446      0.000123     -0.750418
      5.22761      1.47880      8.77438         1.805030      0.000110     -0.750526
      6.50199      2.95759     10.75100         0.000663      0.001013     -1.391963
      6.50199      2.95759     13.29976         0.003091      0.002677     -0.140006
      4.52538      1.47880     12.02538         0.442707     -0.000061      0.048708
      8.47860      1.47880     12.02538        -0.437569      0.000223      0.050757
      3.25100      2.95759     14.00199        -0.009737     -0.000151     -0.121778
      3.25100      2.95759     16.55076        -0.007289      0.001822      0.098263
      7.77637      1.47880     15.27637        -0.399283      0.002599      0.081005
      5.22761      1.47880     15.27637         0.426661      0.004854      0.087666
      6.51164      2.97384     17.26993        -0.007837      0.027682     -0.056312
      6.49062      2.93903     19.80696        -0.006305      0.005742     -0.098709
      4.55455      1.47783     18.54083         0.062004     -0.000273     -0.010646
      8.46575      1.48099     18.54286         0.071463     -0.002941     -0.003754
      3.25503      2.95743     20.51710        -0.001058     -0.001428      0.110707
      3.26005      2.96052     23.09000        -0.000150     -0.002480     -0.031814
      7.73188      1.47640     21.94206         0.015428     -0.008836      0.018824
      5.27971      1.47105     21.94690        -0.014859     -0.003709      0.019470
      3.25100      5.91519      7.50000        -0.000608      0.000111      1.901981
      3.25100      5.91519     10.04877        -0.001293      0.000088      1.713854
      7.77637      4.43639      8.77438        -1.803467      0.000101     -0.750425
      5.22761      4.43639      8.77438         1.805053      0.000114     -0.750557
      6.50199      5.91519     10.75100         0.000653     -0.000359     -1.391538
      6.50199      5.91519     13.29976         0.002998     -0.000664     -0.111654
      4.52538      4.43639     12.02538         0.443721      0.000375      0.048821
      8.47860      4.43639     12.02538        -0.438453      0.000144      0.050701
      3.25100      5.91519     14.00199        -0.011034      0.002297     -0.120986
      3.25100      5.91519     16.55076        -0.008663      0.000189      0.100674
      7.77637      4.43639     15.27637        -0.398272      0.019520      0.062854
      5.22761      4.43639     15.27637         0.430892      0.022276      0.079456
      6.51379      5.91397     17.27821        -0.006898     -0.001873     -0.070735
      6.50129      5.91934     19.84480        -0.000759      0.002248     -0.035326
      4.55311      4.43707     18.55134         0.060431     -0.001501     -0.008666
      8.46902      4.43627     18.56161         0.075862     -0.002590     -0.001632
      3.25382      5.91924     20.51845        -0.000613      0.000262      0.111662
      3.27789      5.91810     23.08995        -0.001259      0.002021     -0.020111
      7.75933      4.39470     21.83016         0.026291      0.004684      0.027750
      5.28648      4.42570     21.93276        -0.034732     -0.017429      0.018958
 -----------------------------------------------------------------------------------
    total drift:                               -0.007892      0.000720     -0.063388


--------------------------------------------------------------------------------------------------------



  FREE ENERGIE OF THE ION-ELECTRON SYSTEM (eV)
  ---------------------------------------------------
  free  energy   TOTEN  =     -1768.70310291 eV

  energy  without entropy=    -1768.70310291  energy(sigma->0) =    -1768.70310291
 


--------------------------------------------------------------------------------------------------------


    POTLOK:  cpu time      0.7402: real time      0.7434


--------------------------------------------------------------------------------------------------------


     LOOP+:  cpu time   1683.2600: real time   1693.4244
    4ORBIT:  cpu time      0.0000: real time      0.0000

 total amount of memory used by VASP MPI-rank0   776310. kBytes
=======================================================================

   base      :      30000. kBytes
   nonl-proj :     535628. kBytes
   fftplans  :      41485. kBytes
   grid      :      59627. kBytes
   one-center:       1912. kBytes
   wavefun   :     107658. kBytes
 
  
  
 General timing and accounting informations for this job:
 ========================================================
  
                  Total CPU time used (sec):     1726.993
                            User time (sec):     1721.505
                          System time (sec):        5.488
                         Elapsed time (sec):     1738.310
  
                   Maximum memory used (kb):     1364260.
                   Average memory used (kb):          N/A
  
                          Minor page faults:       107264
                          Major page faults:          944
                 Voluntary context switches:         4947
