 **********************************************************************
                          MRCC program system
 **********************************************************************
 
                              Written by
     Mihaly Kallay, Peter R. Nagy, David Mester, Laszlo Gyevi-Nagy,
        Jozsef Csoka, P. Bernat Szabo, Zoltan Rolik, Gyula Samu,
     Jozsef Csontos, Bence Hegely, Adam Ganyecz, Istvan Ladjanszki,
       Lorant Szegedy, Bence Ladoczki, Klara Petrov, Mate Farkas,
                    Pal D. Mezei, and Reka A. Horvath
 
        Department of Physical Chemistry and Materials Science
            Budapest University of Technology and Economics
                  Budapest P.O.Box 91, H-1521 Hungary
 
                              www.mrcc.hu
 
                      Release date: March 18, 2022

 ************************ 2023-02-05 13:12:25 *************************
 Executing minp...

 Reading input from MINP...
 
 Input file:
 
calc=FNO-CCSD(T)
verbosity=3
mem=220GB
unit=angs
scfiguess=small
scfalg=locfit1
ccmaxit=400
ccsdalg=dfdirect
ccsdthreads=4
ccsdmkl=thr
ptthreads=4
lnoepsv=1e-5
naf_cor=1e-2
basis=aug-cc-pVQZ
basis_sm=def2-SVP
dfbasis_scf=def2-QZVPP-RI-JK
dfbasis_cor=aug-cc-pVQZ-RI
unit=angs
geom=xyz
16

C    34.41670262    34.07107264    10.41543014
C    33.11117461    33.45680459    10.91530835
H    34.24160149    35.00442132     9.86225048
H    34.94674030    33.36940783     9.75379242
H    35.10002891    34.30603621    11.24227357
H    32.42643037    33.26105434    10.07939442
H    32.59136835    34.12756100    11.61262818
H    33.28915165    32.50678735    11.43686767
C    34.41670262    42.51205729    10.41543014
C    33.11117461    41.89778925    10.91530835
H    34.24160149    43.44540598     9.86225048
H    34.94674030    41.81039248     9.75379242
H    35.10002891    42.74702086    11.24227357
H    32.42643037    41.70203900    10.07939442
H    32.59136835    42.56854565    11.61262818
H    33.28915165    40.94777201    11.43686767

--------------------Output has been truncated-------------------------


--------------------Output has been truncated-------------------------


--------------------Output has been truncated-------------------------


--------------------Output has been truncated-------------------------


--------------------Output has been truncated-------------------------


--------------------Output has been truncated-------------------------


--------------------Output has been truncated-------------------------


--------------------Output has been truncated-------------------------


--------------------Output has been truncated-------------------------


--------------------Output has been truncated-------------------------


 
 Reference energy [au]:                       -79.264437379027
 DF-MP2 singlet pair energy [au]:              -0.317723602674
 DF-MP2 triplet pair energy [au]:              -0.076906439635
 DF-SCS-MP2 correlation energy [au]:           -0.406903803087
 DF-SCS-MP2 energy [au]:                      -79.671341182114
 DF-SOS-MP2 correlation energy [au]:           -0.413040683476
 DF-SOS-MP2 energy [au]:                      -79.677478062504
 DF-MP2 correlation energy [au]:               -0.394630042309
 DF-MP2 energy [au]:                          -79.659067421336

 Results in FNO basis:
 
 
 Reference energy [au]:                       -79.264437379027
 DF-MP2 singlet pair energy [au]:              -0.312549280830
 DF-MP2 triplet pair energy [au]:              -0.076620502524
 DF-SCS-MP2 correlation energy [au]:           -0.400599304504
 DF-SCS-MP2 energy [au]:                      -79.665036683531
 DF-SOS-MP2 correlation energy [au]:           -0.406314065079
 DF-SOS-MP2 energy [au]:                      -79.670751444106
 DF-MP2 correlation energy [au]:               -0.389169783354
 DF-MP2 energy [au]:                          -79.653607162381

 Results in NAF basis:
 
 
 Reference energy [au]:                       -79.264437379027
 DF-MP2 singlet pair energy [au]:              -0.312528318541
 DF-MP2 triplet pair energy [au]:              -0.076628510805
 DF-SCS-MP2 correlation energy [au]:           -0.400576819184
 DF-SCS-MP2 energy [au]:                      -79.665014198212
 DF-SOS-MP2 correlation energy [au]:           -0.406286814103
 DF-SOS-MP2 energy [au]:                      -79.670724193131
 DF-MP2 correlation energy [au]:               -0.389156829346
 DF-MP2 energy [au]:                          -79.653594208374

 ************************ 2023-02-05 13:14:08 *************************
 Executing ccsd...

 Allocation of 220.0 Gbytes of memory...

 Direct DF-CCSD(T) calculation
 
 Convergence criterion:  1.0E-06
 
 Number of occupied/virtual/auxiliary orbitals:     7   175   551
    851.32 MB is the minimal memory requirement for (T)
    190.43 MB is the minimal memory requirement for CCSD
 
 Reference energy [au]:             -79.264437379027
 T1 contribution [au]:                0.000000000000
 Same spin MP2 energy [au]:          -0.076624504103
 Opposite spin MP2 energy [au]:      -0.312538794979
 MP2 correlation energy [au]:        -0.389163299082
 Total MP2 energy [au]:             -79.653600678109
 MP2 correction [au]:                -0.005466743227
 
 
 CPU time [min]:     0.401                   Wall time [min]:     0.050
 
 Starting CCSD iterations...
 
                     Residual norm          Energy
 Iteration  1        0.179604563847      -79.671513513848
 Iteration  2        0.044511384871      -79.681095672798
 Iteration  3        0.013089863715      -79.682231406495
 Iteration  4        0.002650291884      -79.682238629015
 Iteration  5        0.000560968805      -79.682244494382
 Iteration  6        0.000156931377      -79.682246545255
 Iteration  7        0.000037096139      -79.682246320189
 Iteration  8        0.000009998703      -79.682246684081
 
 CCSD iteration has converged in  8 steps.
     3804.92 MB memory was utilized by CCSD
 
 T1 diagnostic:      8.231E-03            D1 diagnostic:      1.428E-02
 
 T1 contribution [au]:                                  0.000000000000
 PPL energy contribution [au]:                          0.108935678759
 Scaled PPL energy contribution [au]:                   0.110475629583

 OS-PPL energy contribution [au]:                       0.095542450049
 Scaled OS-PPL energy contribution [au]:                0.097137587084
 SS-PPL energy contribution [au]:                       0.013393228710
 Scaled SS-PPL energy contribution [au]:                0.013441315103

 Opposite spin CCSD energy [au]:                       -0.345140558630
 Same spin CCSD energy [au]:                           -0.072676498533
 CCSD correlation energy [au]:                         -0.417817057163
 CCSD correlation energy + MP2 correction [au]:        -0.423283800390
 CCSD correlation energy + MP2 + PPL corr. [au]:       -0.421743849566
 Total CCSD energy [au]:                              -79.682254436190
 Total CCSD energy + MP2 correction [au]:             -79.687721179417
 Total CCSD energy + MP2 + PPL corr. [au]:            -79.686181228593
 
 CPU time [min]:     6.405                   Wall time [min]:     0.234
 
 Calculation of (T) correction...
 
 
      783.34 MB memory is utilized for (T)

 0%       25%       50%       75%       100%
 |---------|---------|---------|---------| 
 
 (T) correction [au]:                                    -0.014762696985
 (T*) correction [au]:                                   -0.014970074901
 (T+) correction [au]:                                   -0.014966542924
 CCSD(T) correlation energy [au]:                        -0.432579754148
 CCSD(T) correlation energy + MP2 correction [au]:       -0.438046497375
 CCSD(T+) correlation en. + MP2 + PPL corr. [au]:        -0.436710392490
 Total CCSD(T) energy [au]:                             -79.697017133176
 Total CCSD(T) energy + MP2 correction [au]:            -79.702483876403
 Total CCSD(T+) energy + MP2 + PPL corr. [au]:          -79.701147771518
 
 CPU time [min]:     8.125                   Wall time [min]:     0.291
 
 ************************ 2023-02-05 13:14:25 *************************
                      Normal termination of mrcc.
 **********************************************************************
