 vasp.6.3.0 20Jan22 (build Mar 11 2022 13:48:16) complex                        
  
 executed on             LinuxIFC date 2024.01.22  08:19:24
 running on  304 total cores
 distrk:  each k-point on  304 cores,    1 groups
 distr:  one band on NCORE=   2 cores,  152 groups


--------------------------------------------------------------------------------------------------------


 INCAR:
   SYSTEM = TiO2
   ISMEAR = 0
   SIGMA = 0.05
   EDIFF = 1E-5
   ALGO = ALL
   ISTART = 0
   IBRION = -1
   NSW = 0
   ISYM = 0
   ISIF = 2
   EDIFFG = -0.01
   DIPOL = 0.5 0.5 0.5
   IDIPOL = 3
   LDIPOL = .TRUE.
   METAGGA = R2SCAN
   LUSE_VDW = .TRUE.
   BPARAM = 11.95
   CPARAM = 0.0093
   LASPH = .TRUE.
   ENCUT = 600
   PREC = Accurate
   LASPH = .TRUE.
   LREAL = .FALSE.
   ISPIN = 1
   NELM = 200
   NELMIN = 8
   NCORE = 2
   KPAR = 1
   LWAVE = .FALSE.
   LCHARG = .FALSE.

 POTCAR:    PAW_PBE Ti_pv 07Sep2000               
 POTCAR:    PAW_PBE O 08Apr2002                   
 -----------------------------------------------------------------------------
|                                                                             |
|           W    W    AA    RRRRR   N    N  II  N    N   GGGG   !!!           |
|           W    W   A  A   R    R  NN   N  II  NN   N  G    G  !!!           |
|           W    W  A    A  R    R  N N  N  II  N N  N  G       !!!           |
|           W WW W  AAAAAA  RRRRR   N  N N  II  N  N N  G  GGG   !            |
|           WW  WW  A    A  R   R   N   NN  II  N   NN  G    G                |
|           W    W  A    A  R    R  N    N  II  N    N   GGGG   !!!           |
|                                                                             |
|     For optimal performance we recommend to set                             |
|       NCORE = 2 up to number-of-cores-per-socket                            |
|     NCORE specifies how many cores store one orbital (NPAR=cpu/NCORE).      |
|     This setting can greatly improve the performance of VASP for DFT.       |
|     The default, NCORE=1 might be grossly inefficient on modern             |
|     multi-core architectures or massively parallel machines. Do your        |
|     own testing! More info at https://www.vasp.at/wiki/index.php/NCORE      |
|     Unfortunately you need to use the default for GW and RPA                |
|     calculations (for HF NCORE is supported but not extensively tested      |
|     yet).                                                                   |
|                                                                             |
 -----------------------------------------------------------------------------

 -----------------------------------------------------------------------------
|                                                                             |
|               ----> ADVICE to this user running VASP <----                  |
|                                                                             |
|     You have switched on vdW-DFT.                                           |
|     This routine was written and supplied by Jiri Klimes. We recommend      |
|     that you carefully read and cite the following publications:            |
|       J. Klimes, D.R. Bowler, A. Michelides                                 |
|          J. Phys.: Cond Matt. 22 022201 (2010)                              |
|       J. Klimes, D.R. Bowler, A. Michelides                                 |
|          Phys. Rev. B. 83, 195131 (2011)                                    |
|     and references therein.                                                 |
|                                                                             |
 -----------------------------------------------------------------------------

 POTCAR:    PAW_PBE Ti_pv 07Sep2000               
   SHA256 =  f757a1b2c6d082f4c628fa3d987464a8763bf92e53844ac0500b0e2ddc9ce5c0 Ti_pv/POTCAR          
   COPYR  = (c) Copyright 07Sep2000 Georg Kresse                                                    
   COPYR  = This file is part of the software VASP. Any use, copying, and all other rights are regul
   COPYR  = If you do not have a valid VASP license, you may not use, copy or distribute this file. 
   VRHFIN =Ti: d3 s1                                                                                
   LEXCH  = PE                                                                                      
   EATOM  =  1042.5995 eV,   76.6289 Ry                                                             
                                                                                                    
   TITEL  = PAW_PBE Ti_pv 07Sep2000                                                                 
   LULTRA =        F    use ultrasoft PP ?                                                          
   IUNSCR =        1    unscreen: 0-lin 1-nonlin 2-no                                               
   RPACOR =    2.200    partial core radius                                                         
   POMASS =   47.880; ZVAL   =   10.000    mass and valenz                                          
   RCORE  =    2.500    outmost cutoff radius                                                       
   RWIGS  =    2.500; RWIGS  =    1.323    wigner-seitz radius (au A)                               
   ENMAX  =  222.335; ENMIN  =  166.751 eV                                                          
   RCLOC  =    1.701    cutoff for local pot                                                        
   LCOR   =        T    correct aug charges                                                         
   LPAW   =        T    paw PP                                                                      
   EAUG   =  482.848                                                                                
   DEXC   =    0.000                                                                                
   RMAX   =    2.564    core radius for proj-oper                                                   
   RAUG   =    1.300    factor for augmentation sphere                                              
   RDEP   =    2.538    radius for radial grids                                                     
   RDEPT  =    1.952    core radius for aug-charge                                                  
                                                                                                    
   Atomic configuration                                                                             
    8 entries                                                                                       
     n  l   j            E        occ.                                                              
     1  0  0.50     -4865.3608   2.0000                                                             
     2  0  0.50      -533.1368   2.0000                                                             
     2  1  1.50      -440.5031   6.0000                                                             
     3  0  0.50       -59.3186   2.0000                                                             
     3  1  1.50       -35.7012   6.0000                                                             
     3  2  2.50        -1.9157   3.0000                                                             
     4  0  0.50        -3.7291   1.0000                                                             
     4  3  2.50        -1.3606   0.0000                                                             
   Description                                                                                      
     l       E           TYP  RCUT    TYP  RCUT                                                     
     1    -35.7012140     23  2.300                                                                 
     1     -1.3605826     23  2.300                                                                 
     2     -1.9156996     23  2.500                                                                 
     2     -0.4063033     23  2.500                                                                 
     0     -3.7290856     23  2.500                                                                 
     0     20.4087390     23  2.500                                                                 
  local pseudopotential read in
  partial core-charges read in
  partial kinetic energy density read in
  atomic valenz-charges read in
  non local Contribution for L=           1  read in
    real space projection operators read in
  non local Contribution for L=           1  read in
    real space projection operators read in
  non local Contribution for L=           2  read in
    real space projection operators read in
  non local Contribution for L=           2  read in
    real space projection operators read in
  non local Contribution for L=           0  read in
    real space projection operators read in
  non local Contribution for L=           0  read in
    real space projection operators read in
    PAW grid and wavefunctions read in
 
   number of l-projection  operators is LMAX  =           6
   number of lm-projection operators is LMMAX =          18
 
 POTCAR:    PAW_PBE O 08Apr2002                   
   SHA256 =  818f92134a0a090dccd8ba1447fa70422a3b330e708bb4f08108d8ae51209ddf O/POTCAR              
   COPYR  = (c) Copyright 08Apr2002 Georg Kresse                                                    
   COPYR  = This file is part of the software VASP. Any use, copying, and all other rights are regul
   COPYR  = If you do not have a valid VASP license, you may not use, copy or distribute this file. 
   VRHFIN =O: s2p4                                                                                  
   LEXCH  = PE                                                                                      
   EATOM  =   432.3788 eV,   31.7789 Ry                                                             
                                                                                                    
   TITEL  = PAW_PBE O 08Apr2002                                                                     
   LULTRA =        F    use ultrasoft PP ?                                                          
   IUNSCR =        1    unscreen: 0-lin 1-nonlin 2-no                                               
   RPACOR =    1.200    partial core radius                                                         
   POMASS =   16.000; ZVAL   =    6.000    mass and valenz                                          
   RCORE  =    1.520    outmost cutoff radius                                                       
   RWIGS  =    1.550; RWIGS  =    0.820    wigner-seitz radius (au A)                               
   ENMAX  =  400.000; ENMIN  =  300.000 eV                                                          
   ICORE  =        2    local potential                                                             
   LCOR   =        T    correct aug charges                                                         
   LPAW   =        T    paw PP                                                                      
   EAUG   =  605.392                                                                                
   DEXC   =    0.000                                                                                
   RMAX   =    1.553    core radius for proj-oper                                                   
   RAUG   =    1.300    factor for augmentation sphere                                              
   RDEP   =    1.550    radius for radial grids                                                     
   RDEPT  =    1.329    core radius for aug-charge                                                  
                                                                                                    
   Atomic configuration                                                                             
    4 entries                                                                                       
     n  l   j            E        occ.                                                              
     1  0  0.50      -514.6923   2.0000                                                             
     2  0  0.50       -23.9615   2.0000                                                             
     2  1  0.50        -9.0305   4.0000                                                             
     3  2  1.50        -9.5241   0.0000                                                             
   Description                                                                                      
     l       E           TYP  RCUT    TYP  RCUT                                                     
     0    -23.9615318     23  1.200                                                                 
     0     -9.5240782     23  1.200                                                                 
     1     -9.0304911     23  1.520                                                                 
     1      8.1634956     23  1.520                                                                 
     2     -9.5240782      7  1.500                                                                 
  local pseudopotential read in
  partial core-charges read in
  partial kinetic energy density read in
  kinetic energy density of atom read in
  atomic valenz-charges read in
  non local Contribution for L=           0  read in
    real space projection operators read in
  non local Contribution for L=           0  read in
    real space projection operators read in
  non local Contribution for L=           1  read in
    real space projection operators read in
  non local Contribution for L=           1  read in
    real space projection operators read in
    PAW grid and wavefunctions read in
 
   number of l-projection  operators is LMAX  =           4
   number of lm-projection operators is LMMAX =           8
 
 -----------------------------------------------------------------------------
|                                                                             |
|               ----> ADVICE to this user running VASP <----                  |
|                                                                             |
|     You have a (more or less) 'large supercell' and for larger cells it     |
|     might be more efficient to use real-space projection operators.         |
|     Therefore, try LREAL= Auto in the INCAR file.                           |
|     Mind: For very accurate calculation, you might also keep the            |
|     reciprocal projection scheme (i.e. LREAL=.FALSE.).                      |
|                                                                             |
 -----------------------------------------------------------------------------

  PAW_PBE Ti_pv 07Sep2000               :
 energy of atom  1       EATOM=-1042.5995
 kinetic energy error for atom=    0.0007 (will be added to EATOM!!)
  PAW_PBE O 08Apr2002                   :
 energy of atom  2       EATOM= -432.3788
 kinetic energy error for atom=    0.0168 (will be added to EATOM!!)
 
 
 POSCAR: Ti  O
  positions in direct lattice
  No initial velocities read in

 METAGGA = R2SCA    LMAXTAU =  6    LMIXTAU =  F

 exchange correlation table for  LEXCH =        8
   RHO(1)=    0.500       N(1)  =     2000
   RHO(2)=  100.500       N(2)  =     4000
 


--------------------------------------------------------------------------------------------------------


 ion  position               nearest neighbor table
   1  0.809  0.833  0.271-  51 1.93  85 1.93  53 1.93  52 1.97  50 1.97  18 3.04   4 3.04   2 3.04

   2  0.593  0.667  0.306-  49 1.93 116 1.93  54 1.93  52 1.93  55 1.97  53 1.97  33 3.04   3 3.04
                             1 3.04   7 3.06
   3  0.309  0.667  0.271-  55 1.93 121 1.93  57 1.93  56 1.97  49 1.97  36 3.04   2 3.04   4 3.04

   4  0.093  0.833  0.306-  50 1.93  88 1.93  58 1.93  56 1.93  51 1.97  57 1.97  19 3.04   1 3.04
                             3 3.04   5 3.06
   5  0.946  0.833  0.413-  59 1.92  93 1.93  61 1.93  51 1.97  60 1.97  58 1.97   8 2.99   6 3.03
                            22 3.03   4 3.06
   6  0.728  0.666  0.445-  54 1.89 124 1.93  60 1.93  62 1.94  63 1.97  61 1.98   7 3.00   5 3.03
                            37 3.04  11 3.08
   7  0.445  0.666  0.413-  63 1.92 129 1.92  65 1.93  55 1.96  64 1.97  54 1.98   6 3.00   8 3.04
                            40 3.04   2 3.06
   8  0.227  0.833  0.446-  58 1.90  96 1.93  64 1.93  66 1.96  59 1.96  65 1.98   5 2.99  23 3.04
                             7 3.04   9 3.08
   9  0.087  0.834  0.556-  67 1.92 101 1.92  69 1.93  68 1.96  66 1.98  59 1.99  12 2.94  10 3.03
                            26 3.03   8 3.08
  10  0.867  0.666  0.584-  62 1.87 132 1.92  68 1.93  71 1.94  69 1.98  70 1.98  11 2.97   9 3.03
                            41 3.04  15 3.14
  11  0.586  0.666  0.555- 137 1.92  71 1.92  73 1.93  63 1.96  72 1.96  62 1.99  10 2.97  12 3.04
                            44 3.04   6 3.08
  12  0.366  0.833  0.586-  66 1.87 104 1.93  72 1.93  67 1.94  74 1.98  73 1.99   9 2.94  27 3.04
                            11 3.04
  13  0.232  0.833  0.701-  75 1.85  77 1.92 109 1.93  76 1.99  74 2.06  67 2.07  16 2.85  30 3.06
                            14 3.07
  14  0.002  0.666  0.723-  70 1.79  78 1.84 140 1.96  76 1.97  77 2.02  15 2.86  13 3.07  45 3.08

  15  0.730  0.666  0.697-  78 1.88 144 1.92  80 1.94  79 1.98  71 2.01  70 2.05  14 2.86  16 3.06
                            48 3.07  10 3.14
  16  0.505  0.834  0.724-  74 1.79  75 1.83  79 1.96 111 1.96  80 2.02  13 2.85  31 3.05  15 3.06

  17  0.809  0.167  0.271-  83 1.93  85 1.93 117 1.93  84 1.97  82 1.97  18 3.04  20 3.04  34 3.04

  18  0.593  0.000  0.306-  81 1.93  52 1.93  84 1.93  86 1.93  85 1.97  87 1.97   1 3.04  17 3.04
                            19 3.04  23 3.06
  19  0.309  0.000  0.271-  87 1.93  57 1.93  89 1.93  88 1.97  81 1.97  20 3.04   4 3.04  18 3.04

  20  0.093  0.167  0.306-  82 1.93  88 1.93  90 1.93 120 1.93  83 1.97  89 1.97  19 3.04  17 3.04
                            35 3.04  21 3.06
  21  0.946  0.167  0.413-  91 1.92  93 1.93 125 1.93  83 1.97  92 1.97  90 1.97  24 2.99  38 3.03
                            22 3.03  20 3.06
  22  0.727  1.000  0.446-  86 1.89  60 1.93  92 1.93  94 1.95  95 1.97  93 1.98  23 3.00   5 3.03
                            21 3.03  27 3.09
  23  0.446  0.000  0.413-  95 1.92  97 1.93  65 1.93  87 1.96  96 1.97  86 1.98  22 3.00   8 3.04
                            24 3.04  18 3.06
  24  0.227  0.167  0.446-  90 1.90  96 1.93 128 1.93  98 1.96  91 1.96  97 1.98  21 2.99  23 3.04
                            39 3.04  25 3.08
  25  0.087  0.166  0.556-  99 1.92 101 1.92 133 1.93 100 1.96  98 1.98  91 1.99  28 2.94  42 3.03
                            26 3.03  24 3.08
  26  0.866  1.000  0.585-  94 1.87  68 1.93 100 1.93 103 1.94 102 1.98 101 1.99  27 2.95   9 3.03
                            25 3.03  31 3.17
  27  0.586  0.000  0.555- 103 1.92 105 1.93  73 1.93 104 1.97  95 1.98  94 1.98  26 2.95  12 3.04
                            28 3.04  22 3.09
  28  0.366  0.167  0.586-  98 1.87 104 1.93 136 1.93  99 1.94 106 1.98 105 1.99  25 2.94  27 3.04
                            43 3.04
  29  0.232  0.167  0.701- 107 1.85 141 1.92 109 1.93 108 1.99 106 2.06  99 2.07  32 2.85  30 3.06
                            46 3.07
  30  0.004  1.000  0.723- 102 1.79 110 1.83  76 1.97 108 1.97 109 2.01  31 2.84  13 3.06  29 3.06

  31  0.733  0.000  0.700- 110 1.86  80 1.92 112 1.92 111 1.99 102 2.05 103 2.07  30 2.84  16 3.05
                            32 3.05  26 3.17
  32  0.505  0.166  0.724- 106 1.79 107 1.83 143 1.96 111 1.96 112 2.02  29 2.85  31 3.05  47 3.06

  33  0.809  0.500  0.271- 115 1.93  53 1.93 117 1.93 116 1.97 114 1.97  34 3.04   2 3.04  36 3.04

  34  0.593  0.333  0.306- 113 1.93 116 1.93 118 1.93  84 1.93 117 1.97 119 1.97  33 3.04  35 3.04
                            17 3.04  39 3.06
  35  0.309  0.333  0.271- 119 1.93 121 1.93  89 1.93 120 1.97 113 1.97  36 3.04  34 3.04  20 3.04

  36  0.093  0.500  0.306- 114 1.93  56 1.93 120 1.93 122 1.93 121 1.97 115 1.97   3 3.04  35 3.04
                            33 3.04  37 3.05
  37  0.947  0.500  0.413- 123 1.92 125 1.93  61 1.93 122 1.96 115 1.96 124 1.97  40 2.99   6 3.04
                            38 3.04  36 3.05
  38  0.728  0.334  0.445- 118 1.89 124 1.93  92 1.93 126 1.94 127 1.97 125 1.98  39 3.00  21 3.03
                            37 3.04  43 3.08
  39  0.445  0.334  0.413- 127 1.92 129 1.92  97 1.93 119 1.96 128 1.97 118 1.98  38 3.00  24 3.04
                            40 3.04  34 3.06
  40  0.227  0.500  0.447- 122 1.92 128 1.93  64 1.93 123 1.95 130 1.96 129 1.99  37 2.99   7 3.04
                            39 3.04  41 3.05
  41  0.090  0.500  0.556- 131 1.92 133 1.93  69 1.93 130 1.96 132 1.98 123 1.99  44 2.96  10 3.04
                            42 3.04  40 3.05
  42  0.867  0.334  0.584- 126 1.87 132 1.92 100 1.93 135 1.94 133 1.98 134 1.98  43 2.97  25 3.03
                            41 3.04  47 3.14
  43  0.586  0.334  0.555- 137 1.92 135 1.92 105 1.93 127 1.96 136 1.96 126 1.99  42 2.97  28 3.04
                            44 3.04  38 3.08
  44  0.367  0.500  0.589- 130 1.91 136 1.93  72 1.93 131 1.93 138 1.97 137 2.00  41 2.96  11 3.04
                            43 3.04  45 3.12
  45  0.235  0.500  0.702- 139 1.85  77 1.93 141 1.93 138 2.01 140 2.02 131 2.07  48 2.87  46 3.08
                            14 3.08  44 3.12
  46  0.002  0.334  0.723- 134 1.79 142 1.84 140 1.96 108 1.97 141 2.02  47 2.86  29 3.07  45 3.08

  47  0.730  0.334  0.697- 142 1.88 144 1.92 112 1.94 143 1.98 135 2.01 134 2.05  46 2.86  32 3.06
                            48 3.07  42 3.14
  48  0.507  0.500  0.730- 139 1.82 138 1.87  79 1.97 143 1.97 144 2.06  45 2.87  47 3.07  15 3.07

  49  0.489  0.667  0.242-   2 1.93   3 1.97
  50  0.989  0.833  0.242-   4 1.93   1 1.97
  51  0.914  0.833  0.335-   1 1.93   5 1.97   4 1.97
  52  0.630  0.833  0.300-  18 1.93   2 1.93   1 1.97
  53  0.772  0.667  0.277-  33 1.93   1 1.93   2 1.97
  54  0.624  0.667  0.383-   6 1.89   2 1.93   7 1.98
  55  0.414  0.667  0.335-   3 1.93   7 1.96   2 1.97
  56  0.130  0.667  0.300-  36 1.93   4 1.93   3 1.97
  57  0.272  0.833  0.277-  19 1.93   3 1.93   4 1.97
  58  0.124  0.833  0.383-   8 1.90   4 1.93   5 1.97
  59  0.051  0.833  0.477-   5 1.92   8 1.96   9 1.99
  60  0.766  0.833  0.441-  22 1.93   6 1.93   5 1.97
  61  0.909  0.667  0.418-   5 1.93  37 1.93   6 1.98
  62  0.763  0.666  0.522-  10 1.87   6 1.94  11 1.99
  63  0.551  0.666  0.477-   7 1.92  11 1.96   6 1.97
  64  0.266  0.667  0.441-  40 1.93   8 1.93   7 1.97
  65  0.408  0.833  0.418-   7 1.93  23 1.93   8 1.98
  66  0.263  0.833  0.523-  12 1.87   8 1.96   9 1.98
  67  0.194  0.833  0.619-   9 1.92  12 1.94  13 2.07
  68  0.905  0.833  0.581-  26 1.93  10 1.93   9 1.96
  69  0.051  0.667  0.560-  41 1.93   9 1.93  10 1.98
  70  0.911  0.668  0.662-  14 1.79  10 1.98  15 2.05
  71  0.695  0.669  0.618-  11 1.92  10 1.94  15 2.01
  72  0.406  0.667  0.583-  44 1.93  12 1.93  11 1.96
  73  0.549  0.833  0.559-  27 1.93  11 1.93  12 1.99
  74  0.410  0.834  0.663-  16 1.79  12 1.98  13 2.06
  75  0.348  0.833  0.759-  16 1.83  13 1.85
  76  0.052  0.833  0.732-  30 1.97  14 1.97  13 1.99
  77  0.193  0.666  0.703-  13 1.92  45 1.93  14 2.02
  78  0.842  0.661  0.757-  14 1.84  15 1.88
  79  0.555  0.668  0.732-  16 1.96  48 1.97  15 1.98
  80  0.694  0.834  0.700-  31 1.92  15 1.94  16 2.02
  81  0.489  0.000  0.242-  18 1.93  19 1.97
  82  0.989  0.167  0.242-  20 1.93  17 1.97
  83  0.914  0.167  0.335-  17 1.93  21 1.97  20 1.97
  84  0.630  0.167  0.300-  18 1.93  34 1.93  17 1.97
  85  0.772  0.000  0.277-   1 1.93  17 1.93  18 1.97
  86  0.624  0.000  0.383-  22 1.89  18 1.93  23 1.98
  87  0.414  0.000  0.335-  19 1.93  23 1.96  18 1.97
  88  0.130  0.000  0.300-   4 1.93  20 1.93  19 1.97
  89  0.272  0.167  0.277-  19 1.93  35 1.93  20 1.97
  90  0.124  0.167  0.383-  24 1.90  20 1.93  21 1.97
  91  0.051  0.167  0.477-  21 1.92  24 1.96  25 1.99
  92  0.766  0.167  0.441-  22 1.93  38 1.93  21 1.97
  93  0.909  1.000  0.418-   5 1.93  21 1.93  22 1.98
  94  0.763  0.000  0.523-  26 1.87  22 1.95  27 1.98
  95  0.551  0.000  0.477-  23 1.92  22 1.97  27 1.98
  96  0.266  1.000  0.441-   8 1.93  24 1.93  23 1.97
  97  0.408  0.167  0.418-  39 1.93  23 1.93  24 1.98
  98  0.263  0.167  0.523-  28 1.87  24 1.96  25 1.98
  99  0.194  0.167  0.619-  25 1.92  28 1.94  29 2.07
 100  0.905  0.167  0.581-  26 1.93  42 1.93  25 1.96
 101  0.051  1.000  0.560-  25 1.92   9 1.92  26 1.99
 102  0.911  1.000  0.662-  30 1.79  26 1.98  31 2.05
 103  0.695  0.000  0.618-  27 1.92  26 1.94  31 2.07
 104  0.405  0.000  0.582-  12 1.93  28 1.93  27 1.97
 105  0.549  0.167  0.559-  27 1.93  43 1.93  28 1.99
 106  0.410  0.166  0.663-  32 1.79  28 1.98  29 2.06
 107  0.348  0.167  0.759-  32 1.83  29 1.85
 108  0.052  0.167  0.732-  30 1.97  46 1.97  29 1.99
 109  0.194  0.000  0.702-  29 1.93  13 1.93  30 2.01
 110  0.847  1.000  0.758-  30 1.83  31 1.86
 111  0.555  0.000  0.733-  32 1.96  16 1.96  31 1.99
 112  0.694  0.166  0.700-  31 1.92  47 1.94  32 2.02
 113  0.489  0.333  0.242-  34 1.93  35 1.97
 114  0.989  0.500  0.242-  36 1.93  33 1.97
 115  0.914  0.500  0.335-  33 1.93  37 1.96  36 1.97
 116  0.630  0.500  0.300-   2 1.93  34 1.93  33 1.97
 117  0.772  0.333  0.277-  33 1.93  17 1.93  34 1.97
 118  0.624  0.333  0.383-  38 1.89  34 1.93  39 1.98
 119  0.414  0.333  0.335-  35 1.93  39 1.96  34 1.97
 120  0.130  0.333  0.300-  36 1.93  20 1.93  35 1.97
 121  0.272  0.500  0.277-   3 1.93  35 1.93  36 1.97
 122  0.124  0.500  0.383-  40 1.92  36 1.93  37 1.96
 123  0.052  0.500  0.477-  37 1.92  40 1.95  41 1.99
 124  0.766  0.500  0.440-  38 1.93   6 1.93  37 1.97
 125  0.909  0.333  0.418-  21 1.93  37 1.93  38 1.98
 126  0.763  0.334  0.522-  42 1.87  38 1.94  43 1.99
 127  0.551  0.334  0.477-  39 1.92  43 1.96  38 1.97
 128  0.266  0.333  0.441-  40 1.93  24 1.93  39 1.97
 129  0.409  0.500  0.418-  39 1.92   7 1.92  40 1.99
 130  0.265  0.500  0.524-  44 1.91  41 1.96  40 1.96
 131  0.195  0.500  0.620-  41 1.92  44 1.93  45 2.07
 132  0.906  0.500  0.581-  10 1.92  42 1.92  41 1.98
 133  0.051  0.333  0.560-  41 1.93  25 1.93  42 1.98
 134  0.911  0.332  0.662-  46 1.79  42 1.98  47 2.05
 135  0.695  0.331  0.618-  43 1.92  42 1.94  47 2.01
 136  0.406  0.333  0.583-  44 1.93  28 1.93  43 1.96
 137  0.550  0.500  0.560-  43 1.92  11 1.92  44 2.00
 138  0.412  0.500  0.666-  48 1.87  44 1.97  45 2.01
 139  0.345  0.500  0.761-  48 1.82  45 1.85
 140  0.052  0.500  0.732-  46 1.96  14 1.96  45 2.02
 141  0.193  0.334  0.703-  29 1.92  45 1.93  46 2.02
 142  0.842  0.339  0.757-  46 1.84  47 1.88
 143  0.555  0.332  0.732-  32 1.96  48 1.97  47 1.98
 144  0.691  0.500  0.696-  47 1.92  15 1.92  48 2.06
 

IMPORTANT INFORMATION: All symmetrisations will be switched off!
NOSYMM: (Re-)initialisation of all symmetry stuff for point group C_1.


----------------------------------------------------------------------------------------

                                     Primitive cell                                     

  volume of cell :    2875.9226

  direct lattice vectors                    reciprocal lattice vectors
    10.237069764  0.000000000  0.000000000     0.097684203 -0.000000000  0.000000000
     0.000000000 11.308341211  0.000000000     0.000000000  0.088430299  0.000000000
     0.000000000  0.000000000 24.842918924     0.000000000  0.000000000  0.040252919

  length of vectors
    10.237069764 11.308341211 24.842918924     0.097684203  0.088430299  0.040252919

  position of ions in fractional coordinates (direct lattice)
     0.809356535  0.833333333  0.270760136
     0.593252186  0.666666667  0.306027808
     0.309356535  0.666666667  0.270760136
     0.093252186  0.833333333  0.306027808
     0.946172536  0.833423591  0.413280637
     0.728066116  0.666359980  0.445472570
     0.445461893  0.666490868  0.413113906
     0.227143951  0.833296505  0.445984892
     0.087256570  0.833523127  0.555849052
     0.866752970  0.666348524  0.584172103
     0.585513558  0.666488674  0.554737765
     0.365524335  0.833353572  0.585616904
     0.232185265  0.832737636  0.701240381
     0.001904487  0.665766977  0.723483237
     0.730121001  0.665742277  0.697415907
     0.504795805  0.834152336  0.723633846
     0.809356535  0.166666667  0.270760136
     0.593252186  0.000000000  0.306027808
     0.309356535  0.000000000  0.270760136
     0.093252186  0.166666667  0.306027808
     0.946172556  0.166576374  0.413280640
     0.727472880  0.999999980  0.445653650
     0.445636556  0.000000007  0.413243580
     0.227143958  0.166703501  0.445984925
     0.087256639  0.166476852  0.555849060
     0.865580736  0.999999976  0.584767352
     0.586080636  0.000000046  0.555327590
     0.365524338  0.166646481  0.585616997
     0.232185346  0.167262311  0.701240464
     0.004067093  0.999999967  0.723450616
     0.732985614  0.000000006  0.699964474
     0.504795696  0.165847698  0.723634051
     0.809356535  0.500000000  0.270760136
     0.593252186  0.333333333  0.306027808
     0.309356535  0.333333333  0.270760136
     0.093252186  0.500000000  0.306027808
     0.947333943  0.499999935  0.413110349
     0.728066046  0.333639938  0.445472601
     0.445461943  0.333509109  0.413113914
     0.227463027  0.499999976  0.447046557
     0.089744447  0.499999918  0.556099363
     0.866752863  0.333651369  0.584172244
     0.585513701  0.333511298  0.554737867
     0.367338856  0.499999991  0.588791889
     0.235211778  0.500000039  0.701773255
     0.001904740  0.334233083  0.723483328
     0.730121113  0.334257902  0.697416165
     0.506772886  0.500000120  0.730259093
     0.488542111  0.666666667  0.241517513
     0.988542111  0.833333333  0.241517513
     0.914066610  0.833333333  0.335270431
     0.630170959  0.833333333  0.300002759
     0.772437762  0.666666667  0.276785185
     0.624124715  0.666666667  0.382588199
     0.414066610  0.666666667  0.335270431
     0.130170959  0.666666667  0.300002759
     0.272437762  0.833333333  0.276785185
     0.124124715  0.833333333  0.382588199
     0.051411504  0.833487979  0.477182841
     0.766094014  0.833282582  0.440759624
     0.909455836  0.666609677  0.418221178
     0.763071100  0.665868029  0.522393419
     0.551013566  0.666264923  0.477025156
     0.265897871  0.666539875  0.441323093
     0.408498355  0.833235716  0.418125385
     0.263345489  0.833101110  0.523253222
     0.194162891  0.833065152  0.619214009
     0.905392568  0.833417605  0.580693616
     0.051062943  0.666527041  0.559716347
     0.911358868  0.667809325  0.661888332
     0.695336363  0.669023844  0.617616667
     0.405967344  0.666508649  0.582670073
     0.548831953  0.833320019  0.559275635
     0.410245048  0.834334827  0.662991288
     0.347710872  0.833120798  0.758718508
     0.052467192  0.832719692  0.732221298
     0.193205628  0.666347466  0.702773558
     0.842495630  0.661017173  0.757369020
     0.555257971  0.668382083  0.731880444
     0.693844460  0.833609410  0.700374337
     0.488542111  0.000000000  0.241517513
     0.988542111  0.166666667  0.241517513
     0.914066610  0.166666667  0.335270431
     0.630170959  0.166666667  0.300002759
     0.772437762  0.000000000  0.276785185
     0.624124715  0.000000000  0.382588199
     0.414066610  0.000000000  0.335270431
     0.130170959  0.000000000  0.300002759
     0.272437762  0.166666667  0.276785185
     0.124124715  0.166666667  0.382588199
     0.051411532  0.166511978  0.477182867
     0.766094038  0.166717390  0.440759630
     0.909066516  0.999999978  0.418192461
     0.762714196  0.000000000  0.522701391
     0.551020276  0.000000067  0.476984217
     0.265915310  0.999999988  0.441225432
     0.408498323  0.166764254  0.418125373
     0.263345556  0.166898869  0.523253271
     0.194163013  0.166934818  0.619214072
     0.905392636  0.166582368  0.580693699
     0.050694481  0.999999995  0.559910265
     0.911252496  0.999999980  0.662300288
     0.694609050  0.000000097  0.618286500
     0.405195498  0.000000029  0.581871331
     0.548832036  0.166680020  0.559275722
     0.410245242  0.165665516  0.662991483
     0.347710756  0.166878957  0.758718633
     0.052467141  0.167280316  0.732221256
     0.193621711  0.000000013  0.702468403
     0.846756721  0.999999873  0.758123496
     0.555158098  0.000000018  0.732629315
     0.693844566  0.166390731  0.700374621
     0.488542111  0.333333333  0.241517513
     0.988542111  0.500000000  0.241517513
     0.914066610  0.500000000  0.335270431
     0.630170959  0.500000000  0.300002759
     0.772437762  0.333333333  0.276785185
     0.624124715  0.333333333  0.382588199
     0.414066610  0.333333333  0.335270431
     0.130170959  0.333333333  0.300002759
     0.272437762  0.500000000  0.276785185
     0.124124715  0.500000000  0.382588199
     0.052027016  0.499999932  0.477462385
     0.766275161  0.499999939  0.440455151
     0.909455838  0.333390250  0.418221182
     0.763071109  0.334131885  0.522393499
     0.551013624  0.333734994  0.477025177
     0.265897865  0.333460091  0.441323097
     0.408534562  0.499999979  0.418208192
     0.264732354  0.500000019  0.524348529
     0.194709134  0.499999965  0.620051966
     0.905947467  0.499999937  0.581288627
     0.051062912  0.333472873  0.559716401
     0.911358826  0.332190695  0.661888539
     0.695336304  0.330976083  0.617616889
     0.405967321  0.333491371  0.582670046
     0.550059878  0.499999978  0.560451720
     0.411817736  0.499999833  0.666003700
     0.345412885  0.500000201  0.760976752
     0.052441200  0.500000037  0.732061935
     0.193205632  0.333652513  0.702773644
     0.842495796  0.338983164  0.757369304
     0.555258315  0.331618232  0.731881189
     0.690569038  0.499999926  0.696323980

  ion indices of the primitive-cell ions
   primitive index   ion index
                 1           1
                 2           2
                 3           3
                 4           4
                 5           5
                 6           6
                 7           7
                 8           8
                 9           9
                10          10
                11          11
                12          12
                13          13
                14          14
                15          15
                16          16
                17          17
                18          18
                19          19
                20          20
                21          21
                22          22
                23          23
                24          24
                25          25
                26          26
                27          27
                28          28
                29          29
                30          30
                31          31
                32          32
                33          33
                34          34
                35          35
                36          36
                37          37
                38          38
                39          39
                40          40
                41          41
                42          42
                43          43
                44          44
                45          45
                46          46
                47          47
                48          48
                49          49
                50          50
                51          51
                52          52
                53          53
                54          54
                55          55
                56          56
                57          57
                58          58
                59          59
                60          60
                61          61
                62          62
                63          63
                64          64
                65          65
                66          66
                67          67
                68          68
                69          69
                70          70
                71          71
                72          72
                73          73
                74          74
                75          75
                76          76
                77          77
                78          78
                79          79
                80          80
                81          81
                82          82
                83          83
                84          84
                85          85
                86          86
                87          87
                88          88
                89          89
                90          90
                91          91
                92          92
                93          93
                94          94
                95          95
                96          96
                97          97
                98          98
                99          99
               100         100
               101         101
               102         102
               103         103
               104         104
               105         105
               106         106
               107         107
               108         108
               109         109
               110         110
               111         111
               112         112
               113         113
               114         114
               115         115
               116         116
               117         117
               118         118
               119         119
               120         120
               121         121
               122         122
               123         123
               124         124
               125         125
               126         126
               127         127
               128         128
               129         129
               130         130
               131         131
               132         132
               133         133
               134         134
               135         135
               136         136
               137         137
               138         138
               139         139
               140         140
               141         141
               142         142
               143         143
               144         144

----------------------------------------------------------------------------------------

 
 
 KPOINTS: pymatgen v2020.8.13 with grid density = 

Automatic generation of k-mesh.
 Grid dimensions read from file:
 generate k-points for:    3    3    1

 Generating k-lattice:

  Cartesian coordinates                     Fractional coordinates (reciprocal lattice)
     0.032561401 -0.000000000  0.000000000     0.333333333 -0.000000000  0.000000000
     0.000000000  0.029476766  0.000000000     0.000000000  0.333333333  0.000000000
     0.000000000  0.000000000  0.040252919     0.000000000  0.000000000  1.000000000

  Length of vectors
     0.032561401  0.029476766  0.040252919

  Shift w.r.t. Gamma in fractional coordinates (k-lattice)
     0.000000000  0.000000000  0.000000000

 
 Subroutine IBZKPT returns following result:
 ===========================================
 
 Found      5 irreducible k-points:
 
 Following reciprocal coordinates:
            Coordinates               Weight
  0.000000  0.000000  0.000000      1.000000
  0.333333 -0.000000  0.000000      2.000000
  0.000000  0.333333  0.000000      2.000000
  0.333333  0.333333  0.000000      2.000000
  0.333333 -0.333333  0.000000      2.000000
 
 Following cartesian coordinates:
            Coordinates               Weight
  0.000000  0.000000  0.000000      1.000000
  0.032561 -0.000000  0.000000      2.000000
  0.000000  0.029477  0.000000      2.000000
  0.032561  0.029477  0.000000      2.000000
  0.032561 -0.029477  0.000000      2.000000
 


--------------------------------------------------------------------------------------------------------




 Dimension of arrays:
   k-points           NKPTS =      5   k-points in BZ     NKDIM =      5   number of bands    NBANDS=    760
   number of dos      NEDOS =    301   number of ions     NIONS =    144
   non local maximal  LDIM  =      6   non local SUM 2l+1 LMDIM =     18
   total plane-waves  NPLWV = ******
   max r-space proj   IRMAX =      1   max aug-charges    IRDMAX=  20609
   dimension x,y,z NGX =    84 NGY =   90 NGZ =  200
   dimension x,y,z NGXF=   168 NGYF=  180 NGZF=  400
   support grid    NGXF=   168 NGYF=  180 NGZF=  400
   ions per type =              48  96
   NGX,Y,Z   is equivalent  to a cutoff of  13.64, 13.23, 13.38 a.u.
   NGXF,Y,Z  is equivalent  to a cutoff of  27.28, 26.46, 26.77 a.u.

 SYSTEM =  TiO2                                    
 POSCAR =  Ti  O                                   

--------------------------------------------------------------------------------------------------------


  energy-cutoff  :      600.00
  volume of cell :     2875.92
      direct lattice vectors                 reciprocal lattice vectors
    10.237069764  0.000000000  0.000000000     0.097684203 -0.000000000  0.000000000
     0.000000000 11.308341211  0.000000000     0.000000000  0.088430299  0.000000000
     0.000000000  0.000000000 24.842918924     0.000000000  0.000000000  0.040252919

  length of vectors
    10.237069764 11.308341211 24.842918924     0.097684203  0.088430299  0.040252919


 
 k-points in units of 2pi/SCALE and weight: pymatgen v2020.8.13 with grid density = 
   0.00000000  0.00000000  0.00000000       0.111
   0.03256140 -0.00000000  0.00000000       0.222
   0.00000000  0.02947677  0.00000000       0.222
   0.03256140  0.02947677  0.00000000       0.222
   0.03256140 -0.02947677  0.00000000       0.222
 
 k-points in reciprocal lattice and weights: pymatgen v2020.8.13 with grid density = 
   0.00000000  0.00000000  0.00000000       0.111
   0.33333333 -0.00000000  0.00000000       0.222
   0.00000000  0.33333333  0.00000000       0.222
   0.33333333  0.33333333  0.00000000       0.222
   0.33333333 -0.33333333  0.00000000       0.222
 
 position of ions in fractional coordinates (direct lattice) 
   0.80935653  0.83333333  0.27076014
   0.59325219  0.66666667  0.30602781
   0.30935653  0.66666667  0.27076014
   0.09325219  0.83333333  0.30602781
   0.94617254  0.83342359  0.41328064
   0.72806612  0.66635998  0.44547257
   0.44546189  0.66649087  0.41311391
   0.22714395  0.83329651  0.44598489
   0.08725657  0.83352313  0.55584905
   0.86675297  0.66634852  0.58417210
   0.58551356  0.66648867  0.55473776
   0.36552434  0.83335357  0.58561690
   0.23218527  0.83273764  0.70124038
   0.00190449  0.66576698  0.72348324
   0.73012100  0.66574228  0.69741591
   0.50479581  0.83415234  0.72363385
   0.80935653  0.16666667  0.27076014
   0.59325219  0.00000000  0.30602781
   0.30935653  0.00000000  0.27076014
   0.09325219  0.16666667  0.30602781
   0.94617256  0.16657637  0.41328064
   0.72747288  0.99999998  0.44565365
   0.44563656  0.00000001  0.41324358
   0.22714396  0.16670350  0.44598492
   0.08725664  0.16647685  0.55584906
   0.86558074  0.99999998  0.58476735
   0.58608064  0.00000005  0.55532759
   0.36552434  0.16664648  0.58561700
   0.23218535  0.16726231  0.70124046
   0.00406709  0.99999997  0.72345062
   0.73298561  0.00000001  0.69996447
   0.50479570  0.16584770  0.72363405
   0.80935653  0.50000000  0.27076014
   0.59325219  0.33333333  0.30602781
   0.30935653  0.33333333  0.27076014
   0.09325219  0.50000000  0.30602781
   0.94733394  0.49999994  0.41311035
   0.72806605  0.33363994  0.44547260
   0.44546194  0.33350911  0.41311391
   0.22746303  0.49999998  0.44704656
   0.08974445  0.49999992  0.55609936
   0.86675286  0.33365137  0.58417224
   0.58551370  0.33351130  0.55473787
   0.36733886  0.49999999  0.58879189
   0.23521178  0.50000004  0.70177325
   0.00190474  0.33423308  0.72348333
   0.73012111  0.33425790  0.69741617
   0.50677289  0.50000012  0.73025909
   0.48854211  0.66666667  0.24151751
   0.98854211  0.83333333  0.24151751
   0.91406661  0.83333333  0.33527043
   0.63017096  0.83333333  0.30000276
   0.77243776  0.66666667  0.27678518
   0.62412472  0.66666667  0.38258820
   0.41406661  0.66666667  0.33527043
   0.13017096  0.66666667  0.30000276
   0.27243776  0.83333333  0.27678518
   0.12412472  0.83333333  0.38258820
   0.05141150  0.83348798  0.47718284
   0.76609401  0.83328258  0.44075962
   0.90945584  0.66660968  0.41822118
   0.76307110  0.66586803  0.52239342
   0.55101357  0.66626492  0.47702516
   0.26589787  0.66653988  0.44132309
   0.40849836  0.83323572  0.41812539
   0.26334549  0.83310111  0.52325322
   0.19416289  0.83306515  0.61921401
   0.90539257  0.83341760  0.58069362
   0.05106294  0.66652704  0.55971635
   0.91135887  0.66780933  0.66188833
   0.69533636  0.66902384  0.61761667
   0.40596734  0.66650865  0.58267007
   0.54883195  0.83332002  0.55927563
   0.41024505  0.83433483  0.66299129
   0.34771087  0.83312080  0.75871851
   0.05246719  0.83271969  0.73222130
   0.19320563  0.66634747  0.70277356
   0.84249563  0.66101717  0.75736902
   0.55525797  0.66838208  0.73188044
   0.69384446  0.83360941  0.70037434
   0.48854211  0.00000000  0.24151751
   0.98854211  0.16666667  0.24151751
   0.91406661  0.16666667  0.33527043
   0.63017096  0.16666667  0.30000276
   0.77243776  0.00000000  0.27678518
   0.62412472  0.00000000  0.38258820
   0.41406661  0.00000000  0.33527043
   0.13017096  0.00000000  0.30000276
   0.27243776  0.16666667  0.27678518
   0.12412472  0.16666667  0.38258820
   0.05141153  0.16651198  0.47718287
   0.76609404  0.16671739  0.44075963
   0.90906652  0.99999998  0.41819246
   0.76271420  0.00000000  0.52270139
   0.55102028  0.00000007  0.47698422
   0.26591531  0.99999999  0.44122543
   0.40849832  0.16676425  0.41812537
   0.26334556  0.16689887  0.52325327
   0.19416301  0.16693482  0.61921407
   0.90539264  0.16658237  0.58069370
   0.05069448  0.99999999  0.55991027
   0.91125250  0.99999998  0.66230029
   0.69460905  0.00000010  0.61828650
   0.40519550  0.00000003  0.58187133
   0.54883204  0.16668002  0.55927572
   0.41024524  0.16566552  0.66299148
   0.34771076  0.16687896  0.75871863
   0.05246714  0.16728032  0.73222126
   0.19362171  0.00000001  0.70246840
   0.84675672  0.99999987  0.75812350
   0.55515810  0.00000002  0.73262931
   0.69384457  0.16639073  0.70037462
   0.48854211  0.33333333  0.24151751
   0.98854211  0.50000000  0.24151751
   0.91406661  0.50000000  0.33527043
   0.63017096  0.50000000  0.30000276
   0.77243776  0.33333333  0.27678518
   0.62412472  0.33333333  0.38258820
   0.41406661  0.33333333  0.33527043
   0.13017096  0.33333333  0.30000276
   0.27243776  0.50000000  0.27678518
   0.12412472  0.50000000  0.38258820
   0.05202702  0.49999993  0.47746239
   0.76627516  0.49999994  0.44045515
   0.90945584  0.33339025  0.41822118
   0.76307111  0.33413189  0.52239350
   0.55101362  0.33373499  0.47702518
   0.26589787  0.33346009  0.44132310
   0.40853456  0.49999998  0.41820819
   0.26473235  0.50000002  0.52434853
   0.19470913  0.49999996  0.62005197
   0.90594747  0.49999994  0.58128863
   0.05106291  0.33347287  0.55971640
   0.91135883  0.33219069  0.66188854
   0.69533630  0.33097608  0.61761689
   0.40596732  0.33349137  0.58267005
   0.55005988  0.49999998  0.56045172
   0.41181774  0.49999983  0.66600370
   0.34541288  0.50000020  0.76097675
   0.05244120  0.50000004  0.73206194
   0.19320563  0.33365251  0.70277364
   0.84249580  0.33898316  0.75736930
   0.55525831  0.33161823  0.73188119
   0.69056904  0.49999993  0.69632398
 
 position of ions in cartesian coordinates  (Angst):
   8.28543931  9.42361768  6.72647211
   6.07316402  7.53889414  7.60262401
   3.16690443  7.53889414  6.72647211
   0.95462913  9.42361768  7.60262401
   9.68603426  9.42463834 10.26709736
   7.45326363  7.53542602 11.06683895
   4.56022448  7.53690615 10.26295528
   2.32528848  9.42320121 11.07956652
   0.89325160  9.42576392 13.80891293
   8.87301063  7.53529647 14.51254019
   5.99394315  7.53688134 13.78130531
   3.74189812  9.42384654 14.54843326
   2.37689676  9.41688132 17.42085793
   0.01949637  7.52872014 17.97343541
   7.47429963  7.52844083 17.32584683
   5.16762988  9.43287924 17.97717697
   8.28543931  1.88472354  6.72647211
   6.07316402  0.00000000  7.60262401
   3.16690443  0.00000000  6.72647211
   0.95462913  1.88472354  7.60262401
   9.68603447  1.88370248 10.26709744
   7.44719062 11.30834098 11.07133748
   4.56201252  0.00000008 10.26617676
   2.32528855  1.88514007 11.07956732
   0.89325230  1.88257704 13.80891313
   8.86101038 11.30834094 14.52732791
   5.99974835  0.00000051 13.79595830
   3.74189815  1.88449527 14.54843558
   2.37689759  1.89145929 17.42086000
   0.04163511 11.30834083 17.97262499
   7.50362487  0.00000007 17.38916067
   5.16762875  1.87546235 17.97718205
   8.28543931  5.65417061  6.72647211
   6.07316402  3.76944707  7.60262401
   3.16690443  3.76944707  6.72647211
   0.95462913  5.65417061  7.60262401
   9.69792366  5.65416988 10.26286691
   7.45326290  3.77291426 11.06683971
   4.56022498  3.77143480 10.26295547
   2.32855487  5.65417033 11.10594137
   0.91872016  5.65416968 13.81513139
   8.87300953  3.77304353 14.51254371
   5.99394460  3.77145956 13.78130786
   3.76047350  5.65417051 14.62730915
   2.40787938  5.65417105 17.43409607
   0.01949896  3.77962175 17.97343765
   7.47430077  3.77990240 17.32585325
   5.18786939  5.65417197 18.14176745
   5.00123967  7.53889414  6.00000000
  10.11977455  9.42361768  6.00000000
   9.35736366  9.42361768  8.32909613
   6.45110407  9.42361768  7.45294423
   7.90749926  7.53889414  6.87615190
   6.38920825  7.53889414  9.50460760
   4.23882877  7.53889414  8.32909613
   1.33256919  7.53889414  7.45294423
   2.78896437  9.42361768  6.87615190
   1.27067337  9.42361768  9.50460760
   0.52630315  9.42536646 11.85461463
   7.84255786  9.42304377 10.94975560
   9.31016284  7.53824968 10.38983483
   7.81161208  7.52986288 12.97777735
   5.64076432  7.53435109 11.85069728
   2.72201506  7.53746034 10.96375383
   4.18182616  9.42251378 10.38745504
   2.69588614  9.42099162 12.99913736
   1.98765906  9.42058499 15.38308343
   9.26856688  9.42457064 14.42612443
   0.52273491  7.53731521 13.90498784
   9.32964431  7.55181572 16.44323816
   7.11820686  7.56554991 15.34340080
   4.15591603  7.53710723 14.47522539
   5.61843099  9.42346711 13.89403925
   4.19970718  9.43494291 16.47063882
   3.55954045  9.42121425 18.84878238
   0.53711030  9.41667841 18.19051435
   1.97785949  7.53528451 17.45894652
   8.62468654  7.47500774 18.81525716
   5.68421459  7.55829266 18.18204653
   7.10293414  9.42673965 17.39934287
   5.00123967  0.00000000  6.00000000
  10.11977455  1.88472354  6.00000000
   9.35736366  1.88472354  8.32909613
   6.45110407  1.88472354  7.45294423
   7.90749926  0.00000000  6.87615190
   6.38920825  0.00000000  9.50460760
   4.23882877  0.00000000  8.32909613
   1.33256919  0.00000000  7.45294423
   2.78896437  1.88472354  6.87615190
   1.27067337  1.88472354  9.50460760
   0.52630344  1.88297426 11.85461529
   7.84255811  1.88529713 10.94975575
   9.30617735 11.30834096 10.38912140
   7.80795844  0.00000000 12.98542827
   5.64083300  0.00000075 11.84968023
   2.72219358 11.30834108 10.96132764
   4.18182583  1.88582709 10.38745475
   2.69588683  1.88734936 12.99913859
   1.98766031  1.88775588 15.38308498
   9.26856757  1.88377026 14.42612649
   0.51896294 11.30834115 13.90980532
   9.32855537 11.30834098 16.45347236
   7.11076131  0.00000110 15.36004139
   4.14801458  0.00000032 14.45538231
   5.61843184  1.88487454 13.89404141
   4.19970916  1.87340218 16.47064366
   3.55953927  1.88712418 18.84878548
   0.53710978  1.89166289 18.19051329
   1.98211896  0.00000014 17.45136559
   8.66830762 11.30833978 18.83400055
   5.68319218  0.00000021 18.20065067
   7.10293523  1.88160316 17.39934993
   5.00123967  3.76944707  6.00000000
  10.11977455  5.65417061  6.00000000
   9.35736366  5.65417061  8.32909613
   6.45110407  5.65417061  7.45294423
   7.90749926  3.76944707  6.87615190
   6.38920825  3.76944707  9.50460760
   4.23882877  3.76944707  8.32909613
   1.33256919  3.76944707  7.45294423
   2.78896437  5.65417061  6.87615190
   1.27067337  5.65417061  9.50460760
   0.53260419  5.65416984 11.86155933
   7.84441229  5.65416992 10.94219160
   9.31016286  3.77009071 10.38983493
   7.81161218  3.77847737 12.97777934
   5.64076491  3.77398918 11.85069779
   2.72201500  3.77088049 10.96375392
   4.18219681  5.65417037 10.38951221
   2.71008358  5.65417082 13.02634799
   1.99325099  5.65417021 15.40390071
   9.27424743  5.65416989 14.44090624
   0.52273459  3.77102504 13.90498917
   9.32964388  3.75652572 16.44324332
   7.11820625  3.74279048 15.34340629
   4.15591579  3.77123422 14.47522470
   5.63100135  5.65417035 13.92325664
   4.21580689  5.65416871 16.54547591
   3.53601580  5.65417288 18.90488375
   0.53684423  5.65417103 18.18655531
   1.97785954  3.77305646 17.45894866
   8.62468824  3.83333728 18.81526423
   5.68421811  3.75005212 18.18206504
   7.06940342  5.65416977 17.29872018
 


--------------------------------------------------------------------------------------------------------

--------------------------------------- Iteration      FINAL  ---------------------------------------


--------------------OUTCAR has been truncated-------------------------


--------------------OUTCAR has been truncated-------------------------


--------------------OUTCAR has been truncated-------------------------


--------------------OUTCAR has been truncated-------------------------


--------------------OUTCAR has been truncated-------------------------


--------------------OUTCAR has been truncated-------------------------


--------------------OUTCAR has been truncated-------------------------


--------------------OUTCAR has been truncated-------------------------


--------------------OUTCAR has been truncated-------------------------


--------------------OUTCAR has been truncated-------------------------


  FORCE on cell =-STRESS in cart. coord.  units (eV):
  Direction    XX          YY          ZZ          XY          YZ          ZX
  --------------------------------------------------------------------------------------
  Alpha Z  2738.39356  2738.39356  2738.39356
  Ewald  338063.59515331060.46876************    -0.00149     0.00004 -2157.29491
  Hartree359635.82345355482.34976************    -0.00075    -0.00002 -1395.89292
  E(xc)   -5482.52458 -5482.69665 -5481.23415     0.00000    -0.00000    -1.50680
  Local  ************************706907.02723     0.00219    -0.00000  3559.90071
  n-local -3105.75434 -3081.63689 -3127.93513    -0.00003     0.00000     0.14726
  augment  3305.11498  3300.90086  3295.79390     0.00000     0.00000    -2.89090
  Kinetic 17069.74323 17139.15020 17185.53794     0.00011    -0.00005   -16.47064
  Fock        0.00000     0.00000     0.00000     0.00000     0.00000     0.00000
  -------------------------------------------------------------------------------------
  Total     -18.27908     3.47940     2.74230     0.00004    -0.00004   -14.00820
  in kB     -10.18328     1.93838     1.52774     0.00002    -0.00002    -7.80397
  external pressure =       -2.24 kB  Pullay stress =        0.00 kB


 VOLUME and BASIS-vectors are now :
 -----------------------------------------------------------------------------
  energy-cutoff  :      600.00
  volume of cell :     2875.92
      direct lattice vectors                 reciprocal lattice vectors
    10.237069764  0.000000000  0.000000000     0.097684203 -0.000000000  0.000000000
     0.000000000 11.308341211  0.000000000     0.000000000  0.088430299  0.000000000
     0.000000000  0.000000000 24.842918924     0.000000000  0.000000000  0.040252919

  length of vectors
    10.237069764 11.308341211 24.842918924     0.097684203  0.088430299  0.040252919


 FORCES acting on ions:
    Electron-Ion                     Ewald-Force                    Non-Local-Force
 -----------------------------------------------------------------------------------------------
   0.548E+01 0.204E-02 0.300E+04   -.263E+00 0.144E-02 -.300E+04   -.111E+01 -.722E-03 -.349E+01
   0.472E+01 -.291E-01 0.245E+04   -.637E+01 0.331E-01 -.246E+04   -.102E+00 -.117E-02 -.750E-01
   0.551E+01 0.243E+00 0.300E+04   -.322E+00 -.246E+00 -.300E+04   -.111E+01 0.689E-03 -.349E+01
   0.338E+01 0.201E+00 0.245E+04   -.508E+01 -.205E+00 -.246E+04   -.938E-01 0.978E-03 -.784E-01
   -.183E+00 0.198E+00 0.111E+04   0.340E-01 -.193E+00 -.111E+04   0.145E+00 -.134E-02 0.899E-02
   0.219E+01 -.999E+00 0.693E+03   -.214E+01 0.982E+00 -.693E+03   -.297E-01 0.198E-01 -.125E+00
   0.151E+01 0.506E+00 0.111E+04   -.163E+01 -.509E+00 -.111E+04   0.131E+00 0.600E-02 -.123E-01
   -.402E+01 0.104E+01 0.685E+03   0.405E+01 -.104E+01 -.685E+03   -.135E-01 -.435E-03 -.117E+00
   -.536E+01 0.522E-01 -.722E+03   0.506E+01 -.422E-01 0.722E+03   0.270E+00 -.752E-03 0.126E+00
   -.489E+01 0.103E+01 -.107E+04   0.500E+01 -.981E+00 0.107E+04   -.551E-01 -.361E-01 -.239E+00
   0.202E+01 0.172E+01 -.701E+03   -.217E+01 -.169E+01 0.701E+03   0.207E+00 -.261E-02 0.890E-01
   0.592E-01 0.226E+01 -.109E+04   0.467E-01 -.221E+01 0.109E+04   -.754E-01 -.186E-01 -.265E+00
   0.233E+02 -.551E+00 -.250E+04   -.242E+02 0.583E+00 0.250E+04   0.918E+00 0.489E-02 -.111E+00
   -.576E+02 -.860E+01 -.286E+04   0.572E+02 0.842E+01 0.285E+04   0.787E-01 0.158E+00 0.892E+00
   0.120E+02 -.606E+01 -.246E+04   -.123E+02 0.619E+01 0.246E+04   0.750E+00 -.254E-01 -.196E-01
   -.645E+02 -.284E+01 -.285E+04   0.644E+02 0.303E+01 0.285E+04   0.686E-01 -.322E-01 0.900E+00
   0.548E+01 -.206E-02 0.300E+04   -.263E+00 -.143E-02 -.300E+04   -.111E+01 0.726E-03 -.349E+01
   0.457E+01 -.305E-04 0.245E+04   -.625E+01 0.172E-04 -.246E+04   -.955E-01 0.275E-05 -.817E-01
   0.539E+01 -.121E-04 0.300E+04   -.180E+00 0.150E-04 -.300E+04   -.111E+01 0.612E-06 -.349E+01
   0.338E+01 -.201E+00 0.245E+04   -.508E+01 0.205E+00 -.246E+04   -.938E-01 -.974E-03 -.784E-01
   -.183E+00 -.198E+00 0.111E+04   0.341E-01 0.193E+00 -.111E+04   0.145E+00 0.134E-02 0.900E-02
   -.241E+00 -.347E-04 0.690E+03   0.262E+00 0.374E-04 -.690E+03   -.163E-02 -.824E-06 -.127E+00
   0.109E+01 0.510E-04 0.111E+04   -.121E+01 -.522E-04 -.111E+04   0.134E+00 0.682E-06 -.635E-02
   -.402E+01 -.104E+01 0.685E+03   0.405E+01 0.104E+01 -.685E+03   -.135E-01 0.434E-03 -.117E+00
   -.536E+01 -.524E-01 -.722E+03   0.506E+01 0.424E-01 0.722E+03   0.270E+00 0.757E-03 0.126E+00
   -.395E+01 -.199E-03 -.108E+04   0.403E+01 0.200E-03 0.108E+04   -.378E-01 -.395E-05 -.241E+00
   -.180E+01 -.104E-03 -.713E+03   0.157E+01 0.102E-03 0.713E+03   0.244E+00 0.158E-05 0.143E+00
   0.586E-01 -.226E+01 -.109E+04   0.473E-01 0.221E+01 0.109E+04   -.754E-01 0.186E-01 -.265E+00
   0.233E+02 0.551E+00 -.250E+04   -.242E+02 -.583E+00 0.250E+04   0.918E+00 -.489E-02 -.111E+00
   -.624E+02 -.138E-03 -.285E+04   0.623E+02 0.144E-03 0.285E+04   0.376E-01 0.237E-05 0.883E+00
   0.156E+02 -.616E-03 -.249E+04   -.163E+02 0.649E-03 0.249E+04   0.823E+00 -.127E-05 -.605E-01
   -.645E+02 0.283E+01 -.285E+04   0.644E+02 -.303E+01 0.285E+04   0.686E-01 0.322E-01 0.900E+00
   0.547E+01 0.213E-04 0.300E+04   -.241E+00 -.140E-04 -.300E+04   -.111E+01 -.288E-05 -.349E+01
   0.472E+01 0.292E-01 0.245E+04   -.637E+01 -.331E-01 -.246E+04   -.102E+00 0.116E-02 -.750E-01
   0.551E+01 -.243E+00 0.300E+04   -.322E+00 0.246E+00 -.300E+04   -.111E+01 -.684E-03 -.349E+01
   0.246E+01 0.206E-04 0.245E+04   -.411E+01 -.988E-05 -.246E+04   -.109E+00 -.227E-05 -.743E-01
   -.278E+00 0.800E-04 0.111E+04   0.116E+00 -.658E-04 -.111E+04   0.139E+00 -.150E-05 0.494E-01
   0.219E+01 0.999E+00 0.693E+03   -.214E+01 -.982E+00 -.693E+03   -.297E-01 -.198E-01 -.125E+00
   0.151E+01 -.506E+00 0.111E+04   -.163E+01 0.509E+00 -.111E+04   0.131E+00 -.600E-02 -.123E-01
   -.639E+01 0.781E-04 0.669E+03   0.644E+01 -.647E-04 -.669E+03   -.361E-01 -.343E-05 -.206E-01
   -.346E+01 0.261E-03 -.728E+03   0.312E+01 -.252E-03 0.728E+03   0.229E+00 -.134E-05 0.152E+00
   -.489E+01 -.103E+01 -.107E+04   0.500E+01 0.981E+00 0.107E+04   -.551E-01 0.361E-01 -.239E+00
   0.202E+01 -.172E+01 -.701E+03   -.217E+01 0.169E+01 0.701E+03   0.207E+00 0.261E-02 0.891E-01
   -.400E+01 0.794E-05 -.114E+04   0.407E+01 -.822E-05 0.114E+04   -.875E-01 0.265E-05 0.176E-01
   0.256E+02 0.252E-03 -.250E+04   -.269E+02 -.253E-03 0.250E+04   0.842E+00 -.133E-05 -.431E-01
   -.576E+02 0.860E+01 -.286E+04   0.572E+02 -.842E+01 0.285E+04   0.787E-01 -.158E+00 0.892E+00
   0.120E+02 0.606E+01 -.246E+04   -.123E+02 -.619E+01 0.246E+04   0.750E+00 0.254E-01 -.196E-01
   -.743E+02 -.332E-03 -.294E+04   0.731E+02 0.284E-03 0.294E+04   0.583E+00 0.211E-04 0.239E+01
   -.344E+02 0.289E-01 0.203E+04   0.396E+02 -.276E-01 -.205E+04   -.704E+01 -.144E-02 0.178E+02
   -.347E+02 0.185E-01 0.203E+04   0.399E+02 -.190E-01 -.205E+04   -.703E+01 0.648E-03 0.178E+02
   0.845E+02 0.925E-01 0.122E+04   -.894E+02 -.984E-01 -.122E+04   0.370E+01 0.514E-02 -.432E+01
   0.771E+02 0.482E-02 0.149E+04   -.843E+02 -.129E-02 -.149E+04   0.739E+01 -.704E-02 -.266E+01
   -.889E+02 -.264E-01 0.172E+04   0.963E+02 0.266E-01 -.173E+04   -.689E+01 -.173E-02 -.379E+00
   -.726E+02 -.537E+00 0.935E+03   0.784E+02 0.579E+00 -.939E+03   -.574E+01 -.400E-01 0.416E+01
   0.851E+02 0.258E+00 0.122E+04   -.900E+02 -.240E+00 -.122E+04   0.366E+01 -.214E-01 -.415E+01
   0.763E+02 0.188E+00 0.149E+04   -.834E+02 -.194E+00 -.149E+04   0.741E+01 0.148E-01 -.267E+01
   -.891E+02 0.994E-01 0.172E+04   0.964E+02 -.969E-01 -.172E+04   -.686E+01 -.704E-02 -.383E+00
   -.769E+02 0.395E+00 0.936E+03   0.829E+02 -.397E+00 -.940E+03   -.591E+01 -.105E-02 0.428E+01
   0.815E+02 -.134E+00 0.125E+03   -.882E+02 0.159E+00 -.120E+03   0.651E+01 -.259E-01 -.489E+01
   0.829E+02 0.194E+00 0.419E+03   -.897E+02 -.228E+00 -.416E+03   0.661E+01 0.298E-01 -.284E+01
   -.833E+02 0.215E+00 0.658E+03   0.900E+02 -.208E+00 -.660E+03   -.653E+01 -.880E-02 0.262E+01
   -.688E+02 0.167E+01 -.125E+03   0.739E+02 -.181E+01 0.120E+03   -.494E+01 0.143E+00 0.485E+01
   0.825E+02 0.153E+01 0.131E+03   -.888E+02 -.157E+01 -.127E+03   0.615E+01 0.424E-01 -.397E+01
   0.801E+02 0.117E+01 0.414E+03   -.867E+02 -.114E+01 -.411E+03   0.646E+01 -.350E-01 -.278E+01
   -.816E+02 0.427E+00 0.659E+03   0.881E+02 -.423E+00 -.662E+03   -.640E+01 -.647E-02 0.268E+01
   -.732E+02 0.169E+01 -.128E+03   0.787E+02 -.176E+01 0.123E+03   -.540E+01 0.620E-01 0.537E+01
   0.846E+02 0.754E+00 -.983E+03   -.908E+02 -.775E+00 0.990E+03   0.613E+01 0.139E-01 -.722E+01
   0.818E+02 -.524E+00 -.651E+03   -.888E+02 0.452E+00 0.654E+03   0.681E+01 0.698E-01 -.285E+01
   -.857E+02 0.759E+00 -.428E+03   0.924E+02 -.721E+00 0.425E+03   -.646E+01 -.574E-01 0.251E+01
   -.663E+02 -.600E+01 -.116E+04   0.689E+02 0.660E+01 0.115E+04   -.248E+01 -.604E+00 0.906E+01
   0.854E+02 -.791E+01 -.956E+03   -.917E+02 0.862E+01 0.962E+03   0.615E+01 -.718E+00 -.570E+01
   0.812E+02 0.162E+01 -.669E+03   -.878E+02 -.151E+01 0.672E+03   0.643E+01 -.161E+00 -.291E+01
   -.813E+02 0.361E+00 -.421E+03   0.878E+02 -.394E+00 0.418E+03   -.638E+01 0.198E-01 0.259E+01
   -.570E+02 -.205E+01 -.116E+04   0.589E+02 0.228E+01 0.115E+04   -.170E+01 -.246E+00 0.908E+01
   0.466E+02 -.108E+01 -.205E+04   -.520E+02 0.107E+01 0.207E+04   0.542E+01 -.700E-02 -.219E+02
   0.667E+02 0.111E+01 -.180E+04   -.716E+02 -.123E+01 0.181E+04   0.481E+01 0.164E+00 -.777E+01
   -.603E+02 -.479E+00 -.149E+04   0.653E+02 0.401E+00 0.149E+04   -.473E+01 -.144E-01 0.256E+01
   0.503E+02 0.499E+01 -.204E+04   -.566E+02 -.607E+01 0.207E+04   0.648E+01 0.118E+01 -.215E+02
   0.595E+02 -.523E+00 -.180E+04   -.641E+02 0.817E+00 0.180E+04   0.433E+01 -.850E+00 -.641E+01
   -.678E+02 0.150E+01 -.148E+04   0.736E+02 -.183E+01 0.147E+04   -.577E+01 0.328E+00 0.282E+01
   -.345E+02 -.344E-05 0.203E+04   0.397E+02 0.431E-05 -.205E+04   -.704E+01 0.765E-07 0.178E+02
   -.347E+02 -.185E-01 0.203E+04   0.399E+02 0.190E-01 -.205E+04   -.703E+01 -.652E-03 0.178E+02
   0.845E+02 -.925E-01 0.122E+04   -.894E+02 0.985E-01 -.122E+04   0.370E+01 -.515E-02 -.432E+01
   0.771E+02 -.482E-02 0.149E+04   -.843E+02 0.131E-02 -.149E+04   0.739E+01 0.704E-02 -.266E+01
   -.889E+02 -.297E-04 0.172E+04   0.963E+02 0.105E-04 -.173E+04   -.688E+01 0.472E-05 -.385E+00
   -.734E+02 -.308E-04 0.936E+03   0.792E+02 0.276E-04 -.940E+03   -.577E+01 0.245E-05 0.422E+01
   0.847E+02 0.557E-06 0.122E+04   -.895E+02 0.387E-05 -.122E+04   0.365E+01 -.666E-06 -.427E+01
   0.765E+02 -.140E-04 0.149E+04   -.837E+02 0.177E-04 -.149E+04   0.741E+01 -.118E-04 -.265E+01
   -.891E+02 -.994E-01 0.172E+04   0.964E+02 0.970E-01 -.172E+04   -.686E+01 0.704E-02 -.383E+00
   -.769E+02 -.395E+00 0.936E+03   0.829E+02 0.397E+00 -.940E+03   -.591E+01 0.106E-02 0.428E+01
   0.815E+02 0.134E+00 0.125E+03   -.882E+02 -.159E+00 -.120E+03   0.651E+01 0.259E-01 -.489E+01
   0.829E+02 -.194E+00 0.419E+03   -.897E+02 0.228E+00 -.416E+03   0.661E+01 -.298E-01 -.284E+01
   -.820E+02 -.131E-03 0.658E+03   0.886E+02 0.123E-03 -.661E+03   -.642E+01 0.335E-05 0.263E+01
   -.702E+02 -.127E-03 -.126E+03   0.755E+02 0.119E-03 0.121E+03   -.515E+01 0.257E-05 0.510E+01
   0.814E+02 -.229E-03 0.128E+03   -.878E+02 0.238E-03 -.123E+03   0.623E+01 -.105E-04 -.459E+01
   0.803E+02 -.162E-03 0.414E+03   -.870E+02 0.163E-03 -.411E+03   0.646E+01 -.559E-05 -.293E+01
   -.816E+02 -.427E+00 0.659E+03   0.881E+02 0.423E+00 -.662E+03   -.640E+01 0.645E-02 0.268E+01
   -.732E+02 -.169E+01 -.128E+03   0.787E+02 0.176E+01 0.123E+03   -.540E+01 -.620E-01 0.537E+01
   0.846E+02 -.754E+00 -.983E+03   -.908E+02 0.775E+00 0.990E+03   0.613E+01 -.139E-01 -.722E+01
   0.818E+02 0.524E+00 -.651E+03   -.888E+02 -.452E+00 0.654E+03   0.681E+01 -.698E-01 -.285E+01
   -.835E+02 -.171E-03 -.431E+03   0.900E+02 0.168E-03 0.429E+03   -.627E+01 0.732E-05 0.232E+01
   -.631E+02 -.107E-03 -.116E+04   0.655E+02 0.113E-03 0.115E+04   -.221E+01 -.670E-05 0.922E+01
   0.844E+02 -.503E-03 -.973E+03   -.908E+02 0.528E-03 0.980E+03   0.615E+01 -.233E-04 -.708E+01
   0.812E+02 -.290E-03 -.662E+03   -.878E+02 0.279E-03 0.666E+03   0.645E+01 0.121E-04 -.303E+01
   -.813E+02 -.361E+00 -.421E+03   0.878E+02 0.394E+00 0.418E+03   -.638E+01 -.198E-01 0.259E+01
   -.570E+02 0.205E+01 -.116E+04   0.589E+02 -.228E+01 0.115E+04   -.170E+01 0.246E+00 0.908E+01
   0.466E+02 0.108E+01 -.205E+04   -.520E+02 -.107E+01 0.207E+04   0.542E+01 0.705E-02 -.219E+02
   0.667E+02 -.111E+01 -.180E+04   -.716E+02 0.123E+01 0.181E+04   0.481E+01 -.164E+00 -.777E+01
   -.650E+02 0.206E-03 -.149E+04   0.710E+02 -.210E-03 0.149E+04   -.580E+01 0.537E-06 0.279E+01
   0.474E+02 0.361E-03 -.205E+04   -.531E+02 -.377E-03 0.207E+04   0.570E+01 0.148E-04 -.219E+02
   0.584E+02 0.258E-03 -.181E+04   -.627E+02 -.272E-03 0.182E+04   0.413E+01 0.879E-05 -.830E+01
   -.678E+02 -.150E+01 -.148E+04   0.736E+02 0.183E+01 0.147E+04   -.577E+01 -.328E+00 0.282E+01
   -.344E+02 -.288E-01 0.203E+04   0.396E+02 0.276E-01 -.205E+04   -.704E+01 0.144E-02 0.178E+02
   -.348E+02 0.130E-04 0.203E+04   0.400E+02 -.413E-05 -.205E+04   -.705E+01 -.820E-06 0.177E+02
   0.849E+02 -.258E-05 0.122E+04   -.899E+02 0.193E-04 -.122E+04   0.379E+01 -.107E-04 -.429E+01
   0.772E+02 0.624E-05 0.149E+04   -.844E+02 -.154E-04 -.149E+04   0.738E+01 0.374E-05 -.266E+01
   -.889E+02 0.264E-01 0.172E+04   0.963E+02 -.267E-01 -.173E+04   -.689E+01 0.174E-02 -.379E+00
   -.726E+02 0.537E+00 0.935E+03   0.784E+02 -.579E+00 -.939E+03   -.574E+01 0.399E-01 0.416E+01
   0.851E+02 -.258E+00 0.122E+04   -.900E+02 0.240E+00 -.122E+04   0.366E+01 0.214E-01 -.415E+01
   0.763E+02 -.188E+00 0.149E+04   -.834E+02 0.194E+00 -.149E+04   0.741E+01 -.148E-01 -.267E+01
   -.890E+02 0.129E-04 0.172E+04   0.963E+02 -.113E-04 -.172E+04   -.685E+01 0.147E-05 -.400E+00
   -.834E+02 -.392E-04 0.932E+03   0.902E+02 0.478E-04 -.936E+03   -.663E+01 -.104E-04 0.406E+01
   0.847E+02 0.154E-03 0.123E+03   -.920E+02 -.153E-03 -.118E+03   0.717E+01 0.101E-05 -.486E+01
   0.809E+02 0.541E-04 0.423E+03   -.874E+02 -.429E-04 -.421E+03   0.633E+01 -.125E-04 -.260E+01
   -.833E+02 -.215E+00 0.658E+03   0.900E+02 0.208E+00 -.660E+03   -.653E+01 0.880E-02 0.262E+01
   -.688E+02 -.167E+01 -.125E+03   0.739E+02 0.181E+01 0.120E+03   -.494E+01 -.143E+00 0.485E+01
   0.825E+02 -.153E+01 0.131E+03   -.888E+02 0.157E+01 -.127E+03   0.615E+01 -.424E-01 -.397E+01
   0.801E+02 -.117E+01 0.414E+03   -.867E+02 0.114E+01 -.411E+03   0.646E+01 0.350E-01 -.278E+01
   -.788E+02 0.586E-04 0.657E+03   0.851E+02 -.515E-04 -.660E+03   -.615E+01 -.713E-05 0.269E+01
   -.850E+02 -.235E-04 -.141E+03   0.921E+02 0.484E-04 0.136E+03   -.689E+01 -.224E-04 0.465E+01
   0.886E+02 0.139E-03 -.985E+03   -.958E+02 -.137E-03 0.992E+03   0.719E+01 0.179E-05 -.699E+01
   0.760E+02 0.285E-03 -.656E+03   -.823E+02 -.282E-03 0.659E+03   0.610E+01 0.409E-05 -.296E+01
   -.857E+02 -.759E+00 -.428E+03   0.924E+02 0.721E+00 0.425E+03   -.646E+01 0.574E-01 0.251E+01
   -.663E+02 0.600E+01 -.116E+04   0.689E+02 -.660E+01 0.115E+04   -.248E+01 0.604E+00 0.906E+01
   0.854E+02 0.791E+01 -.956E+03   -.917E+02 -.862E+01 0.962E+03   0.615E+01 0.718E+00 -.570E+01
   0.812E+02 -.162E+01 -.669E+03   -.878E+02 0.151E+01 0.672E+03   0.643E+01 0.161E+00 -.291E+01
   -.776E+02 0.202E-03 -.434E+03   0.839E+02 -.201E-03 0.431E+03   -.620E+01 0.390E-05 0.222E+01
   -.754E+02 0.882E-03 -.119E+04   0.803E+02 -.937E-03 0.119E+04   -.441E+01 0.522E-04 0.801E+01
   0.578E+02 -.413E-03 -.205E+04   -.646E+02 0.432E-03 0.207E+04   0.721E+01 -.144E-04 -.209E+02
   0.591E+02 -.449E-03 -.180E+04   -.632E+02 0.462E-03 0.181E+04   0.415E+01 0.134E-05 -.757E+01
   -.603E+02 0.479E+00 -.149E+04   0.653E+02 -.401E+00 0.149E+04   -.473E+01 0.144E-01 0.256E+01
   0.503E+02 -.499E+01 -.204E+04   -.566E+02 0.607E+01 0.207E+04   0.648E+01 -.118E+01 -.215E+02
   0.595E+02 0.524E+00 -.180E+04   -.641E+02 -.818E+00 0.180E+04   0.433E+01 0.850E+00 -.641E+01
   -.478E+02 -.654E-03 -.143E+04   0.517E+02 0.705E-03 0.142E+04   -.414E+01 -.196E-04 0.606E+01
 -----------------------------------------------------------------------------------------------
   -.104E+02 -.279E-04 0.691E+02   0.568E-13 -.141E-11 0.750E-11   0.104E+02 0.665E-04 -.692E+02
 
 
 POSITION                                       TOTAL-FORCE (eV/Angst)
 -----------------------------------------------------------------------------------
      8.28544      9.42362      6.72647         4.086029      0.002726      1.625090
      6.07316      7.53889      7.60262        -1.739919      0.002756     -2.001426
      3.16690      7.53889      6.72647         4.055568     -0.001477      1.604605
      0.95463      9.42362      7.60262        -1.778551     -0.003447     -2.005446
      9.68603      9.42464     10.26710        -0.000581      0.004079     -0.026999
      7.45326      7.53543     11.06684         0.014340      0.001211      0.024902
      4.56022      7.53691     10.26296         0.008597      0.002335     -0.036556
      2.32529      9.42320     11.07957         0.007912      0.005303      0.018684
      0.89325      9.42576     13.80891        -0.026523      0.009989     -0.010472
      8.87301      7.53530     14.51254         0.031884      0.010776      0.127284
      5.99394      7.53688     13.78131         0.050894      0.033742     -0.018753
      3.74190      9.42385     14.54843         0.013262      0.034565      0.045382
      2.37690      9.41688     17.42086        -0.023419      0.034645      0.098447
      0.01950      7.52872     17.97344        -0.493686     -0.023723      0.269558
      7.47430      7.52844     17.32585         0.484516      0.097667      0.508395
      5.16763      9.43288     17.97718        -0.142593      0.157346      0.106679
      8.28544      1.88472      6.72647         4.086014     -0.002734      1.625088
      6.07316      0.00000      7.60262        -1.760431     -0.000011     -1.996923
      3.16690      0.00000      6.72647         4.077864      0.000003      1.617406
      0.95463      1.88472      7.60262        -1.778550      0.003438     -2.005416
      9.68603      1.88370     10.26710        -0.000567     -0.004088     -0.027011
      7.44719     11.30834     11.07134         0.012020      0.000002      0.025770
      4.56201      0.00000     10.26618         0.012295     -0.000001     -0.028632
      2.32529      1.88514     11.07957         0.007905     -0.005319      0.018663
      0.89325      1.88258     13.80891        -0.026518     -0.009991     -0.010461
      8.86101     11.30834     14.52733         0.024784     -0.000003      0.089280
      5.99975      0.00000     13.79596         0.018515     -0.000000     -0.008196
      3.74190      1.88450     14.54844         0.013256     -0.034571      0.045379
      2.37690      1.89146     17.42086        -0.023445     -0.034640      0.098448
      0.04164     11.30834     17.97262        -0.181218      0.000008      0.127483
      7.50362      0.00000     17.38916         0.107809      0.000030      0.125679
      5.16763      1.87546     17.97718        -0.142542     -0.157290      0.106694
      8.28544      5.65417      6.72647         4.091976      0.000004      1.619058
      6.07316      3.76945      7.60262        -1.739929     -0.002737     -2.001451
      3.16690      3.76945      6.72647         4.055594      0.001484      1.604601
      0.95463      5.65417      7.60262        -1.750398      0.000008     -1.947315
      9.69792      5.65417     10.26287        -0.017412      0.000012     -0.029560
      7.45326      3.77291     11.06684         0.014356     -0.001217      0.024909
      4.56022      3.77143     10.26296         0.008594     -0.002337     -0.036554
      2.32855      5.65417     11.10594         0.011465      0.000010     -0.022677
      0.91872      5.65417     13.81513        -0.103075      0.000008     -0.046571
      8.87301      3.77304     14.51254         0.031878     -0.010781      0.127314
      5.99394      3.77146     13.78131         0.050897     -0.033734     -0.018749
      3.76047      5.65417     14.62731        -0.031288      0.000002     -0.257284
      2.40788      5.65417     17.43410        -0.440139     -0.000002     -0.016015
      0.01950      3.77962     17.97344        -0.493740      0.023718      0.269649
      7.47430      3.77990     17.32585         0.484527     -0.097693      0.508440
      5.18787      5.65417     18.14177        -0.719817     -0.000027     -1.656274
      5.00124      7.53889      6.00000        -1.830510     -0.000196      0.947219
     10.11977      9.42362      6.00000        -1.824101      0.000163      0.941861
      9.35736      9.42362      8.32910        -1.192393     -0.000845     -0.055569
      6.45110      9.42362      7.45294         0.214094     -0.003517      0.002664
      7.90750      7.53889      6.87615         0.444079     -0.001460     -1.179766
      6.38921      7.53889      9.50461         0.045680      0.002530      0.283435
      4.23883      7.53889      8.32910        -1.202603     -0.003481     -0.049616
      1.33257      7.53889      7.45294         0.225283      0.008303     -0.004099
      2.78896      9.42362      6.87615         0.455112     -0.004564     -1.182071
      1.27067      9.42362      9.50461         0.137378     -0.003314      0.354877
      0.52630      9.42537     11.85461        -0.162475     -0.000966      0.079156
      7.84256      9.42304     10.94976        -0.169315     -0.003668      0.072504
      9.31016      7.53825     10.38983         0.166248     -0.002168     -0.061109
      7.81161      7.52986     12.97778         0.137197     -0.002104     -0.080492
      5.64076      7.53435     11.85070        -0.169801     -0.003947      0.076848
      2.72202      7.53746     10.96375        -0.171025     -0.003438      0.075453
      4.18183      9.42251     10.38746         0.165526     -0.003001     -0.063087
      2.69589      9.42099     12.99914         0.160594     -0.006975     -0.061136
      1.98766      9.42058     15.38308        -0.159768     -0.007347      0.097668
      9.26857      9.42457     14.42612        -0.154768     -0.001706      0.041035
      0.52273      7.53732     13.90499         0.175522     -0.019032     -0.076381
      9.32964      7.55182     16.44324         0.142479     -0.005797     -0.111310
      7.11821      7.56555     15.34340        -0.217945     -0.011350      0.044267
      4.15592      7.53711     14.47523        -0.178949     -0.050785      0.091116
      5.61843      9.42347     13.89404         0.145124     -0.012766     -0.072669
      4.19971      9.43494     16.47064         0.223617     -0.012713      0.030020
      3.55954      9.42121     18.84878         0.034349     -0.015723      0.027031
      0.53711      9.41668     18.19051        -0.070413      0.047267      0.041077
      1.97786      7.53528     17.45895         0.278637     -0.092184     -0.108972
      8.62469      7.47501     18.81526         0.188954      0.113406     -0.389376
      5.68421      7.55829     18.18205        -0.257659     -0.556342      0.365942
      7.10293      9.42674     17.39934         0.065776     -0.002361     -0.095182
      5.00124      0.00000      6.00000        -1.828438      0.000001      0.943195
     10.11977      1.88472      6.00000        -1.824111     -0.000165      0.941854
      9.35736      1.88472      8.32910        -1.192380      0.000836     -0.055558
      6.45110      1.88472      7.45294         0.214086      0.003519      0.002652
      7.90750      0.00000      6.87615         0.447302     -0.000015     -1.181844
      6.38921      0.00000      9.50461         0.066311     -0.000001      0.289705
      4.23883      0.00000      8.32910        -1.201318      0.000003     -0.057024
      1.33257      0.00000      7.45294         0.220025     -0.000008      0.002820
      2.78896      1.88472      6.87615         0.455119      0.004558     -1.182071
      1.27067      1.88472      9.50461         0.137394      0.003310      0.354874
      0.52630      1.88297     11.85462        -0.162476      0.000961      0.079154
      7.84256      1.88530     10.94976        -0.169321      0.003675      0.072510
      9.30618     11.30834     10.38912         0.164933     -0.000005     -0.064675
      7.80796      0.00000     12.98543         0.146765     -0.000006     -0.075874
      5.64083      0.00000     11.84968        -0.167279     -0.000002      0.076467
      2.72219     11.30834     10.96133        -0.169807     -0.000005      0.073634
      4.18183      1.88583     10.38745         0.165528      0.003008     -0.063098
      2.69589      1.88735     12.99914         0.160604      0.006980     -0.061137
      1.98766      1.88776     15.38308        -0.159760      0.007347      0.097668
      9.26857      1.88377     14.42613        -0.154765      0.001698      0.041039
      0.51896     11.30834     13.90981         0.165591      0.000004     -0.073542
      9.32856     11.30834     16.45347         0.175029     -0.000001     -0.014473
      7.11076      0.00000     15.36004        -0.182732      0.000001      0.079988
      4.14801      0.00000     14.45538        -0.169207      0.000001      0.062447
      5.61843      1.88487     13.89404         0.145104      0.012757     -0.072663
      4.19971      1.87340     16.47064         0.223606      0.012716      0.029953
      3.55954      1.88712     18.84879         0.034330      0.015719      0.027052
      0.53711      1.89166     18.19051        -0.070406     -0.047291      0.041089
      1.98212      0.00000     17.45137         0.166336     -0.000003     -0.097086
      8.66831     11.30834     18.83400        -0.006033     -0.000001     -0.021880
      5.68319      0.00000     18.20065        -0.167844     -0.000005      0.054128
      7.10294      1.88160     17.39935         0.065763      0.002352     -0.095197
      5.00124      3.76945      6.00000        -1.830506      0.000200      0.947229
     10.11977      5.65417      6.00000        -1.836228      0.000008      0.932524
      9.35736      5.65417      8.32910        -1.202750      0.000006     -0.058943
      6.45110      5.65417      7.45294         0.211953     -0.000006      0.003245
      7.90750      3.76945      6.87615         0.444073      0.001469     -1.179781
      6.38921      3.76945      9.50461         0.045684     -0.002529      0.283434
      4.23883      3.76945      8.32910        -1.202599      0.003477     -0.049602
      1.33257      3.76945      7.45294         0.225288     -0.008300     -0.004094
      2.78896      5.65417      6.87615         0.459579      0.000003     -1.187059
      1.27067      5.65417      9.50461         0.218691     -0.000002      0.495824
      0.53260      5.65417     11.86156        -0.150910      0.000003      0.103164
      7.84441      5.65417     10.94219        -0.167225     -0.000001      0.067725
      9.31016      3.77009     10.38983         0.166243      0.002175     -0.061111
      7.81161      3.77848     12.97778         0.137207      0.002104     -0.080476
      5.64076      3.77399     11.85070        -0.169805      0.003946      0.076864
      2.72201      3.77088     10.96375        -0.171027      0.003444      0.075451
      4.18220      5.65417     10.38951         0.159501     -0.000000     -0.060873
      2.71008      5.65417     13.02635         0.218055      0.000002     -0.000716
      1.99325      5.65417     15.40390        -0.066186      0.000004      0.196811
      9.27425      5.65417     14.44091        -0.139494      0.000007      0.041559
      0.52273      3.77103     13.90499         0.175525      0.019025     -0.076378
      9.32964      3.75653     16.44324         0.142481      0.005800     -0.111373
      7.11821      3.74279     15.34341        -0.217957      0.011345      0.044232
      4.15592      3.77123     14.47522        -0.178937      0.050779      0.091119
      5.63100      5.65417     13.92326         0.122951      0.000005     -0.037832
      4.21581      5.65417     16.54548         0.510677     -0.000003      0.626194
      3.53602      5.65417     18.90488         0.444275      0.000005      0.308788
      0.53684      5.65417     18.18656         0.050068      0.000014     -0.001373
      1.97786      3.77306     17.45895         0.278661      0.092190     -0.108962
      8.62469      3.83334     18.81526         0.188980     -0.113413     -0.389426
      5.68422      3.75005     18.18207        -0.257676      0.556310      0.365883
      7.06940      5.65417     17.29872        -0.228879      0.000032      0.358365
 -----------------------------------------------------------------------------------
    total drift:                                0.004482      0.000039     -0.097106


--------------------------------------------------------------------------------------------------------



  FREE ENERGIE OF THE ION-ELECTRON SYSTEM (eV)
  ---------------------------------------------------
  free  energy   TOTEN  =     -1624.69310988 eV

  energy  without entropy=    -1624.69310988  energy(sigma->0) =    -1624.69310988
 


--------------------------------------------------------------------------------------------------------


    POTLOK:  cpu time      0.8441: real time      0.8468


--------------------------------------------------------------------------------------------------------


     LOOP+:  cpu time   1102.8211: real time   1108.0489
    4ORBIT:  cpu time      0.0000: real time      0.0000

 total amount of memory used by VASP MPI-rank0   354253. kBytes
=======================================================================

   base      :      30000. kBytes
   nonl-proj :     180400. kBytes
   fftplans  :      24704. kBytes
   grid      :      59116. kBytes
   one-center:       1119. kBytes
   wavefun   :      58914. kBytes
 
  
  
 General timing and accounting informations for this job:
 ========================================================
  
                  Total CPU time used (sec):     1125.017
                            User time (sec):     1108.443
                          System time (sec):       16.574
                         Elapsed time (sec):     1131.067
  
                   Maximum memory used (kb):      885032.
                   Average memory used (kb):          N/A
  
                          Minor page faults:       246389
                          Major page faults:           90
                 Voluntary context switches:         6368
