 vasp.6.3.0 20Jan22 (build Apr  1 2022 16:44:48) complex                         
 executed on        HPECrayEX_GCC date 2022.11.13  00:43:03
 running  512 mpi-ranks, with    1 threads/rank
 distrk:  each k-point on  512 cores,    1 groups
 distr:  one band on NCORE=   8 cores,   64 groups


--------------------------------------------------------------------------------------------------------


 INCAR:
   SYSTEM = MgO-rocksalt
   ISMEAR = 0
   SIGMA = 0.05
   EDIFF = 1E-6
   ALGO = ALL
   ISTART = 0
   IBRION = -1
   NSW = 0
   ISYM = 0
   DIPOL = 0.5 0.5 0.5
   IDIPOL = 3
   LDIPOL = .TRUE.
   GGA = RE
   IVDW = 13
   VDW_S8 = 1.7468
   VDW_A1 = 0.5363
   VDW_A2 = 3.0726
   ENCUT = 600
   PREC = Accurate
   LASPH = .TRUE.
   LREAL = .FALSE.
   ISPIN = 2
   MAGMOM = 1.0 0.0 0.0 0.0 0.0 0.0 0.0 0.0 0.0 0.0 0.0 0.0 0.0 0.0 0.0 0.0 0.0 0.0 0.0 0.0 0.0 0.0 0.0 0.0 0.0 0.0 0.0 0.0 0.0 0.0 0.0 0.0 0.0 0.0 0.0 0.0 0.0 0.0 0.0 0.0 0.0 0.0 0.0 0.0 0.0 0.0 0.0 0.0 0.0 0.0 0.0 0.0 0.0 0.0 0.0 0.0 0.0 0.0 0.0 0.0 0.0 0.0 0.0 0.0 0.0 0.0
   NELM = 200
   NELMIN = 8
   NCORE = 8
   KPAR = 1
   LWAVE = .FALSE.
   LCHARG = .FALSE.

 POTCAR:    PAW_PBE N 08Apr2002                   
 POTCAR:    PAW_PBE O 08Apr2002                   
 POTCAR:    PAW_PBE Mg_pv 13Apr2007               
 POTCAR:    PAW_PBE O 08Apr2002                   
 POTCAR:    PAW_PBE N 08Apr2002                   
   SHA256 =  e053789ff3a61a86a1b75d8a110fcc91f86041011e7b0817c7c99e4e8a6349d7 N/POTCAR              
   COPYR  = (c) Copyright 08Apr2002 Georg Kresse                                                    
   COPYR  = This file is part of the software VASP. Any use, copying, and all other rights are regul
   COPYR  = If you do not have a valid VASP license, you may not use, copy or distribute this file. 
   VRHFIN =N: s2p3                                                                                  
   LEXCH  = PE                                                                                      
   EATOM  =   264.5486 eV,   19.4438 Ry                                                             
                                                                                                    
   TITEL  = PAW_PBE N 08Apr2002                                                                     
   LULTRA =        F    use ultrasoft PP ?                                                          
   IUNSCR =        1    unscreen: 0-lin 1-nonlin 2-no                                               
   RPACOR =    1.200    partial core radius                                                         
   POMASS =   14.001; ZVAL   =    5.000    mass and valenz                                          
   RCORE  =    1.500    outmost cutoff radius                                                       
   RWIGS  =    1.400; RWIGS  =    0.741    wigner-seitz radius (au A)                               
   ENMAX  =  400.000; ENMIN  =  300.000 eV                                                          
   ICORE  =        2    local potential                                                             
   LCOR   =        T    correct aug charges                                                         
   LPAW   =        T    paw PP                                                                      
   EAUG   =  627.112                                                                                
   DEXC   =    0.000                                                                                
   RMAX   =    1.529    core radius for proj-oper                                                   
   RAUG   =    1.300    factor for augmentation sphere                                              
   RDEP   =    1.514    radius for radial grids                                                     
   RDEPT  =    1.338    core radius for aug-charge                                                  
                                                                                                    
   Atomic configuration                                                                             
    4 entries                                                                                       
     n  l   j            E        occ.                                                              
     1  0  0.50      -384.7179   2.0000                                                             
     2  0  0.50       -18.5828   2.0000                                                             
     2  1  0.50        -7.0898   3.0000                                                             
     3  2  1.50        -6.8029   0.0000                                                             
   Description                                                                                      
     l       E           TYP  RCUT    TYP  RCUT                                                     
     0    -18.5828119     23  1.200                                                                 
     0    -13.5018863     23  1.200                                                                 
     1     -7.0897853     23  1.500                                                                 
     1      9.5240782     23  1.500                                                                 
     2     -6.8029130      7  1.500                                                                 
  local pseudopotential read in
  partial core-charges read in
  partial kinetic energy density read in
  atomic valenz-charges read in
  non local Contribution for L=           0  read in
    real space projection operators read in
  non local Contribution for L=           0  read in
    real space projection operators read in
  non local Contribution for L=           1  read in
    real space projection operators read in
  non local Contribution for L=           1  read in
    real space projection operators read in
    PAW grid and wavefunctions read in

   number of l-projection  operators is LMAX  =           4
   number of lm-projection operators is LMMAX =           8

 POTCAR:    PAW_PBE O 08Apr2002                   
   SHA256 =  818f92134a0a090dccd8ba1447fa70422a3b330e708bb4f08108d8ae51209ddf O/POTCAR              
   COPYR  = (c) Copyright 08Apr2002 Georg Kresse                                                    
   COPYR  = This file is part of the software VASP. Any use, copying, and all other rights are regul
   COPYR  = If you do not have a valid VASP license, you may not use, copy or distribute this file. 
   VRHFIN =O: s2p4                                                                                  
   LEXCH  = PE                                                                                      
   EATOM  =   432.3788 eV,   31.7789 Ry                                                             
                                                                                                    
   TITEL  = PAW_PBE O 08Apr2002                                                                     
   LULTRA =        F    use ultrasoft PP ?                                                          
   IUNSCR =        1    unscreen: 0-lin 1-nonlin 2-no                                               
   RPACOR =    1.200    partial core radius                                                         
   POMASS =   16.000; ZVAL   =    6.000    mass and valenz                                          
   RCORE  =    1.520    outmost cutoff radius                                                       
   RWIGS  =    1.550; RWIGS  =    0.820    wigner-seitz radius (au A)                               
   ENMAX  =  400.000; ENMIN  =  300.000 eV                                                          
   ICORE  =        2    local potential                                                             
   LCOR   =        T    correct aug charges                                                         
   LPAW   =        T    paw PP                                                                      
   EAUG   =  605.392                                                                                
   DEXC   =    0.000                                                                                
   RMAX   =    1.553    core radius for proj-oper                                                   
   RAUG   =    1.300    factor for augmentation sphere                                              
   RDEP   =    1.550    radius for radial grids                                                     
   RDEPT  =    1.329    core radius for aug-charge                                                  
                                                                                                    
   Atomic configuration                                                                             
    4 entries                                                                                       
     n  l   j            E        occ.                                                              
     1  0  0.50      -514.6923   2.0000                                                             
     2  0  0.50       -23.9615   2.0000                                                             
     2  1  0.50        -9.0305   4.0000                                                             
     3  2  1.50        -9.5241   0.0000                                                             
   Description                                                                                      
     l       E           TYP  RCUT    TYP  RCUT                                                     
     0    -23.9615318     23  1.200                                                                 
     0     -9.5240782     23  1.200                                                                 
     1     -9.0304911     23  1.520                                                                 
     1      8.1634956     23  1.520                                                                 
     2     -9.5240782      7  1.500                                                                 
  local pseudopotential read in
  partial core-charges read in
  partial kinetic energy density read in
  kinetic energy density of atom read in
  atomic valenz-charges read in
  non local Contribution for L=           0  read in
    real space projection operators read in
  non local Contribution for L=           0  read in
    real space projection operators read in
  non local Contribution for L=           1  read in
    real space projection operators read in
  non local Contribution for L=           1  read in
    real space projection operators read in
    PAW grid and wavefunctions read in

   number of l-projection  operators is LMAX  =           4
   number of lm-projection operators is LMMAX =           8

 POTCAR:    PAW_PBE Mg_pv 13Apr2007               
   SHA256 =  f474ac0dd33840b9ae76c01d57fea79fdf77cdfbb07d5ade72c65f83c709b62b Mg_pv/POTCAR          
   COPYR  = (c) Copyright 13Apr2007 Georg Kresse                                                    
   COPYR  = This file is part of the software VASP. Any use, copying, and all other rights are regul
   COPYR  = If you do not have a valid VASP license, you may not use, copy or distribute this file. 
   VRHFIN =Mg: p6s2                                                                                 
   LEXCH  = PE                                                                                      
   EATOM  =  1056.7344 eV,   77.6678 Ry                                                             
                                                                                                    
   TITEL  = PAW_PBE Mg_pv 13Apr2007                                                                 
   LULTRA =        F    use ultrasoft PP ?                                                          
   IUNSCR =        1    unscreen: 0-lin 1-nonlin 2-no                                               
   RPACOR =    1.500    partial core radius                                                         
   POMASS =   24.305; ZVAL   =    8.000    mass and valenz                                          
   RCORE  =    2.000    outmost cutoff radius                                                       
   RWIGS  =    2.000; RWIGS  =    1.058    wigner-seitz radius (au A)                               
   ENMAX  =  403.929; ENMIN  =  302.947 eV                                                          
   RCLOC  =    1.506    cutoff for local pot                                                        
   LCOR   =        T    correct aug charges                                                         
   LPAW   =        T    paw PP                                                                      
   EAUG   =  758.780                                                                                
   DEXC   =    0.000                                                                                
   RMAX   =    2.045    core radius for proj-oper                                                   
   RAUG   =    1.300    factor for augmentation sphere                                              
   RDEP   =    2.025    radius for radial grids                                                     
   RDEPT  =    1.557    core radius for aug-charge                                                  
                                                                                                    
   Atomic configuration                                                                             
    5 entries                                                                                       
     n  l   j            E        occ.                                                              
     1  0  0.50     -1259.6230   2.0000                                                             
     2  0  0.50       -79.8442   2.0000                                                             
     2  1  1.50       -46.6121   6.0000                                                             
     3  0  0.50        -4.7055   2.0000                                                             
     3  2  1.50        -1.3606   0.0000                                                             
   Description                                                                                      
     l       E           TYP  RCUT    TYP  RCUT                                                     
     1    -46.6121073     23  1.600                                                                 
     1      2.7211652     23  1.600                                                                 
     0     -4.7054661     23  2.000                                                                 
     0     61.2262170     23  2.000                                                                 
     2     -1.3605826     23  2.000                                                                 
  local pseudopotential read in
  partial core-charges read in
  partial kinetic energy density read in
  atomic valenz-charges read in
  non local Contribution for L=           1  read in
    real space projection operators read in
  non local Contribution for L=           1  read in
    real space projection operators read in
  non local Contribution for L=           0  read in
    real space projection operators read in
  non local Contribution for L=           0  read in
    real space projection operators read in
  non local Contribution for L=           2  read in
    real space projection operators read in
    PAW grid and wavefunctions read in

   number of l-projection  operators is LMAX  =           5
   number of lm-projection operators is LMMAX =          13

 POTCAR:    PAW_PBE O 08Apr2002                   
   SHA256 =  818f92134a0a090dccd8ba1447fa70422a3b330e708bb4f08108d8ae51209ddf O/POTCAR              
   COPYR  = (c) Copyright 08Apr2002 Georg Kresse                                                    
   COPYR  = This file is part of the software VASP. Any use, copying, and all other rights are regul
   COPYR  = If you do not have a valid VASP license, you may not use, copy or distribute this file. 
   VRHFIN =O: s2p4                                                                                  
   LEXCH  = PE                                                                                      
   EATOM  =   432.3788 eV,   31.7789 Ry                                                             
                                                                                                    
   TITEL  = PAW_PBE O 08Apr2002                                                                     
   LULTRA =        F    use ultrasoft PP ?                                                          
   IUNSCR =        1    unscreen: 0-lin 1-nonlin 2-no                                               
   RPACOR =    1.200    partial core radius                                                         
   POMASS =   16.000; ZVAL   =    6.000    mass and valenz                                          
   RCORE  =    1.520    outmost cutoff radius                                                       
   RWIGS  =    1.550; RWIGS  =    0.820    wigner-seitz radius (au A)                               
   ENMAX  =  400.000; ENMIN  =  300.000 eV                                                          
   ICORE  =        2    local potential                                                             
   LCOR   =        T    correct aug charges                                                         
   LPAW   =        T    paw PP                                                                      
   EAUG   =  605.392                                                                                
   DEXC   =    0.000                                                                                
   RMAX   =    1.553    core radius for proj-oper                                                   
   RAUG   =    1.300    factor for augmentation sphere                                              
   RDEP   =    1.550    radius for radial grids                                                     
   RDEPT  =    1.329    core radius for aug-charge                                                  
                                                                                                    
   Atomic configuration                                                                             
    4 entries                                                                                       
     n  l   j            E        occ.                                                              
     1  0  0.50      -514.6923   2.0000                                                             
     2  0  0.50       -23.9615   2.0000                                                             
     2  1  0.50        -9.0305   4.0000                                                             
     3  2  1.50        -9.5241   0.0000                                                             
   Description                                                                                      
     l       E           TYP  RCUT    TYP  RCUT                                                     
     0    -23.9615318     23  1.200                                                                 
     0     -9.5240782     23  1.200                                                                 
     1     -9.0304911     23  1.520                                                                 
     1      8.1634956     23  1.520                                                                 
     2     -9.5240782      7  1.500                                                                 
  local pseudopotential read in
  partial core-charges read in
  partial kinetic energy density read in
  kinetic energy density of atom read in
  atomic valenz-charges read in
  non local Contribution for L=           0  read in
    real space projection operators read in
  non local Contribution for L=           0  read in
    real space projection operators read in
  non local Contribution for L=           1  read in
    real space projection operators read in
  non local Contribution for L=           1  read in
    real space projection operators read in
    PAW grid and wavefunctions read in

   number of l-projection  operators is LMAX  =           4
   number of lm-projection operators is LMMAX =           8

 -----------------------------------------------------------------------------
|                                                                             |
|               ----> ADVICE to this user running VASP <----                  |
|                                                                             |
|     You have a (more or less) 'large supercell' and for larger cells it     |
|     might be more efficient to use real-space projection operators.         |
|     Therefore, try LREAL= Auto in the INCAR file.                           |
|     Mind: For very accurate calculation, you might also keep the            |
|     reciprocal projection scheme (i.e. LREAL=.FALSE.).                      |
|                                                                             |
 -----------------------------------------------------------------------------

 -----------------------------------------------------------------------------
|                                                                             |
|               ----> ADVICE to this user running VASP <----                  |
|                                                                             |
|     You enforced a specific xc type in the INCAR file but a different       |
|     type was found in the POTCAR file.                                      |
|     I HOPE YOU KNOW WHAT YOU ARE DOING!                                     |
|                                                                             |
 -----------------------------------------------------------------------------

  PAW_PBE N 08Apr2002                   :
 energy of atom  1       EATOM= -264.5486
 kinetic energy error for atom=    0.0103 (will be added to EATOM!!)
  PAW_PBE O 08Apr2002                   :
 energy of atom  2       EATOM= -432.3788
 kinetic energy error for atom=    0.0168 (will be added to EATOM!!)
  PAW_PBE Mg_pv 13Apr2007               :
 energy of atom  3       EATOM=-1056.7344
 kinetic energy error for atom=    0.0221 (will be added to EATOM!!)
  PAW_PBE O 08Apr2002                   :
 energy of atom  4       EATOM= -432.3788
 kinetic energy error for atom=    0.0168 (will be added to EATOM!!)


 POSCAR:  N  O Mg  O
  positions in direct lattice
  No initial velocities read in
 -----------------------------------------------------------------------------
|                                                                             |
|           W    W    AA    RRRRR   N    N  II  N    N   GGGG   !!!           |
|           W    W   A  A   R    R  NN   N  II  NN   N  G    G  !!!           |
|           W    W  A    A  R    R  N N  N  II  N N  N  G       !!!           |
|           W WW W  AAAAAA  RRRRR   N  N N  II  N  N N  G  GGG   !            |
|           WW  WW  A    A  R   R   N   NN  II  N   NN  G    G                |
|           W    W  A    A  R    R  N    N  II  N    N   GGGG   !!!           |
|                                                                             |
|     Specifying the vdW parameters                                           |
|     VDW_S8 = 1.747                                                          |
|     VDW_A1 = 0.536                                                          |
|     VDW_A2 = 3.073                                                          |
|     in the INCAR file will overwrite the defaults for revpbe. Please        |
|     make sure that is what you intended.                                    |
|                                                                             |
 -----------------------------------------------------------------------------

 exchange correlation table for  LEXCH =       40
   RHO(1)=    0.500       N(1)  =     2000
   RHO(2)=  100.500       N(2)  =     4000



--------------------------------------------------------------------------------------------------------


 ion  position               nearest neighbor table
   1  0.506  0.507  0.768-   2 1.18
   2  0.435  0.439  0.806-   1 1.18
   3  0.000  0.750  0.350-  35 2.14  37 2.14  38 2.14  45 2.14  54 2.14
   4  0.250  0.000  0.350-  36 2.14  37 2.14  38 2.14  46 2.14  53 2.14
   5  0.000  0.000  0.450-  37 2.14  36 2.14  35 2.14  43 2.14  52 2.14  41 2.14
   6  0.250  0.750  0.450-  38 2.14  36 2.14  35 2.14  44 2.14  51 2.14  42 2.14
   7  1.000  0.750  0.550-  58 2.14  49 2.14  41 2.14  42 2.14  35 2.14  39 2.16
   8  0.250  0.000  0.550-  57 2.14  50 2.14  42 2.14  41 2.14  36 2.14  40 2.16
   9  1.000  1.000  0.649-  41 2.13  47 2.13  39 2.14  56 2.14  40 2.14
  10  0.249  0.750  0.649-  42 2.12  39 2.13  40 2.13  48 2.14  55 2.14
  11  0.000  0.250  0.350-  43 2.14  37 2.14  45 2.14  46 2.14  62 2.14
  12  0.250  0.500  0.350-  44 2.14  38 2.14  45 2.14  46 2.14  61 2.14
  13  0.000  0.500  0.450-  45 2.14  43 2.14  44 2.14  35 2.14  60 2.14  49 2.14
  14  0.250  0.250  0.450-  46 2.14  43 2.14  44 2.14  36 2.14  59 2.14  50 2.14
  15  1.000  0.250  0.550-  49 2.14  66 2.14  50 2.14  41 2.14  43 2.14  47 2.16
  16  0.250  0.500  0.550-  65 2.13  50 2.14  42 2.14  49 2.14  44 2.15  48 2.16
  17  1.000  0.500  0.649-  49 2.13  48 2.13  64 2.13  47 2.14  39 2.14
  18  0.250  0.250  0.649-  50 2.13  47 2.13  40 2.13  48 2.14  63 2.14
  19  0.500  0.750  0.350-  51 2.14  38 2.14  53 2.14  54 2.14  61 2.14
  20  0.750  0.000  0.350-  52 2.14  37 2.14  53 2.14  54 2.14  62 2.14
  21  0.500  0.000  0.450-  53 2.14  51 2.14  52 2.14  36 2.14  59 2.14  57 2.14
  22  0.750  0.750  0.450-  54 2.14  51 2.14  52 2.14  35 2.14  60 2.14  58 2.14
  23  0.500  0.750  0.550-  65 2.13  58 2.14  42 2.14  57 2.14  51 2.15  55 2.16
  24  0.750  1.000  0.550-  57 2.14  58 2.14  66 2.14  41 2.14  52 2.14  56 2.16
  25  0.500  0.000  0.649-  57 2.13  63 2.13  55 2.13  40 2.14  56 2.14
  26  0.750  0.750  0.649-  58 2.13  39 2.13  56 2.13  64 2.14  55 2.14
  27  0.500  0.250  0.350-  59 2.14  53 2.14  46 2.14  61 2.14  62 2.14
  28  0.750  0.500  0.350-  60 2.14  54 2.14  45 2.14  61 2.14  62 2.14
  29  0.500  0.500  0.450-  61 2.14  51 2.14  59 2.14  60 2.14  44 2.14  65 2.15
  30  0.750  0.250  0.450-  62 2.14  52 2.14  59 2.14  60 2.14  43 2.14  66 2.14
  31  0.500  0.250  0.550-  65 2.13  50 2.14  66 2.14  57 2.14  59 2.15  63 2.16
  32  0.749  0.500  0.550-  65 2.13  58 2.14  66 2.14  49 2.14  60 2.15  64 2.16
  33  0.500  0.500  0.651-  63 2.14  55 2.14  64 2.14  48 2.14  65 2.16
  34  0.750  0.250  0.649-  66 2.12  56 2.13  47 2.13  64 2.14  63 2.14
  35  0.000  0.750  0.450-   3 2.14   5 2.14   6 2.14  13 2.14  22 2.14   7 2.14
  36  0.250  0.000  0.450-   4 2.14   5 2.14   6 2.14  14 2.14  21 2.14   8 2.14
  37  0.000  0.000  0.350-   5 2.14   4 2.14   3 2.14  11 2.14  20 2.14
  38  0.250  0.750  0.350-   6 2.14   4 2.14   3 2.14  12 2.14  19 2.14
  39  1.000  0.750  0.651-  10 2.13  26 2.13   9 2.14  17 2.14   7 2.16
  40  0.250  1.000  0.651-  10 2.13  18 2.13   9 2.14  25 2.14   8 2.16
  41  1.000  1.000  0.550-   9 2.13   7 2.14  15 2.14  24 2.14   8 2.14   5 2.14
  42  0.250  0.750  0.550-  10 2.12   8 2.14  23 2.14  16 2.14   7 2.14   6 2.14
  43  0.000  0.250  0.450-  11 2.14   5 2.14  13 2.14  14 2.14  30 2.14  15 2.14
  44  0.250  0.500  0.450-  12 2.14   6 2.14  13 2.14  14 2.14  29 2.14  16 2.15
  45  0.000  0.500  0.350-  13 2.14  11 2.14  12 2.14   3 2.14  28 2.14
  46  0.250  0.250  0.350-  14 2.14  11 2.14  12 2.14   4 2.14  27 2.14
  47  1.000  0.250  0.651-  34 2.13  18 2.13   9 2.13  17 2.14  15 2.16
  48  0.249  0.500  0.651-  17 2.13  10 2.14  18 2.14  33 2.14  16 2.16
  49  1.000  0.500  0.550-  17 2.13   7 2.14  15 2.14  13 2.14  32 2.14  16 2.14
  50  0.250  0.250  0.550-  18 2.13   8 2.14  31 2.14  15 2.14  16 2.14  14 2.14
  51  0.500  0.750  0.450-  19 2.14   6 2.14  21 2.14  22 2.14  29 2.14  23 2.15
  52  0.750  0.000  0.450-  20 2.14   5 2.14  21 2.14  22 2.14  30 2.14  24 2.14
  53  0.500  0.000  0.350-  21 2.14  19 2.14  20 2.14   4 2.14  27 2.14
  54  0.750  0.750  0.350-  22 2.14  19 2.14  20 2.14   3 2.14  28 2.14
  55  0.500  0.751  0.651-  25 2.13  10 2.14  26 2.14  33 2.14  23 2.16
  56  0.750  1.000  0.651-  34 2.13  26 2.13   9 2.14  25 2.14  24 2.16
  57  0.500  1.000  0.550-  25 2.13  24 2.14   8 2.14  21 2.14  23 2.14  31 2.14
  58  0.750  0.750  0.550-  26 2.13   7 2.14  32 2.14  24 2.14  23 2.14  22 2.14
  59  0.500  0.250  0.450-  27 2.14  21 2.14  14 2.14  29 2.14  30 2.14  31 2.15
  60  0.750  0.500  0.450-  28 2.14  22 2.14  13 2.14  29 2.14  30 2.14  32 2.15
  61  0.500  0.500  0.350-  29 2.14  19 2.14  27 2.14  28 2.14  12 2.14
  62  0.750  0.250  0.350-  30 2.14  20 2.14  27 2.14  28 2.14  11 2.14
  63  0.500  0.249  0.651-  25 2.13  34 2.14  18 2.14  33 2.14  31 2.16
  64  0.751  0.500  0.651-  17 2.13  34 2.14  26 2.14  33 2.14  32 2.16
  65  0.500  0.500  0.550-  23 2.13  32 2.13  16 2.13  31 2.13  29 2.15  33 2.16
  66  0.750  0.250  0.550-  34 2.12  15 2.14  24 2.14  32 2.14  31 2.14  30 2.14


IMPORTANT INFORMATION: All symmetrisations will be switched off!
NOSYMM: (Re-)initialisation of all symmetry stuff for point group C_1.


----------------------------------------------------------------------------------------

                                     Primitive cell                                     

  volume of cell :    1563.6717

  direct lattice vectors                    reciprocal lattice vectors
     8.546113626  0.000000000  0.000000000     0.117012252  0.000000000  0.000000000
     0.000000000  8.546113626  0.000000000     0.000000000  0.117012252  0.000000000
     0.000000000  0.000000000 21.409585219     0.000000000  0.000000000  0.046708051

  length of vectors
     8.546113626  8.546113626 21.409585219     0.117012252  0.117012252  0.046708051

  position of ions in fractional coordinates (direct lattice)
     0.505504930  0.506535341  0.767802462
     0.434629167  0.438792042  0.806358039
     0.000000000  0.750000000  0.350310383
     0.250000000  0.000000000  0.350310383
     0.000000000  0.000000000  0.450103461
     0.250000000  0.750000000  0.450103461
     0.999777631  0.749910594  0.550283253
     0.249971119  0.000015227  0.550274028
     0.999781575  0.999971220  0.649411925
     0.249338808  0.750308740  0.649151796
     0.000000000  0.250000000  0.350310383
     0.250000000  0.500000000  0.350310383
     0.000000000  0.500000000  0.450103461
     0.250000000  0.250000000  0.450103461
     0.999918261  0.250019997  0.550266638
     0.250331750  0.499981938  0.550472612
     0.999874310  0.499904983  0.649357970
     0.249507856  0.249699583  0.649332594
     0.500000000  0.750000000  0.350310383
     0.750000000  0.000000000  0.350310383
     0.500000000  0.000000000  0.450103461
     0.750000000  0.750000000  0.450103461
     0.499865941  0.749506971  0.550408366
     0.749730659  0.999876518  0.550280291
     0.499754707  0.000038043  0.649383043
     0.750089024  0.750175859  0.649481259
     0.500000000  0.250000000  0.350310383
     0.750000000  0.500000000  0.350310383
     0.500000000  0.500000000  0.450103461
     0.750000000  0.250000000  0.450103461
     0.499870241  0.250421669  0.550468042
     0.749438637  0.499963660  0.550419049
     0.499865062  0.499973559  0.651442911
     0.750184658  0.249550051  0.649151018
     0.000000000  0.750000000  0.450103461
     0.250000000  0.000000000  0.450103461
     0.000000000  0.000000000  0.350310383
     0.250000000  0.750000000  0.350310383
     0.999773682  0.750136884  0.651302257
     0.249648559  0.999963139  0.651253398
     0.999842006  0.999954318  0.549997255
     0.249844454  0.750015334  0.550031584
     0.000000000  0.250000000  0.450103461
     0.250000000  0.500000000  0.450103461
     0.000000000  0.500000000  0.350310383
     0.250000000  0.250000000  0.350310383
     0.999826544  0.249729415  0.651288610
     0.248890369  0.500093390  0.651287636
     0.999837750  0.499965699  0.550000320
     0.249905354  0.249977895  0.550069543
     0.500000000  0.750000000  0.450103461
     0.750000000  0.000000000  0.450103461
     0.500000000  0.000000000  0.350310383
     0.750000000  0.750000000  0.350310383
     0.499554904  0.750885787  0.651315072
     0.749945215  0.999913163  0.651288673
     0.499863593  0.999930419  0.550029609
     0.749837440  0.749916541  0.550107237
     0.500000000  0.250000000  0.450103461
     0.750000000  0.500000000  0.450103461
     0.500000000  0.500000000  0.350310383
     0.750000000  0.250000000  0.350310383
     0.499941187  0.249072422  0.651335826
     0.750813191  0.499700454  0.651221304
     0.499893836  0.499992585  0.550403206
     0.749932780  0.249919384  0.550024179

  ion indices of the primitive-cell ions
   primitive index   ion index
                 1           1
                 2           2
                 3           3
                 4           4
                 5           5
                 6           6
                 7           7
                 8           8
                 9           9
                10          10
                11          11
                12          12
                13          13
                14          14
                15          15
                16          16
                17          17
                18          18
                19          19
                20          20
                21          21
                22          22
                23          23
                24          24
                25          25
                26          26
                27          27
                28          28
                29          29
                30          30
                31          31
                32          32
                33          33
                34          34
                35          35
                36          36
                37          37
                38          38
                39          39
                40          40
                41          41
                42          42
                43          43
                44          44
                45          45
                46          46
                47          47
                48          48
                49          49
                50          50
                51          51
                52          52
                53          53
                54          54
                55          55
                56          56
                57          57
                58          58
                59          59
                60          60
                61          61
                62          62
                63          63
                64          64
                65          65
                66          66

----------------------------------------------------------------------------------------



 KPOINTS: pymatgen v2020.8.13 with grid density = 

Automatic generation of k-mesh.
 Grid dimensions read from file:
 generate k-points for:    2    2    1

 Generating k-lattice:

  Cartesian coordinates                     Fractional coordinates (reciprocal lattice)
     0.058506126  0.000000000  0.000000000     0.500000000  0.000000000  0.000000000
     0.000000000  0.058506126  0.000000000     0.000000000  0.500000000  0.000000000
     0.000000000  0.000000000  0.046708051     0.000000000  0.000000000  1.000000000

  Length of vectors
     0.058506126  0.058506126  0.046708051

  Shift w.r.t. Gamma in fractional coordinates (k-lattice)
     0.000000000  0.000000000  0.000000000

 
 Subroutine IBZKPT returns following result:
 ===========================================
 
 Found      4 irreducible k-points:
 
 Following reciprocal coordinates:
            Coordinates               Weight
  0.000000  0.000000  0.000000      1.000000
  0.500000  0.000000  0.000000      1.000000
  0.000000  0.500000  0.000000      1.000000
  0.500000  0.500000  0.000000      1.000000
 
 Following cartesian coordinates:
            Coordinates               Weight
  0.000000  0.000000  0.000000      1.000000
  0.058506  0.000000  0.000000      1.000000
  0.000000  0.058506  0.000000      1.000000
  0.058506  0.058506  0.000000      1.000000
 


--------------------------------------------------------------------------------------------------------




 Dimension of arrays:
   k-points           NKPTS =      4   k-points in BZ     NKDIM =      4   number of bands    NBANDS=    320
   number of dos      NEDOS =    301   number of ions     NIONS =     66
   non local maximal  LDIM  =      5   non local SUM 2l+1 LMDIM =     13
   total plane-waves  NPLWV = 882000
   max r-space proj   IRMAX =      1   max aug-charges    IRDMAX=  11315
   dimension x,y,z NGX =    70 NGY =   70 NGZ =  180
   dimension x,y,z NGXF=   140 NGYF=  140 NGZF=  360
   support grid    NGXF=   140 NGYF=  140 NGZF=  360
   ions per type =               1   1  32  32
   NGX,Y,Z   is equivalent  to a cutoff of  13.62, 13.62, 13.98 a.u.
   NGXF,Y,Z  is equivalent  to a cutoff of  27.23, 27.23, 27.95 a.u.

 SYSTEM =  MgO-rocksalt                            
 POSCAR =   N  O Mg  O                             

--------------------------------------------------------------------------------------------------------


  energy-cutoff  :      600.00
  volume of cell :     1563.67
      direct lattice vectors                 reciprocal lattice vectors
     8.546113626  0.000000000  0.000000000     0.117012252  0.000000000  0.000000000
     0.000000000  8.546113626  0.000000000     0.000000000  0.117012252  0.000000000
     0.000000000  0.000000000 21.409585219     0.000000000  0.000000000  0.046708051

  length of vectors
     8.546113626  8.546113626 21.409585219     0.117012252  0.117012252  0.046708051



 k-points in units of 2pi/SCALE and weight: pymatgen v2020.8.13 with grid density = 
   0.00000000  0.00000000  0.00000000       0.250
   0.05850613  0.00000000  0.00000000       0.250
   0.00000000  0.05850613  0.00000000       0.250
   0.05850613  0.05850613  0.00000000       0.250

 k-points in reciprocal lattice and weights: pymatgen v2020.8.13 with grid density = 
   0.00000000  0.00000000  0.00000000       0.250
   0.50000000  0.00000000  0.00000000       0.250
   0.00000000  0.50000000  0.00000000       0.250
   0.50000000  0.50000000  0.00000000       0.250

 position of ions in fractional coordinates (direct lattice) 
   0.50550493  0.50653534  0.76780246
   0.43462917  0.43879204  0.80635804
   0.00000000  0.75000000  0.35031038
   0.25000000  0.00000000  0.35031038
   0.00000000  0.00000000  0.45010346
   0.25000000  0.75000000  0.45010346
   0.99977763  0.74991059  0.55028325
   0.24997112  0.00001523  0.55027403
   0.99978157  0.99997122  0.64941192
   0.24933881  0.75030874  0.64915180
   0.00000000  0.25000000  0.35031038
   0.25000000  0.50000000  0.35031038
   0.00000000  0.50000000  0.45010346
   0.25000000  0.25000000  0.45010346
   0.99991826  0.25002000  0.55026664
   0.25033175  0.49998194  0.55047261
   0.99987431  0.49990498  0.64935797
   0.24950786  0.24969958  0.64933259
   0.50000000  0.75000000  0.35031038
   0.75000000  0.00000000  0.35031038
   0.50000000  0.00000000  0.45010346
   0.75000000  0.75000000  0.45010346
   0.49986594  0.74950697  0.55040837
   0.74973066  0.99987652  0.55028029
   0.49975471  0.00003804  0.64938304
   0.75008902  0.75017586  0.64948126
   0.50000000  0.25000000  0.35031038
   0.75000000  0.50000000  0.35031038
   0.50000000  0.50000000  0.45010346
   0.75000000  0.25000000  0.45010346
   0.49987024  0.25042167  0.55046804
   0.74943864  0.49996366  0.55041905
   0.49986506  0.49997356  0.65144291
   0.75018466  0.24955005  0.64915102
   0.00000000  0.75000000  0.45010346
   0.25000000  0.00000000  0.45010346
   0.00000000  0.00000000  0.35031038
   0.25000000  0.75000000  0.35031038
   0.99977368  0.75013688  0.65130226
   0.24964856  0.99996314  0.65125340
   0.99984201  0.99995432  0.54999726
   0.24984445  0.75001533  0.55003158
   0.00000000  0.25000000  0.45010346
   0.25000000  0.50000000  0.45010346
   0.00000000  0.50000000  0.35031038
   0.25000000  0.25000000  0.35031038
   0.99982654  0.24972941  0.65128861
   0.24889037  0.50009339  0.65128764
   0.99983775  0.49996570  0.55000032
   0.24990535  0.24997790  0.55006954
   0.50000000  0.75000000  0.45010346
   0.75000000  0.00000000  0.45010346
   0.50000000  0.00000000  0.35031038
   0.75000000  0.75000000  0.35031038
   0.49955490  0.75088579  0.65131507
   0.74994521  0.99991316  0.65128867
   0.49986359  0.99993042  0.55002961
   0.74983744  0.74991654  0.55010724
   0.50000000  0.25000000  0.45010346
   0.75000000  0.50000000  0.45010346
   0.50000000  0.50000000  0.35031038
   0.75000000  0.25000000  0.35031038
   0.49994119  0.24907242  0.65133583
   0.75081319  0.49970045  0.65122130
   0.49989384  0.49999259  0.55040321
   0.74993278  0.24991938  0.55002418

 position of ions in cartesian coordinates  (Angst):
   4.32010257  4.32890858 16.43833225
   3.71439025  3.74996665 17.26379116
   0.00000000  6.40958522  7.50000000
   2.13652841  0.00000000  7.50000000
   0.00000000  0.00000000  9.63652841
   2.13652841  6.40958522  9.63652841
   8.54421324  6.40882114 11.78133620
   2.13628159  0.00013013 11.78113870
   8.54424694  8.54586767 13.90363995
   2.13087778  6.41222374 13.89807069
   0.00000000  2.13652841  7.50000000
   2.13652841  4.27305681  7.50000000
   0.00000000  4.27305681  9.63652841
   2.13652841  2.13652841  9.63652841
   8.54541507  2.13669931 11.78098048
   2.13936358  4.27290245 11.78539029
   8.54503947  4.27224479 13.90248480
   2.13232249  2.13396101 13.90194150
   4.27305681  6.40958522  7.50000000
   6.40958522  0.00000000  7.50000000
   4.27305681  0.00000000  9.63652841
   6.40958522  6.40958522  9.63652841
   4.27191113  6.40537174 11.78401482
   6.40728340  8.54505833 11.78127278
   4.27096051  0.00032512 13.90302159
   6.41034603  6.41108813 13.90512437
   4.27305681  2.13652841  7.50000000
   6.40958522  4.27305681  7.50000000
   4.27305681  4.27305681  9.63652841
   6.40958522  2.13652841  9.63652841
   4.27194788  2.14013204 11.78529246
   6.40478774  4.27274625 11.78424354
   4.27190362  4.27283085 13.94712252
   6.41116333  2.13268310 13.89805405
   0.00000000  6.40958522  9.63652841
   2.13652841  0.00000000  9.63652841
   0.00000000  0.00000000  7.50000000
   2.13652841  6.40958522  7.50000000
   8.54417949  6.41075504 13.94411117
   2.13352495  8.54579861 13.94306512
   8.54476339  8.54572322 11.77521310
   2.13519910  6.40971626 11.77594808
   0.00000000  2.13652841  9.63652841
   2.13652841  4.27305681  9.63652841
   0.00000000  4.27305681  7.50000000
   2.13652841  2.13652841  7.50000000
   8.54463125  2.13421595 13.94381900
   2.12704537  4.27385493 13.94379815
   8.54472702  4.27276368 11.77527872
   2.13571955  2.13633950 11.77676076
   4.27305681  6.40958522  9.63652841
   6.40958522  0.00000000  9.63652841
   4.27305681  0.00000000  7.50000000
   6.40958522  6.40958522  7.50000000
   4.26925297  6.41715526 13.94438555
   6.40911702  8.54537151 13.94382034
   4.27189106  8.54551898 11.77590578
   6.40819597  6.40887197 11.77756778
   4.27305681  2.13652841  9.63652841
   6.40958522  4.27305681  9.63652841
   4.27305681  4.27305681  7.50000000
   6.40958522  2.13652841  7.50000000
   4.27255419  2.12860122 13.94482987
   6.41653485  4.27049686 13.94237800
   4.27214953  4.27299344 11.78390434
   6.40901075  2.13583945 11.77578954



--------------------------------------------------------------------------------------------------------

--------------------------------------- Iteration      FINAL  ---------------------------------------


--------------------OUTCAR has been truncated-------------------------


--------------------OUTCAR has been truncated-------------------------


--------------------OUTCAR has been truncated-------------------------


--------------------OUTCAR has been truncated-------------------------


--------------------OUTCAR has been truncated-------------------------


--------------------OUTCAR has been truncated-------------------------


--------------------OUTCAR has been truncated-------------------------


--------------------OUTCAR has been truncated-------------------------


--------------------OUTCAR has been truncated-------------------------


--------------------OUTCAR has been truncated-------------------------



  FORCE on cell =-STRESS in cart. coord.  units (eV):
  Direction    XX          YY          ZZ          XY          YZ          ZX
  --------------------------------------------------------------------------------------
  Alpha Z   884.72509   884.72509   884.72509
  Ewald  153114.06840153105.66832************    92.25861  -125.98725  -132.44981
  Hartree163582.92935163579.19183************    41.24782   -48.85318   -51.54911
  E(xc)   -2511.98218 -2512.02230 -2519.22376     0.47042    -0.52199    -0.54923
  Local  ************************325871.71507  -132.72770   158.79092   167.40172
  n-local -2827.97803 -2827.60339 -2852.16559    -5.07080     1.46133     1.58338
  augment  1053.56159  1053.53140  1045.09498     0.56544     0.65684     0.66313
  Kinetic  7511.70954  7511.69740  7556.92423     3.11370    14.58332    15.10536
  Fock        0.00000     0.00000     0.00000     0.00000     0.00000     0.00000
  vdW       -20.49988   -20.49971   -16.00839    -0.00219     0.00131     0.00169
  -------------------------------------------------------------------------------------
  Total     -46.21268   -46.21816   -15.70531    -0.14469     0.13129     0.20711
  in kB     -47.35067   -47.35629   -16.09206    -0.14826     0.13452     0.21221
  external pressure =      -36.93 kB  Pullay stress =        0.00 kB


 VOLUME and BASIS-vectors are now :
 -----------------------------------------------------------------------------
  energy-cutoff  :      600.00
  volume of cell :     1563.67
      direct lattice vectors                 reciprocal lattice vectors
     8.546113626  0.000000000  0.000000000     0.117012252  0.000000000  0.000000000
     0.000000000  8.546113626  0.000000000     0.000000000  0.117012252  0.000000000
     0.000000000  0.000000000 21.409585219     0.000000000  0.000000000  0.046708051

  length of vectors
     8.546113626  8.546113626 21.409585219     0.117012252  0.117012252  0.046708051


 FORCES acting on ions:
    Electron-Ion                     Ewald-Force                    Non-Local-Force
 -----------------------------------------------------------------------------------------------
   -.137E+03 -.131E+03 -.110E+04   0.159E+03 0.152E+03 0.107E+04   -.222E+02 -.212E+02 0.283E+02
   0.129E+03 0.124E+03 -.147E+04   -.159E+03 -.152E+03 0.151E+04   0.303E+02 0.290E+02 -.413E+02
   0.407E-01 -.153E+00 0.202E+04   -.408E-01 0.152E+00 -.201E+04   0.102E-03 0.809E-03 -.709E+01
   0.148E+00 0.327E-01 0.202E+04   -.148E+00 -.321E-01 -.201E+04   -.208E-03 -.434E-03 -.709E+01
   0.134E+00 0.148E+00 0.699E+03   -.140E+00 -.150E+00 -.699E+03   0.364E-02 0.946E-03 0.443E+00
   0.671E+00 -.642E+00 0.700E+03   -.672E+00 0.629E+00 -.700E+03   0.243E-03 0.919E-02 0.472E+00
   0.757E+00 -.319E+01 -.616E+03   -.770E+00 0.318E+01 0.617E+03   0.137E-01 0.783E-02 -.284E+00
   0.332E+01 0.612E+00 -.615E+03   -.330E+01 -.606E+00 0.616E+03   -.203E-01 -.552E-02 -.297E+00
   0.188E+01 0.185E+01 -.195E+04   -.188E+01 -.184E+01 0.194E+04   0.839E-03 -.112E-01 0.632E+01
   0.198E+02 -.221E+02 -.192E+04   -.199E+02 0.222E+02 0.191E+04   0.130E+00 -.998E-01 0.638E+01
   0.332E-01 0.153E+00 0.202E+04   -.329E-01 -.152E+00 -.201E+04   -.231E-03 -.682E-03 -.709E+01
   0.170E+00 -.326E-01 0.202E+04   -.169E+00 0.320E-01 -.201E+04   -.128E-02 0.451E-03 -.709E+01
   0.845E-01 -.160E+00 0.700E+03   -.853E-01 0.158E+00 -.700E+03   0.564E-03 0.108E-02 0.437E+00
   0.623E+00 0.639E+00 0.700E+03   -.615E+00 -.626E+00 -.701E+03   -.555E-02 -.941E-02 0.479E+00
   0.602E+00 0.323E+01 -.615E+03   -.600E+00 -.322E+01 0.616E+03   -.452E-03 -.105E-01 -.279E+00
   0.560E+01 -.641E+00 -.607E+03   -.548E+01 0.634E+00 0.608E+03   -.118E+00 0.559E-02 -.396E+00
   0.439E+01 -.204E+01 -.193E+04   -.436E+01 0.203E+01 0.192E+04   -.239E-01 0.787E-02 0.631E+01
   0.229E+02 0.233E+02 -.191E+04   -.231E+02 -.234E+02 0.191E+04   0.132E+00 0.120E+00 0.639E+01
   -.427E-01 -.175E+00 0.202E+04   0.420E-01 0.173E+00 -.201E+04   0.494E-03 0.194E-02 -.709E+01
   -.149E+00 0.401E-01 0.202E+04   0.148E+00 -.399E-01 -.201E+04   0.745E-03 -.107E-03 -.709E+01
   -.167E+00 0.927E-01 0.700E+03   0.162E+00 -.893E-01 -.700E+03   0.383E-02 -.227E-02 0.452E+00
   -.677E+00 -.687E+00 0.699E+03   0.665E+00 0.675E+00 -.700E+03   0.810E-02 0.871E-02 0.493E+00
   -.917E+00 -.556E+01 -.609E+03   0.924E+00 0.544E+01 0.609E+03   -.578E-02 0.120E+00 -.300E+00
   -.324E+01 0.769E+00 -.616E+03   0.323E+01 -.777E+00 0.617E+03   0.145E-01 0.805E-02 -.291E+00
   -.224E+01 0.413E+01 -.193E+04   0.224E+01 -.410E+01 0.192E+04   0.919E-02 -.354E-01 0.631E+01
   -.192E+02 -.194E+02 -.193E+04   0.194E+02 0.196E+02 0.192E+04   -.173E+00 -.154E+00 0.639E+01
   -.345E-01 0.175E+00 0.202E+04   0.338E-01 -.173E+00 -.201E+04   0.562E-03 -.177E-02 -.709E+01
   -.170E+00 -.409E-01 0.202E+04   0.168E+00 0.404E-01 -.201E+04   0.177E-02 0.393E-03 -.709E+01
   -.133E+00 -.103E+00 0.701E+03   0.124E+00 0.963E-01 -.701E+03   0.578E-02 0.431E-02 0.532E+00
   -.618E+00 0.678E+00 0.700E+03   0.604E+00 -.672E+00 -.700E+03   0.962E-02 -.452E-02 0.468E+00
   -.778E+00 0.561E+01 -.608E+03   0.767E+00 -.549E+01 0.608E+03   0.113E-01 -.122E+00 -.375E+00
   -.540E+01 -.806E+00 -.609E+03   0.529E+01 0.815E+00 0.609E+03   0.106E+00 -.909E-02 -.345E+00
   -.633E+01 -.567E+01 -.184E+04   0.624E+01 0.558E+01 0.183E+04   0.860E-01 0.885E-01 0.489E+01
   -.217E+02 0.199E+02 -.192E+04   0.219E+02 -.200E+02 0.191E+04   -.109E+00 0.111E+00 0.638E+01
   0.111E+00 -.460E+00 0.524E+03   -.980E-01 0.459E+00 -.524E+03   -.175E-01 0.199E-02 -.742E-01
   0.443E+00 0.833E-01 0.524E+03   -.438E+00 -.840E-01 -.524E+03   -.759E-02 0.967E-03 -.720E-01
   0.297E-01 0.294E-01 0.152E+04   -.293E-01 -.291E-01 -.152E+04   -.639E-03 -.425E-03 0.343E+01
   0.122E+00 -.121E+00 0.152E+04   -.121E+00 0.118E+00 -.152E+04   -.168E-02 0.291E-02 0.343E+01
   0.204E+01 -.837E+01 -.147E+04   -.205E+01 0.831E+01 0.148E+04   0.129E-01 0.604E-01 -.478E+01
   0.859E+01 0.246E+01 -.147E+04   -.854E+01 -.246E+01 0.148E+04   -.482E-01 -.378E-02 -.478E+01
   0.445E+00 0.414E+00 -.459E+03   -.449E+00 -.413E+00 0.459E+03   0.585E-02 -.163E-02 0.266E+00
   0.311E+01 -.324E+01 -.453E+03   -.312E+01 0.323E+01 0.453E+03   0.688E-02 0.538E-02 0.373E+00
   0.704E-01 0.458E+00 0.524E+03   -.674E-01 -.453E+00 -.524E+03   -.375E-02 -.667E-02 -.728E-01
   0.616E+00 -.833E-01 0.525E+03   -.632E+00 0.838E-01 -.525E+03   0.201E-01 -.517E-03 -.114E+00
   0.261E-01 -.294E-01 0.152E+04   -.253E-01 0.292E-01 -.152E+04   -.120E-02 0.296E-03 0.343E+01
   0.117E+00 0.121E+00 0.152E+04   -.115E+00 -.118E+00 -.152E+04   -.230E-02 -.290E-02 0.343E+01
   0.267E+01 0.852E+01 -.147E+04   -.268E+01 -.846E+01 0.148E+04   0.259E-02 -.607E-01 -.479E+01
   0.291E+02 -.336E+01 -.143E+04   -.288E+02 0.335E+01 0.144E+04   -.246E+00 0.365E-02 -.477E+01
   0.538E+00 -.446E+00 -.454E+03   -.537E+00 0.447E+00 0.454E+03   0.137E-02 0.464E-03 0.300E+00
   0.327E+01 0.325E+01 -.453E+03   -.326E+01 -.324E+01 0.452E+03   -.370E-02 -.120E-01 0.329E+00
   -.156E+00 -.640E+00 0.525E+03   0.160E+00 0.660E+00 -.525E+03   -.511E-02 -.265E-01 -.945E-01
   -.462E+00 0.124E+00 0.524E+03   0.471E+00 -.114E+00 -.524E+03   -.121E-01 -.128E-01 -.724E-01
   -.295E-01 0.248E-01 0.152E+04   0.296E-01 -.239E-01 -.152E+04   -.194E-04 -.125E-02 0.343E+01
   -.120E+00 -.124E+00 0.152E+04   0.120E+00 0.122E+00 -.152E+04   0.976E-03 0.214E-02 0.343E+01
   -.245E+01 -.280E+02 -.144E+04   0.244E+01 0.278E+02 0.145E+04   0.853E-02 0.198E+00 -.476E+01
   -.828E+01 0.186E+01 -.147E+04   0.822E+01 -.187E+01 0.148E+04   0.618E-01 0.865E-02 -.478E+01
   -.477E+00 0.567E+00 -.455E+03   0.470E+00 -.563E+00 0.454E+03   0.927E-02 -.443E-02 0.295E+00
   -.297E+01 -.309E+01 -.455E+03   0.296E+01 0.307E+01 0.455E+03   0.797E-02 0.159E-01 0.286E+00
   -.103E+00 0.636E+00 0.525E+03   0.109E+00 -.653E+00 -.525E+03   -.757E-02 0.214E-01 -.110E+00
   -.617E+00 -.139E+00 0.525E+03   0.645E+00 0.138E+00 -.525E+03   -.364E-01 0.144E-02 -.102E+00
   -.264E-01 -.247E-01 0.152E+04   0.260E-01 0.240E-01 -.152E+04   0.590E-03 0.102E-02 0.343E+01
   -.116E+00 0.124E+00 0.152E+04   0.115E+00 -.122E+00 -.152E+04   0.194E-02 -.249E-02 0.343E+01
   -.360E+01 0.291E+02 -.143E+04   0.359E+01 -.289E+02 0.144E+04   0.103E-01 -.236E+00 -.477E+01
   -.277E+02 -.219E+01 -.144E+04   0.275E+02 0.219E+01 0.145E+04   0.212E+00 0.317E-02 -.476E+01
   -.671E+00 -.594E+00 -.452E+03   0.666E+00 0.586E+00 0.452E+03   0.667E-02 0.880E-02 -.197E+00
   -.314E+01 0.313E+01 -.453E+03   0.313E+01 -.312E+01 0.453E+03   0.205E-02 -.397E-02 0.372E+00
 -----------------------------------------------------------------------------------------------
   -.815E+01 -.773E+01 0.285E+02   0.298E-12 0.746E-13 0.142E-11   0.815E+01 0.773E+01 -.285E+02


 POSITION                                       TOTAL-FORCE (eV/Angst)
 -----------------------------------------------------------------------------------
      4.32010      4.32891     16.43833        -0.083671     -0.079891     -0.005257
      3.71439      3.74997     17.26379         0.088839      0.086414     -0.135481
      0.00000      6.40959      7.50000         0.000052     -0.000301      0.503191
      2.13653      0.00000      7.50000         0.000103      0.000148      0.503061
      0.00000      0.00000      9.63653        -0.001880     -0.000487      0.046929
      2.13653      6.40959      9.63653        -0.000791     -0.003791      0.046844
      8.54421      6.40882     11.78134         0.000687      0.000454     -0.033273
      2.13628      0.00013     11.78114        -0.003640      0.000691     -0.033370
      8.54425      8.54587     13.90364         0.002107     -0.000506     -0.185428
      2.13088      6.41222     13.89807         0.011297     -0.010904     -0.165161
      0.00000      2.13653      7.50000         0.000112      0.000271      0.503283
      2.13653      4.27306      7.50000         0.000341     -0.000150      0.504497
      0.00000      4.27306      9.63653        -0.000184     -0.000472      0.054063
      2.13653      2.13653      9.63653         0.002203      0.004075      0.047874
      8.54542      2.13670     11.78098         0.001287     -0.000727     -0.033347
      2.13936      4.27290     11.78539         0.000424     -0.001569     -0.032286
      8.54504      4.27224     13.90248         0.002462      0.000269     -0.175242
      2.13232      2.13396     13.90194         0.012586      0.010636     -0.167494
      4.27306      6.40959      7.50000        -0.000160     -0.000548      0.503430
      6.40959      0.00000      7.50000        -0.000190      0.000081      0.502979
      4.27306      0.00000      9.63653        -0.001997      0.001094      0.052434
      6.40959      6.40959      9.63653        -0.003809     -0.003859      0.046539
      4.27191      6.40537     11.78401         0.001468     -0.001712     -0.032740
      6.40728      8.54506     11.78127         0.006848      0.000073     -0.031483
      4.27096      0.00033     13.90302         0.001900      0.001363     -0.174349
      6.41035      6.41109     13.90512        -0.007167     -0.006697     -0.171006
      4.27306      2.13653      7.50000        -0.000143      0.000502      0.504205
      6.40959      4.27306      7.50000        -0.000412     -0.000176      0.503919
      4.27306      4.27306      9.63653        -0.002802     -0.002114      0.058137
      6.40959      2.13653      9.63653        -0.004238      0.001440      0.047052
      4.27195      2.14013     11.78529         0.000457      0.002457     -0.031193
      6.40479      4.27275     11.78424        -0.000161      0.000196     -0.034998
      4.27190      4.27283     13.94712        -0.001296     -0.001577     -0.128432
      6.41116      2.13268     13.89805        -0.010111      0.008720     -0.165091
      0.00000      6.40959      9.63653        -0.004370      0.000569      0.048573
      2.13653      0.00000      9.63653        -0.001981      0.000276      0.048133
      0.00000      0.00000      7.50000        -0.000176     -0.000131     -0.348111
      2.13653      6.40959      7.50000        -0.000478      0.000830     -0.348401
      8.54418      6.41076     13.94411        -0.000222      0.000912     -0.036994
      2.13352      8.54580     13.94307        -0.002980      0.001559     -0.033802
      8.54476      8.54572     11.77521         0.001977      0.000066     -0.005459
      2.13520      6.40972     11.77595         0.000780      0.000477     -0.008765
      0.00000      2.13653      9.63653        -0.000743     -0.001824      0.047131
      2.13653      4.27306      9.63653         0.004406     -0.000059      0.055365
      0.00000      4.27306      7.50000        -0.000336      0.000078     -0.348714
      2.13653      2.13653      7.50000        -0.000644     -0.000836     -0.348788
      8.54463      2.13422     13.94382         0.002071     -0.000346     -0.038536
      2.12705      4.27385     13.94380         0.006643     -0.000957     -0.028707
      8.54473      4.27276     11.77528         0.002056      0.000527     -0.003435
      2.13572      2.13634     11.77676        -0.000661     -0.000783     -0.007901
      4.27306      6.40959      9.63653        -0.001055     -0.005853      0.054864
      6.40959      0.00000      9.63653        -0.002858     -0.003367      0.048799
      4.27306      0.00000      7.50000         0.000009     -0.000367     -0.348360
      6.40959      6.40959      7.50000         0.000292      0.000606     -0.348255
      4.26925      6.41716     13.94439         0.003356     -0.007438     -0.030961
      6.40912      8.54537     13.94382         0.002405     -0.001035     -0.035668
      4.27189      8.54552     11.77591         0.002105     -0.000961     -0.006879
      6.40820      6.40887     11.77757        -0.002475      0.001465     -0.006377
      4.27306      2.13653      9.63653        -0.001703      0.004470      0.056238
      6.40959      4.27306      9.63653        -0.008553      0.000506      0.053735
      4.27306      4.27306      7.50000         0.000171      0.000272     -0.349467
      6.40959      2.13653      7.50000         0.000570     -0.000732     -0.348464
      4.27255      2.12860     13.94483         0.000469      0.006271     -0.030207
      6.41653      4.27050     13.94238        -0.008156      0.002374     -0.027041
      4.27215      4.27299     11.78390         0.001632      0.000951     -0.008623
      6.40901      2.13584     11.77579        -0.002072     -0.000927     -0.007730
 -----------------------------------------------------------------------------------
    total drift:                               -0.001182      0.000438      0.005354


--------------------------------------------------------------------------------------------------------



  FREE ENERGIE OF THE ION-ELECTRON SYSTEM (eV)
  ---------------------------------------------------
  free  energy   TOTEN  =      -382.73725429 eV

  energy  without entropy=     -382.73725429  energy(sigma->0) =     -382.73725429



--------------------------------------------------------------------------------------------------------


    POTLOK:  cpu time      0.5402: real time      0.5402


--------------------------------------------------------------------------------------------------------


     LOOP+:  cpu time    141.1717: real time    141.3483
    4ORBIT:  cpu time      0.0000: real time      0.0000

 total amount of memory used by VASP MPI-rank0    79854. kBytes
=======================================================================

   base      :      30000. kBytes
   nonl-proj :      17930. kBytes
   fftplans  :       4926. kBytes
   grid      :      13952. kBytes
   one-center:        146. kBytes
   wavefun   :      12900. kBytes

  
  
 General timing and accounting informations for this job:
 ========================================================
  
                  Total CPU time used (sec):      177.027
                            User time (sec):      175.859
                          System time (sec):        1.168
                         Elapsed time (sec):      187.110
  
                   Maximum memory used (kb):      188172.
                   Average memory used (kb):          N/A
  
                          Minor page faults:        40336
                          Major page faults:            0
                 Voluntary context switches:        12599
