 **********************************************************************
                          MRCC program system
 **********************************************************************
 
                              Written by
     Mihaly Kallay, Peter R. Nagy, David Mester, Laszlo Gyevi-Nagy,
        Jozsef Csoka, P. Bernat Szabo, Zoltan Rolik, Gyula Samu,
     Jozsef Csontos, Bence Hegely, Adam Ganyecz, Istvan Ladjanszki,
       Lorant Szegedy, Bence Ladoczki, Klara Petrov, Mate Farkas,
                    Pal D. Mezei, and Reka A. Horvath
 
        Department of Physical Chemistry and Materials Science
            Budapest University of Technology and Economics
                  Budapest P.O.Box 91, H-1521 Hungary
 
                              www.mrcc.hu
 
                      Release date: March 18, 2022

 ************************ 2023-02-08 15:52:27 *************************
 Executing minp...

 Reading input from MINP...
 
 Input file:
 
calc=FNO-CCSD(T)
verbosity=3
mem=220GB
unit=angs
scfiguess=small
scfalg=locfit1
ccmaxit=400
ccsdalg=dfdirect
ccsdthreads=4
ccsdmkl=thr
ptthreads=4
lnoepsv=1e-5
naf_cor=1e-2
basis=aug-cc-pVTZ
basis_sm=def2-SVP
dfbasis_scf=def2-QZVPP-RI-JK
dfbasis_cor=aug-cc-pVTZ-RI
unit=angs
geom=xyz
24

C     8.91743909     9.38861166    16.94386881
H     8.77937038     9.17436022    18.01572156
H     9.32474419     7.57458841    16.20042911
H     9.96120462     9.68473591    16.75955150
H     8.26216376    10.20870566    16.63144535
O     8.58013534     8.23566087    16.14248498
C     5.39043169     6.77043676    16.96372580
H     5.62104886     6.61569915    18.02985674
H     7.19266907     7.20768543    16.20481162
H     5.07879877     7.81332482    16.80230521
H     4.57390209     6.11070185    16.65132737
O     6.53598138     6.45977854    16.14177089
C     8.00607278     3.27806493    16.96650180
H     8.16761995     3.51291001    18.03069694
H     7.56045335     5.07715886    16.20067817
H     6.96269365     2.96357801    16.81281908
H     8.66602896     2.46206947    16.65295800
O     8.30924475     4.42059882    16.13812694
C    11.50091996     5.85103456    16.93856975
H    11.28826038     5.99608128    18.00997076
H     9.68539973     5.44621463    16.19473390
H    11.79288236     4.80523239    16.75951410
H    12.32302124     6.50195744    16.62167972
O    10.34897249     6.18933226    16.13686330

--------------------Output has been truncated-------------------------


--------------------Output has been truncated-------------------------


--------------------Output has been truncated-------------------------


--------------------Output has been truncated-------------------------


--------------------Output has been truncated-------------------------


--------------------Output has been truncated-------------------------


--------------------Output has been truncated-------------------------


--------------------Output has been truncated-------------------------


--------------------Output has been truncated-------------------------


--------------------Output has been truncated-------------------------


 
 Reference energy [au]:                      -115.087800183983
 DF-MP2 singlet pair energy [au]:              -0.339671150478
 DF-MP2 triplet pair energy [au]:              -0.100593404649
 DF-SCS-MP2 correlation energy [au]:           -0.441136515456
 DF-SCS-MP2 energy [au]:                     -115.528936699439
 DF-SOS-MP2 correlation energy [au]:           -0.441572495621
 DF-SOS-MP2 energy [au]:                     -115.529372679604
 DF-MP2 correlation energy [au]:               -0.440264555127
 DF-MP2 energy [au]:                         -115.528064739110

 Results in FNO basis:
 
 
 Reference energy [au]:                      -115.087800183983
 DF-MP2 singlet pair energy [au]:              -0.338734082353
 DF-MP2 triplet pair energy [au]:              -0.100497411858
 DF-SCS-MP2 correlation energy [au]:           -0.439980036110
 DF-SCS-MP2 energy [au]:                     -115.527780220093
 DF-SOS-MP2 correlation energy [au]:           -0.440354307059
 DF-SOS-MP2 energy [au]:                     -115.528154491042
 DF-MP2 correlation energy [au]:               -0.439231494211
 DF-MP2 energy [au]:                         -115.527031678194

 Results in NAF basis:
 
 
 Reference energy [au]:                      -115.087800183983
 DF-MP2 singlet pair energy [au]:              -0.338651105848
 DF-MP2 triplet pair energy [au]:              -0.100565672574
 DF-SCS-MP2 correlation energy [au]:           -0.439903217875
 DF-SCS-MP2 energy [au]:                     -115.527703401858
 DF-SOS-MP2 correlation energy [au]:           -0.440246437602
 DF-SOS-MP2 energy [au]:                     -115.528046621585
 DF-MP2 correlation energy [au]:               -0.439216778422
 DF-MP2 energy [au]:                         -115.527016962405

 ************************ 2023-02-08 15:54:33 *************************
 Executing ccsd...

 Allocation of 220.0 Gbytes of memory...

 Direct DF-CCSD(T) calculation
 
 Convergence criterion:  1.0E-06
 
 Number of occupied/virtual/auxiliary orbitals:     7   122   328
    286.11 MB is the minimal memory requirement for (T)
     68.32 MB is the minimal memory requirement for CCSD
 
 Reference energy [au]:            -115.087800183983
 T1 contribution [au]:                0.000000000000
 Same spin MP2 energy [au]:          -0.100531439019
 Opposite spin MP2 energy [au]:      -0.338692329293
 MP2 correlation energy [au]:        -0.439223768312
 Total MP2 energy [au]:            -115.527023952295
 MP2 correction [au]:                -0.001040786815
 
 
 CPU time [min]:     0.305                   Wall time [min]:     0.022
 
 Starting CCSD iterations...
 
                     Residual norm          Energy
 Iteration  1        0.201317208323     -115.532621469149
 Iteration  2        0.047492285795     -115.542809808252
 Iteration  3        0.016949276921     -115.544936504174
 Iteration  4        0.003918728021     -115.544765545405
 Iteration  5        0.001283644313     -115.544799596883
 Iteration  6        0.000315251751     -115.544810549289
 Iteration  7        0.000112548888     -115.544806797473
 Iteration  8        0.000036301954     -115.544806830323
 Iteration  9        0.000011267193     -115.544806816767
 Iteration 10        0.000003516143     -115.544806727536
 
 CCSD iteration has converged in 10 steps.
      928.19 MB memory was utilized by CCSD
 
 T1 diagnostic:      9.853E-03            D1 diagnostic:      2.256E-02
 
 T1 contribution [au]:                                  0.000000000000
 PPL energy contribution [au]:                          0.104382729716
 Scaled PPL energy contribution [au]:                   0.104632766201

 OS-PPL energy contribution [au]:                       0.088888564231
 Scaled OS-PPL energy contribution [au]:                0.089156471090
 SS-PPL energy contribution [au]:                       0.015494165486
 Scaled SS-PPL energy contribution [au]:                0.015499158959

 Opposite spin CCSD energy [au]:                       -0.366326921856
 Same spin CCSD energy [au]:                           -0.090700084481
 CCSD correlation energy [au]:                         -0.457027006337
 CCSD correlation energy + MP2 correction [au]:        -0.458067793152
 CCSD correlation energy + MP2 + PPL corr. [au]:       -0.457817756667
 Total CCSD energy [au]:                             -115.544827190320
 Total CCSD energy + MP2 correction [au]:            -115.545867977135
 Total CCSD energy + MP2 + PPL corr. [au]:           -115.545617940650
 
 CPU time [min]:     2.150                   Wall time [min]:     0.084
 
 Calculation of (T) correction...
 
 
      265.11 MB memory is utilized for (T)

 0%       25%       50%       75%       100%
 |---------|---------|---------|---------| 
 
 (T) correction [au]:                                    -0.016246036245
 (T*) correction [au]:                                   -0.016284532933
 (T+) correction [au]:                                   -0.016284353637
 CCSD(T) correlation energy [au]:                        -0.473273042582
 CCSD(T) correlation energy + MP2 correction [au]:       -0.474313829397
 CCSD(T+) correlation en. + MP2 + PPL corr. [au]:        -0.474102110304
 Total CCSD(T) energy [au]:                            -115.561073226565
 Total CCSD(T) energy + MP2 correction [au]:           -115.562114013380
 Total CCSD(T+) energy + MP2 + PPL corr. [au]:         -115.561902294287
 
 CPU time [min]:     2.596                   Wall time [min]:     0.099
 
 ************************ 2023-02-08 15:54:39 *************************
                      Normal termination of mrcc.
 **********************************************************************
