 vasp.6.4.2 20Jul23 (build Nov 17 2023 15:39:20) complex                         
 executed on              LinuxNV date 2024.02.27  23:54:23
 running    4 mpi-ranks, with    1 threads/rank, on    1 nodes
 distrk:  each k-point on    4 cores,    1 groups
 distr:  one band on NCORE=   1 cores,    4 groups
 OpenACC runtime initialized ...    4 GPUs detected


--------------------------------------------------------------------------------------------------------


 INCAR:
   SYSTEM = Oxide-Surface
   ISMEAR = 0
   SIGMA = 0.05
   EDIFF = 1E-4
   ALGO = Normal
   ISTART = 2
   IBRION = -1
   NSW = 0
   ISYM = 0
   DIPOL = 0.5 0.5 0.5
   IDIPOL = 3
   LDIPOL = .TRUE.
   LHFCALC = .TRUE.
   HFSCREEN = 0.2
   GGA = PE
   ENCUT = 450
   PREC = Normal
   LASPH = .TRUE.
   LREAL = Auto
   ISPIN = 1
   NELM = 200
   NELMIN = 8
   NCORE = 1
   KPAR = 1
   LWAVE = .FALSE.
   LCHARG = .FALSE.

 POTCAR:    PAW_PBE Mg_pv 13Apr2007               
 POTCAR:    PAW_PBE O 08Apr2002                   
 POTCAR:    PAW_PBE Mg_pv 13Apr2007               
   SHA256 =  f474ac0dd33840b9ae76c01d57fea79fdf77cdfbb07d5ade72c65f83c709b62b Mg_pv/POTCAR          
   COPYR  = (c) Copyright 13Apr2007 Georg Kresse                                                    
   COPYR  = This file is part of the software VASP. Any use, copying, and all other rights are regul
   COPYR  = If you do not have a valid VASP license, you may not use, copy or distribute this file. 
   VRHFIN =Mg: p6s2                                                                                 
   LEXCH  = PE                                                                                      
   EATOM  =  1056.7344 eV,   77.6678 Ry                                                             
                                                                                                    
   TITEL  = PAW_PBE Mg_pv 13Apr2007                                                                 
   LULTRA =        F    use ultrasoft PP ?                                                          
   IUNSCR =        1    unscreen: 0-lin 1-nonlin 2-no                                               
   RPACOR =    1.500    partial core radius                                                         
   POMASS =   24.305; ZVAL   =    8.000    mass and valenz                                          
   RCORE  =    2.000    outmost cutoff radius                                                       
   RWIGS  =    2.000; RWIGS  =    1.058    wigner-seitz radius (au A)                               
   ENMAX  =  403.929; ENMIN  =  302.947 eV                                                          
   RCLOC  =    1.506    cutoff for local pot                                                        
   LCOR   =        T    correct aug charges                                                         
   LPAW   =        T    paw PP                                                                      
   EAUG   =  758.780                                                                                
   DEXC   =    0.000                                                                                
   RMAX   =    2.045    core radius for proj-oper                                                   
   RAUG   =    1.300    factor for augmentation sphere                                              
   RDEP   =    2.025    radius for radial grids                                                     
   RDEPT  =    1.557    core radius for aug-charge                                                  
                                                                                                    
   Atomic configuration                                                                             
    5 entries                                                                                       
     n  l   j            E        occ.                                                              
     1  0  0.50     -1259.6230   2.0000                                                             
     2  0  0.50       -79.8442   2.0000                                                             
     2  1  1.50       -46.6121   6.0000                                                             
     3  0  0.50        -4.7055   2.0000                                                             
     3  2  1.50        -1.3606   0.0000                                                             
   Description                                                                                      
     l       E           TYP  RCUT    TYP  RCUT                                                     
     1    -46.6121073     23  1.600                                                                 
     1      2.7211652     23  1.600                                                                 
     0     -4.7054661     23  2.000                                                                 
     0     61.2262170     23  2.000                                                                 
     2     -1.3605826     23  2.000                                                                 
  local pseudopotential read in
  partial core-charges read in
  partial kinetic energy density read in
  atomic valenz-charges read in
  non local Contribution for L=            1  read in
    real space projection operators read in
  non local Contribution for L=            1  read in
    real space projection operators read in
  non local Contribution for L=            0  read in
    real space projection operators read in
  non local Contribution for L=            0  read in
    real space projection operators read in
  non local Contribution for L=            2  read in
    real space projection operators read in
    PAW grid and wavefunctions read in
 
   number of l-projection  operators is LMAX  =            5
   number of lm-projection operators is LMMAX =           13
 
 POTCAR:    PAW_PBE O 08Apr2002                   
   SHA256 =  818f92134a0a090dccd8ba1447fa70422a3b330e708bb4f08108d8ae51209ddf O/POTCAR              
   COPYR  = (c) Copyright 08Apr2002 Georg Kresse                                                    
   COPYR  = This file is part of the software VASP. Any use, copying, and all other rights are regul
   COPYR  = If you do not have a valid VASP license, you may not use, copy or distribute this file. 
   VRHFIN =O: s2p4                                                                                  
   LEXCH  = PE                                                                                      
   EATOM  =   432.3788 eV,   31.7789 Ry                                                             
                                                                                                    
   TITEL  = PAW_PBE O 08Apr2002                                                                     
   LULTRA =        F    use ultrasoft PP ?                                                          
   IUNSCR =        1    unscreen: 0-lin 1-nonlin 2-no                                               
   RPACOR =    1.200    partial core radius                                                         
   POMASS =   16.000; ZVAL   =    6.000    mass and valenz                                          
   RCORE  =    1.520    outmost cutoff radius                                                       
   RWIGS  =    1.550; RWIGS  =    0.820    wigner-seitz radius (au A)                               
   ENMAX  =  400.000; ENMIN  =  300.000 eV                                                          
   ICORE  =        2    local potential                                                             
   LCOR   =        T    correct aug charges                                                         
   LPAW   =        T    paw PP                                                                      
   EAUG   =  605.392                                                                                
   DEXC   =    0.000                                                                                
   RMAX   =    1.553    core radius for proj-oper                                                   
   RAUG   =    1.300    factor for augmentation sphere                                              
   RDEP   =    1.550    radius for radial grids                                                     
   RDEPT  =    1.329    core radius for aug-charge                                                  
                                                                                                    
   Atomic configuration                                                                             
    4 entries                                                                                       
     n  l   j            E        occ.                                                              
     1  0  0.50      -514.6923   2.0000                                                             
     2  0  0.50       -23.9615   2.0000                                                             
     2  1  0.50        -9.0305   4.0000                                                             
     3  2  1.50        -9.5241   0.0000                                                             
   Description                                                                                      
     l       E           TYP  RCUT    TYP  RCUT                                                     
     0    -23.9615318     23  1.200                                                                 
     0     -9.5240782     23  1.200                                                                 
     1     -9.0304911     23  1.520                                                                 
     1      8.1634956     23  1.520                                                                 
     2     -9.5240782      7  1.500                                                                 
  local pseudopotential read in
  partial core-charges read in
  partial kinetic energy density read in
  kinetic energy density of atom read in
  atomic valenz-charges read in
  non local Contribution for L=            0  read in
    real space projection operators read in
  non local Contribution for L=            0  read in
    real space projection operators read in
  non local Contribution for L=            1  read in
    real space projection operators read in
  non local Contribution for L=            1  read in
    real space projection operators read in
    PAW grid and wavefunctions read in
 
   number of l-projection  operators is LMAX  =            4
   number of lm-projection operators is LMMAX =            8
 
 Optimization of the real space projectors (new method)

 maximal supplied QI-value         = 18.90
 optimisation between [QCUT,QGAM] = [ 10.77, 21.73] = [ 32.49,132.25] Ry 
 Optimized for a Real-space Cutoff    1.23 Angstroem

   l    n(q)    QCUT    max X(q) W(low)/X(q) W(high)/X(q)  e(spline) 
   1      7    10.771     2.974    0.18E-03    0.56E-05    0.13E-06
   1      7    10.771     4.279    0.39E-03    0.94E-04    0.28E-06
   0      8    10.771    16.381    0.27E-03    0.38E-03    0.44E-07
   0      8    10.771     5.611    0.18E-03    0.26E-03    0.32E-07
   2      7    10.771     4.652    0.12E-03    0.23E-03    0.45E-07
 Optimization of the real space projectors (new method)

 maximal supplied QI-value         = 24.76
 optimisation between [QCUT,QGAM] = [ 10.64, 21.54] = [ 31.73,129.89] Ry 
 Optimized for a Real-space Cutoff    1.23 Angstroem

   l    n(q)    QCUT    max X(q) W(low)/X(q) W(high)/X(q)  e(spline) 
   0      8    10.645    20.381    0.38E-03    0.60E-03    0.15E-06
   0      8    10.645    15.268    0.40E-03    0.65E-03    0.17E-06
   1      7    10.645     5.964    0.30E-03    0.63E-03    0.18E-06
   1      7    10.645     5.382    0.24E-03    0.53E-03    0.16E-06
  PAW_PBE Mg_pv 13Apr2007               :
 energy of atom  1       EATOM=-1056.7344
 kinetic energy error for atom=    0.0368 (will be added to EATOM!!)
  PAW_PBE O 08Apr2002                   :
 energy of atom  2       EATOM= -432.3788
 kinetic energy error for atom=    0.0389 (will be added to EATOM!!)
 
 
 POSCAR: Mg  O
  positions in direct lattice
  No initial velocities read in
 exchange correlation table for  LEXCH =        8
   RHO(1)=    0.500       N(1)  =     2000
   RHO(2)=  100.500       N(2)  =     4000
 


--------------------------------------------------------------------------------------------------------


 ion  position               nearest neighbor table
   1  0.000  0.750  0.352-  33 2.11  35 2.11  36 2.11  43 2.11  52 2.11
   2  0.250  0.000  0.352-  34 2.11  35 2.11  36 2.11  44 2.11  51 2.11
   3  0.000  0.000  0.451-  35 2.11  34 2.11  33 2.11  41 2.11  50 2.11  39 2.11
   4  0.250  0.750  0.451-  36 2.11  34 2.11  33 2.11  42 2.11  49 2.11  40 2.12
   5  0.000  0.750  0.550-  47 2.11  39 2.11  40 2.11  33 2.12  56 2.12  37 2.15
   6  0.250  0.000  0.550-  48 2.11  40 2.11  55 2.11  39 2.11  34 2.12  38 2.15
   7  0.000  0.000  0.649-  45 2.10  38 2.10  54 2.11  39 2.11  37 2.11
   8  0.248  0.750  0.648-  37 2.09  40 2.10  46 2.11  38 2.11  53 2.13
   9  0.000  0.250  0.352-  41 2.11  35 2.11  43 2.11  44 2.11  60 2.11
  10  0.250  0.500  0.352-  42 2.11  36 2.11  43 2.11  44 2.11  59 2.11
  11  0.000  0.500  0.451-  43 2.11  41 2.11  42 2.11  33 2.11  58 2.11  47 2.11
  12  0.250  0.250  0.451-  44 2.11  41 2.11  42 2.11  34 2.11  57 2.11  48 2.12
  13  0.000  0.250  0.550-  48 2.11  47 2.11  64 2.11  39 2.11  41 2.12  45 2.15
  14  0.251  0.500  0.550-  63 2.11  48 2.11  40 2.11  46 2.12  47 2.12  42 2.13
  15  0.000  0.500  0.648-  46 2.09  62 2.10  47 2.11  45 2.11  37 2.12
  16  0.249  0.250  0.649-  45 2.10  38 2.11  48 2.11  46 2.11  61 2.12
  17  0.500  0.750  0.352-  49 2.11  36 2.11  51 2.11  52 2.11  59 2.11
  18  0.750  0.000  0.352-  50 2.11  35 2.11  51 2.11  52 2.11  60 2.11
  19  0.500  0.000  0.451-  51 2.11  49 2.11  50 2.11  34 2.11  57 2.11  55 2.12
  20  0.750  0.750  0.451-  52 2.11  49 2.11  50 2.11  33 2.11  58 2.11  56 2.12
  21  0.500  0.749  0.550-  63 2.10  40 2.10  56 2.11  55 2.11  49 2.13  53 2.20
  22  0.750  0.000  0.550-  64 2.11  55 2.11  39 2.11  56 2.11  50 2.12  54 2.15
  23  0.500  0.002  0.649-  61 2.07  53 2.09  55 2.11  38 2.11  54 2.12
  24  0.752  0.751  0.648-  56 2.08  37 2.09  54 2.10  62 2.11  53 2.13
  25  0.500  0.250  0.352-  57 2.11  51 2.11  44 2.11  59 2.11  60 2.11
  26  0.750  0.500  0.352-  58 2.11  52 2.11  43 2.11  59 2.11  60 2.11
  27  0.500  0.500  0.451-  59 2.11  49 2.11  57 2.11  58 2.11  42 2.11  63 2.14
  28  0.750  0.250  0.451-  60 2.11  50 2.11  57 2.11  58 2.11  41 2.11  64 2.12
  29  0.500  0.251  0.550-  48 2.11  63 2.11  64 2.11  55 2.12  57 2.13  61 2.14
  30  0.749  0.500  0.550-  63 2.10  64 2.11  56 2.11  47 2.12  58 2.13  62 2.15
  31  0.498  0.494  0.653-  61 2.08  46 2.11  62 2.14  63 2.19  53 2.20
  32  0.751  0.250  0.648-  45 2.10  64 2.10  54 2.11  61 2.12  62 2.12
  33  0.000  0.750  0.451-   1 2.11   3 2.11   4 2.11  11 2.11  20 2.11   5 2.12
  34  0.250  0.000  0.451-   2 2.11   3 2.11   4 2.11  12 2.11  19 2.11   6 2.12
  35  0.000  0.000  0.352-   3 2.11   2 2.11   1 2.11   9 2.11  18 2.11
  36  0.250  0.750  0.352-   4 2.11   2 2.11   1 2.11  10 2.11  17 2.11
  37  1.000  0.750  0.651-  24 2.09   8 2.09   7 2.11  15 2.12   5 2.15
  38  0.249  1.000  0.651-   7 2.10  16 2.11   8 2.11  23 2.11   6 2.15
  39  1.000  1.000  0.550-   7 2.11   5 2.11  22 2.11   6 2.11  13 2.11   3 2.11
  40  0.251  0.750  0.550-   8 2.10  21 2.10   6 2.11   5 2.11  14 2.11   4 2.12
  41  0.000  0.250  0.451-   9 2.11   3 2.11  11 2.11  12 2.11  28 2.11  13 2.12
  42  0.250  0.500  0.451-  10 2.11   4 2.11  11 2.11  12 2.11  27 2.11  14 2.13
  43  0.000  0.500  0.352-  11 2.11   9 2.11  10 2.11   1 2.11  26 2.11
  44  0.250  0.250  0.352-  12 2.11   9 2.11  10 2.11   2 2.11  25 2.11
  45  1.000  0.250  0.651-  32 2.10   7 2.10  16 2.10  15 2.11  13 2.15
  46  0.248  0.500  0.650-  15 2.09   8 2.11  31 2.11  16 2.11  14 2.12
  47  1.000  0.500  0.550-   5 2.11  15 2.11  13 2.11  11 2.11  30 2.12  14 2.12
  48  0.250  0.250  0.550-   6 2.11  29 2.11  13 2.11  14 2.11  16 2.11  12 2.12
  49  0.500  0.750  0.451-  17 2.11   4 2.11  19 2.11  20 2.11  27 2.11  21 2.13
  50  0.750  0.000  0.451-  18 2.11   3 2.11  19 2.11  20 2.11  28 2.11  22 2.12
  51  0.500  0.000  0.352-  19 2.11  17 2.11  18 2.11   2 2.11  25 2.11
  52  0.750  0.750  0.352-  20 2.11  17 2.11  18 2.11   1 2.11  26 2.11
  53  0.500  0.754  0.653-  23 2.09   8 2.13  24 2.13  21 2.20  31 2.20
  54  0.750  1.000  0.651-  24 2.10   7 2.11  32 2.11  23 2.12  22 2.15
  55  0.500  0.999  0.550-  23 2.11  22 2.11   6 2.11  21 2.11  19 2.12  29 2.12
  56  0.749  0.750  0.550-  24 2.08  21 2.11  22 2.11  30 2.11   5 2.12  20 2.12
  57  0.500  0.250  0.451-  25 2.11  19 2.11  12 2.11  27 2.11  28 2.11  29 2.13
  58  0.750  0.500  0.451-  26 2.11  20 2.11  11 2.11  27 2.11  28 2.11  30 2.13
  59  0.500  0.500  0.352-  27 2.11  17 2.11  25 2.11  26 2.11  10 2.11
  60  0.750  0.250  0.352-  28 2.11  18 2.11  25 2.11  26 2.11   9 2.11
  61  0.500  0.248  0.651-  23 2.07  31 2.08  32 2.12  16 2.12  29 2.14
  62  0.752  0.500  0.651-  15 2.10  24 2.11  32 2.12  31 2.14  30 2.15
  63  0.500  0.500  0.551-  21 2.10  30 2.10  14 2.11  29 2.11  27 2.14  31 2.19
  64  0.750  0.250  0.550-  32 2.10  22 2.11  30 2.11  29 2.11  13 2.11  28 2.12
 

IMPORTANT INFORMATION: All symmetrisations will be switched off!
NOSYMM: (Re-)initialisation of all symmetry stuff for point group C_1.


----------------------------------------------------------------------------------------

                                     Primitive cell                                     

  volume of cell :    1519.8199

  direct lattice vectors                    reciprocal lattice vectors
     8.440984654  0.000000000  0.000000000     0.118469591  0.000000000  0.000000000
     0.000000000  8.440984654  0.000000000     0.000000000  0.118469591  0.000000000
     0.000000000  0.000000000 21.330738491     0.000000000  0.000000000  0.046880702

  length of vectors
     8.440984654  8.440984654 21.330738491     0.118469591  0.118469591  0.046880702

  position of ions in fractional coordinates (direct lattice)
     0.000000000  0.750000000  0.351605267
     0.250000000  0.000000000  0.351605267
     0.000000000  0.000000000  0.450535089
     0.250000000  0.750000000  0.450535089
     0.000207284  0.749768794  0.549791295
     0.250042949  0.000125680  0.550039895
     0.000073806  0.000410042  0.648595353
     0.247683155  0.749917871  0.648435248
     0.000000000  0.250000000  0.351605267
     0.250000000  0.500000000  0.351605267
     0.000000000  0.500000000  0.450535089
     0.250000000  0.250000000  0.450535089
     0.000031262  0.250140480  0.549909578
     0.250686002  0.499742672  0.550400910
     0.000425668  0.499513881  0.648371969
     0.248982972  0.249855834  0.648744198
     0.500000000  0.750000000  0.351605267
     0.750000000  0.000000000  0.351605267
     0.500000000  0.000000000  0.450535089
     0.750000000  0.750000000  0.450535089
     0.499726028  0.748980267  0.550355635
     0.749777797  0.000284338  0.549933824
     0.499677098  0.001992687  0.648655524
     0.752464721  0.750671887  0.647526815
     0.500000000  0.250000000  0.351605267
     0.750000000  0.500000000  0.351605267
     0.500000000  0.500000000  0.450535089
     0.750000000  0.250000000  0.450535089
     0.499781674  0.250547524  0.550270665
     0.749015091  0.499678732  0.550464135
     0.498120585  0.493518517  0.653381840
     0.750669226  0.249556903  0.648459532
     0.000000000  0.750000000  0.450535089
     0.250000000  0.000000000  0.450535089
     0.000000000  0.000000000  0.351605267
     0.250000000  0.750000000  0.351605267
     0.999772439  0.750337934  0.650565869
     0.249261806  0.999887658  0.650737238
     0.999830501  0.999774756  0.549663713
     0.250559146  0.750233236  0.549968787
     0.000000000  0.250000000  0.450535089
     0.250000000  0.500000000  0.450535089
     0.000000000  0.500000000  0.351605267
     0.250000000  0.250000000  0.351605267
     0.999743677  0.249577840  0.650728320
     0.248180911  0.500092169  0.649707399
     0.999581945  0.500107963  0.549555474
     0.249909182  0.249616938  0.549731899
     0.500000000  0.750000000  0.450535089
     0.750000000  0.000000000  0.450535089
     0.500000000  0.000000000  0.351605267
     0.750000000  0.750000000  0.351605267
     0.500123741  0.754388696  0.653283345
     0.750494219  0.999865950  0.650705881
     0.499995285  0.999294473  0.549889090
     0.749328569  0.750031466  0.549907032
     0.500000000  0.250000000  0.450535089
     0.750000000  0.500000000  0.450535089
     0.500000000  0.500000000  0.351605267
     0.750000000  0.250000000  0.351605267
     0.500015049  0.247731826  0.650515981
     0.751682008  0.500293977  0.651056757
     0.500150597  0.500452340  0.550757543
     0.749901199  0.249887127  0.549801611

  ion indices of the primitive-cell ions
   primitive index   ion index
                 1           1
                 2           2
                 3           3
                 4           4
                 5           5
                 6           6
                 7           7
                 8           8
                 9           9
                10          10
                11          11
                12          12
                13          13
                14          14
                15          15
                16          16
                17          17
                18          18
                19          19
                20          20
                21          21
                22          22
                23          23
                24          24
                25          25
                26          26
                27          27
                28          28
                29          29
                30          30
                31          31
                32          32
                33          33
                34          34
                35          35
                36          36
                37          37
                38          38
                39          39
                40          40
                41          41
                42          42
                43          43
                44          44
                45          45
                46          46
                47          47
                48          48
                49          49
                50          50
                51          51
                52          52
                53          53
                54          54
                55          55
                56          56
                57          57
                58          58
                59          59
                60          60
                61          61
                62          62
                63          63
                64          64

----------------------------------------------------------------------------------------

 
 
 KPOINTS: pymatgen v2020.8.13 with grid density = 

Automatic generation of k-mesh.
 Grid dimensions read from file:
 generate k-points for:    2    2    1

 Generating k-lattice:

  Cartesian coordinates                     Fractional coordinates (reciprocal lattice)
     0.059234796  0.000000000  0.000000000     0.500000000  0.000000000  0.000000000
     0.000000000  0.059234796  0.000000000     0.000000000  0.500000000  0.000000000
     0.000000000  0.000000000  0.046880702     0.000000000  0.000000000  1.000000000

  Length of vectors
     0.059234796  0.059234796  0.046880702

  Shift w.r.t. Gamma in fractional coordinates (k-lattice)
     0.000000000  0.000000000  0.000000000

 
 Subroutine IBZKPT returns following result:
 ===========================================
 
 Found      4 irreducible k-points:
 
 Following reciprocal coordinates:
            Coordinates               Weight
  0.000000  0.000000  0.000000      1.000000
  0.500000  0.000000  0.000000      1.000000
  0.000000  0.500000  0.000000      1.000000
  0.500000  0.500000  0.000000      1.000000
 
 Following cartesian coordinates:
            Coordinates               Weight
  0.000000  0.000000  0.000000      1.000000
  0.059235  0.000000  0.000000      1.000000
  0.000000  0.059235  0.000000      1.000000
  0.059235  0.059235  0.000000      1.000000
 
 
 Subroutine IBZKPT_HF returns following result:
 ==============================================
 
 Found      4 k-points in 1st BZ
 the following      4 k-points will be used (e.g. in the exchange kernel)
 Following reciprocal coordinates:   # in IRBZ
  0.000000  0.000000  0.000000    0.25000000   1 t-inv F
  0.500000  0.000000  0.000000    0.25000000   2 t-inv F
  0.000000  0.500000  0.000000    0.25000000   3 t-inv F
  0.500000  0.500000  0.000000    0.25000000   4 t-inv F


--------------------------------------------------------------------------------------------------------




 Dimension of arrays:
   k-points           NKPTS =      4   k-points in BZ     NKDIM =      4   number of bands    NBANDS=    268
   number of dos      NEDOS =    301   number of ions     NIONS =     64
   non local maximal  LDIM  =      5   non local SUM 2l+1 LMDIM =     13
   total plane-waves  NPLWV = 258048
   max r-space proj   IRMAX =   1363   max aug-charges    IRDMAX=   3545
   dimension x,y,z NGX =    48 NGY =   48 NGZ =  112
   dimension x,y,z NGXF=    96 NGYF=   96 NGZF=  224
   support grid    NGXF=    96 NGYF=   96 NGZF=  224
   ions per type =              32  32
   NGX,Y,Z   is equivalent  to a cutoff of   9.45,  9.45,  8.73 a.u.
   NGXF,Y,Z  is equivalent  to a cutoff of  18.91, 18.91, 17.46 a.u.

 SYSTEM =  Oxide-Surface                           
 POSCAR =  Mg  O                                   

     8.440984654  8.440984654 21.330738491     0.118469591  0.118469591  0.046880702


 
 old parameters found on file WAVECAR:
  energy-cutoff  :      450.00
  volume of cell :     1519.82
      direct lattice vectors                 reciprocal lattice vectors
     8.440984654  0.000000000  0.000000000     0.118469591  0.000000000  0.000000000
     0.000000000  8.440984654  0.000000000     0.000000000  0.118469591  0.000000000
     0.000000000  0.000000000 21.330738491     0.000000000  0.000000000  0.046880702

  length of vectors

 
 k-points in units of 2pi/SCALE and weight: pymatgen v2020.8.13 with grid density = 
   0.00000000  0.00000000  0.00000000       0.250
   0.05923480  0.00000000  0.00000000       0.250
   0.00000000  0.05923480  0.00000000       0.250
   0.05923480  0.05923480  0.00000000       0.250
 
 k-points in reciprocal lattice and weights: pymatgen v2020.8.13 with grid density = 
   0.00000000  0.00000000  0.00000000       0.250
   0.50000000  0.00000000  0.00000000       0.250
   0.00000000  0.50000000  0.00000000       0.250
   0.50000000  0.50000000  0.00000000       0.250
 
 position of ions in fractional coordinates (direct lattice) 
   0.00000000  0.75000000  0.35160527
   0.25000000  0.00000000  0.35160527
   0.00000000  0.00000000  0.45053509
   0.25000000  0.75000000  0.45053509
   0.00020728  0.74976879  0.54979129
   0.25004295  0.00012568  0.55003989
   0.00007381  0.00041004  0.64859535
   0.24768316  0.74991787  0.64843525
   0.00000000  0.25000000  0.35160527
   0.25000000  0.50000000  0.35160527
   0.00000000  0.50000000  0.45053509
   0.25000000  0.25000000  0.45053509
   0.00003126  0.25014048  0.54990958
   0.25068600  0.49974267  0.55040091
   0.00042567  0.49951388  0.64837197
   0.24898297  0.24985583  0.64874420
   0.50000000  0.75000000  0.35160527
   0.75000000  0.00000000  0.35160527
   0.50000000  0.00000000  0.45053509
   0.75000000  0.75000000  0.45053509
   0.49972603  0.74898027  0.55035563
   0.74977780  0.00028434  0.54993382
   0.49967710  0.00199269  0.64865552
   0.75246472  0.75067189  0.64752682
   0.50000000  0.25000000  0.35160527
   0.75000000  0.50000000  0.35160527
   0.50000000  0.50000000  0.45053509
   0.75000000  0.25000000  0.45053509
   0.49978167  0.25054752  0.55027066
   0.74901509  0.49967873  0.55046413
   0.49812059  0.49351852  0.65338184
   0.75066923  0.24955690  0.64845953
   0.00000000  0.75000000  0.45053509
   0.25000000  0.00000000  0.45053509
   0.00000000  0.00000000  0.35160527
   0.25000000  0.75000000  0.35160527
   0.99977244  0.75033793  0.65056587
   0.24926181  0.99988766  0.65073724
   0.99983050  0.99977476  0.54966371
   0.25055915  0.75023324  0.54996879
   0.00000000  0.25000000  0.45053509
   0.25000000  0.50000000  0.45053509
   0.00000000  0.50000000  0.35160527
   0.25000000  0.25000000  0.35160527
   0.99974368  0.24957784  0.65072832
   0.24818091  0.50009217  0.64970740
   0.99958195  0.50010796  0.54955547
   0.24990918  0.24961694  0.54973190
   0.50000000  0.75000000  0.45053509
   0.75000000  0.00000000  0.45053509
   0.50000000  0.00000000  0.35160527
   0.75000000  0.75000000  0.35160527
   0.50012374  0.75438870  0.65328335
   0.75049422  0.99986595  0.65070588
   0.49999529  0.99929447  0.54988909
   0.74932857  0.75003147  0.54990703
   0.50000000  0.25000000  0.45053509
   0.75000000  0.50000000  0.45053509
   0.50000000  0.50000000  0.35160527
   0.75000000  0.25000000  0.35160527
   0.50001505  0.24773183  0.65051598
   0.75168201  0.50029398  0.65105676
   0.50015060  0.50045234  0.55075754
   0.74990120  0.24988713  0.54980161
 
 position of ions in cartesian coordinates  (Angst):
   0.00000000  6.33073849  7.50000000
   2.11024616  0.00000000  7.50000000
   0.00000000  0.00000000  9.61024616
   2.11024616  6.33073849  9.61024616
   0.00174968  6.32878688 11.72745433
   2.11060869  0.00106086 11.73275716
   0.00062299  0.00346116 13.83501786
   2.09068971  6.33004524 13.83160269
   0.00000000  2.11024616  7.50000000
   2.11024616  4.22049233  7.50000000
   0.00000000  4.22049233  9.61024616
   2.11024616  2.11024616  9.61024616
   0.00026388  2.11143195 11.72997741
   2.11603670  4.21832022 11.74045787
   0.00359306  4.21638900 13.83025292
   2.10166144  2.10902926 13.83819283
   4.22049233  6.33073849  7.50000000
   6.33073849  0.00000000  7.50000000
   4.22049233  0.00000000  9.61024616
   6.33073849  6.33073849  9.61024616
   4.21817974  6.32213094 11.73949212
   6.32886287  0.00240009 11.73049459
   4.21776672  0.01682024 13.83630135
   6.35154316  6.33640988 13.81222516
   4.22049233  2.11024616  7.50000000
   6.33073849  4.22049233  7.50000000
   4.22049233  4.22049233  9.61024616
   6.33073849  2.11024616  9.61024616
   4.21864944  2.11486781 11.73767965
   6.32242489  4.21778051 11.74180651
   4.20462822  4.16578223 13.93711716
   6.33638741  2.10650599 13.83212070
   0.00000000  6.33073849  9.61024616
   2.11024616  0.00000000  9.61024616
   0.00000000  0.00000000  7.50000000
   2.11024616  6.33073849  7.50000000
   8.43906381  6.33359099 13.87705043
   2.10401508  8.44003638 13.88070586
   8.43955392  8.43908338 11.72473292
   2.11496591  6.33270723 11.73124038
   0.00000000  2.11024616  9.61024616
   2.11024616  4.22049233  9.61024616
   0.00000000  4.22049233  7.50000000
   2.11024616  2.11024616  7.50000000
   8.43882104  2.10668272 13.88051562
   2.09489126  4.22127032 13.85873863
   8.43745586  4.22140364 11.72242410
   2.10947957  2.10701274 11.72618737
   4.22049233  6.33073849  9.61024616
   6.33073849  0.00000000  9.61024616
   4.22049233  0.00000000  7.50000000
   6.33073849  6.33073849  7.50000000
   4.22153682  6.36778340 13.93501619
   6.33491019  8.43985314 13.88003698
   4.22045253  8.43502931 11.72954038
   6.32507095  6.33100409 11.72992309
   4.22049233  2.11024616  9.61024616
   6.33073849  4.22049233  9.61024616
   4.22049233  4.22049233  7.50000000
   6.33073849  2.11024616  7.50000000
   4.22061936  2.09110054 13.87598627
   6.34493629  4.22297378 13.88752142
   4.22176351  4.22431052 11.74806512
   6.32990452  2.10929340 11.72767439
 


--------------------------------------------------------------------------------------------------------

--------------------------------------- Iteration      FINAL  ---------------------------------------


--------------------OUTCAR has been truncated-------------------------


--------------------OUTCAR has been truncated-------------------------


--------------------OUTCAR has been truncated-------------------------


--------------------OUTCAR has been truncated-------------------------


--------------------OUTCAR has been truncated-------------------------


--------------------OUTCAR has been truncated-------------------------


--------------------OUTCAR has been truncated-------------------------


--------------------OUTCAR has been truncated-------------------------


--------------------OUTCAR has been truncated-------------------------


--------------------OUTCAR has been truncated-------------------------


    MIXING:  cpu time      0.0041: real time      0.0041
    OFIELD:  cpu time      0.0000: real time      0.0000

 VOLUME and BASIS-vectors are now :
 -----------------------------------------------------------------------------
  energy-cutoff  :      450.00
  volume of cell :     1519.82
      direct lattice vectors                 reciprocal lattice vectors
     8.440984654  0.000000000  0.000000000     0.118469591  0.000000000  0.000000000
     0.000000000  8.440984654  0.000000000     0.000000000  0.118469591  0.000000000
     0.000000000  0.000000000 21.330738491     0.000000000  0.000000000  0.046880702

  length of vectors
     8.440984654  8.440984654 21.330738491     0.118469591  0.118469591  0.046880702


 FORCES acting on ions
    electron-ion (+dipol)            ewald-force                    non-local-force                 convergence-correction
 -----------------------------------------------------------------------------------------------
   0.157E-01 0.202E+00 0.207E+04   -.160E-01 -.204E+00 -.206E+04   0.161E-03 0.108E-02 -.679E+01   0.322E-05 -.178E-04 -.253E+00
   -.294E+00 0.114E+00 0.207E+04   0.298E+00 -.116E+00 -.206E+04   -.231E-02 0.129E-02 -.682E+01   0.130E-05 0.215E-04 -.253E+00
   -.305E-01 0.269E+00 0.685E+03   0.378E-01 -.260E+00 -.685E+03   -.481E-02 -.609E-02 0.425E+00   0.126E-04 0.377E-04 -.106E+00
   -.149E+01 0.112E+01 0.682E+03   0.158E+01 -.112E+01 -.683E+03   -.553E-01 -.938E-03 0.531E+00   0.246E-04 -.448E-04 -.106E+00
   0.340E+00 0.849E+00 -.684E+03   -.292E+00 -.820E+00 0.684E+03   -.494E-01 -.724E-02 -.939E-01   0.169E-04 -.149E-03 0.792E-01
   -.187E+01 0.181E+01 -.688E+03   0.196E+01 -.187E+01 0.688E+03   -.628E-01 0.212E-01 -.233E+00   0.749E-04 0.791E-04 0.797E-01
   0.441E+00 0.125E+01 -.205E+04   -.452E+00 -.117E+01 0.204E+04   -.908E-02 -.902E-01 0.578E+01   0.136E-03 0.310E-03 0.235E+00
   -.111E+02 0.318E+01 -.205E+04   0.113E+02 -.265E+01 0.204E+04   0.834E-01 -.354E+00 0.577E+01   0.142E-03 -.356E-03 0.235E+00
   0.206E-01 -.203E+00 0.207E+04   -.215E-01 0.204E+00 -.206E+04   0.566E-03 -.938E-03 -.680E+01   0.821E-05 0.199E-04 -.253E+00
   -.373E+00 -.114E+00 0.207E+04   0.381E+00 0.116E+00 -.206E+04   -.455E-02 -.121E-02 -.681E+01   -.509E-05 -.261E-04 -.253E+00
   0.746E-01 -.287E+00 0.684E+03   -.112E+00 0.274E+00 -.685E+03   0.240E-01 0.855E-02 0.397E+00   0.141E-04 -.391E-04 -.106E+00
   -.133E+01 -.113E+01 0.684E+03   0.134E+01 0.113E+01 -.684E+03   -.476E-02 0.385E-02 0.495E+00   0.155E-04 0.452E-04 -.106E+00
   0.480E+00 -.736E+00 -.686E+03   -.479E+00 0.715E+00 0.686E+03   -.113E-01 -.170E-02 -.558E-01   0.322E-04 0.153E-03 0.796E-01
   -.474E+01 -.217E+01 -.689E+03   0.508E+01 0.224E+01 0.689E+03   -.275E+00 -.287E-01 -.510E+00   -.785E-04 -.852E-04 0.806E-01
   0.222E+01 -.133E+01 -.205E+04   -.249E+01 0.126E+01 0.204E+04   0.138E+00 0.803E-01 0.578E+01   0.121E-03 -.305E-03 0.235E+00
   -.164E+01 -.110E+01 -.205E+04   0.923E+00 0.488E+00 0.204E+04   0.537E+00 0.408E+00 0.604E+01   0.808E-04 0.355E-03 0.236E+00
   -.152E-01 0.281E+00 0.207E+04   0.153E-01 -.286E+00 -.206E+04   -.351E-04 0.364E-02 -.684E+01   -.436E-05 -.779E-05 -.253E+00
   0.293E+00 0.109E+00 0.207E+04   -.297E+00 -.110E+00 -.206E+04   0.253E-02 0.891E-03 -.681E+01   -.168E-05 0.165E-04 -.253E+00
   0.206E-01 0.494E+00 0.683E+03   -.356E-01 -.558E+00 -.683E+03   0.924E-02 0.407E-01 0.448E+00   -.131E-04 0.325E-04 -.106E+00
   0.147E+01 0.122E+01 0.682E+03   -.155E+01 -.126E+01 -.683E+03   0.569E-01 0.258E-01 0.519E+00   -.232E-04 -.426E-04 -.106E+00
   -.490E+00 0.509E+01 -.704E+03   0.450E+00 -.525E+01 0.704E+03   0.440E-01 0.161E+00 0.164E-01   -.227E-04 0.528E-04 0.803E-01
   0.190E+01 0.165E+01 -.686E+03   -.198E+01 -.167E+01 0.687E+03   0.582E-01 -.147E-01 -.235E+00   -.760E-04 0.666E-04 0.794E-01
   -.521E+00 0.625E+01 -.205E+04   0.544E+00 -.727E+01 0.204E+04   0.281E-02 0.589E+00 0.551E+01   -.138E-03 0.254E-03 0.235E+00
   0.124E+02 0.622E+01 -.204E+04   -.125E+02 -.592E+01 0.203E+04   -.121E+00 -.264E+00 0.554E+01   -.138E-03 -.368E-03 0.234E+00
   -.210E-01 -.283E+00 0.207E+04   0.215E-01 0.288E+00 -.206E+04   -.287E-03 -.296E-02 -.680E+01   -.885E-05 0.119E-04 -.253E+00
   0.372E+00 -.108E+00 0.207E+04   -.380E+00 0.110E+00 -.206E+04   0.499E-02 -.932E-03 -.683E+01   0.648E-05 -.194E-04 -.253E+00
   -.976E-01 -.495E+00 0.678E+03   0.122E+00 0.541E+00 -.679E+03   -.160E-01 -.304E-01 0.686E+00   -.138E-04 -.295E-04 -.106E+00
   0.131E+01 -.124E+01 0.684E+03   -.133E+01 0.128E+01 -.684E+03   0.907E-02 -.255E-01 0.515E+00   -.140E-04 0.429E-04 -.106E+00
   -.544E+00 -.354E+01 -.689E+03   0.546E+00 0.370E+01 0.689E+03   0.900E-02 -.153E+00 -.113E+00   -.323E-04 -.303E-05 0.803E-01
   0.507E+01 -.208E+01 -.695E+03   -.541E+01 0.211E+01 0.696E+03   0.276E+00 0.363E-02 -.306E+00   0.847E-04 -.701E-04 0.806E-01
   -.554E+01 -.233E+02 -.209E+04   0.563E+01 0.230E+02 0.208E+04   0.968E-01 0.836E+00 0.654E+01   -.148E-03 -.363E-03 0.242E+00
   0.195E+01 -.352E+01 -.205E+04   -.128E+01 0.317E+01 0.204E+04   -.505E+00 0.273E+00 0.589E+01   -.868E-04 0.374E-03 0.235E+00
   0.906E-01 0.485E+00 0.513E+03   -.101E+00 -.485E+00 -.513E+03   0.111E-01 0.122E-02 0.126E-01   0.629E-05 -.429E-04 -.773E-01
   -.852E+00 0.461E+00 0.513E+03   0.863E+00 -.466E+00 -.512E+03   -.136E-01 0.471E-02 -.811E-01   0.231E-04 0.314E-04 -.773E-01
   0.608E-02 0.683E-01 0.155E+04   -.470E-02 -.671E-01 -.156E+04   -.170E-02 -.148E-02 0.316E+01   0.646E-05 0.179E-04 -.190E+00
   -.258E+00 0.180E+00 0.155E+04   0.268E+00 -.180E+00 -.156E+04   -.124E-01 0.753E-03 0.316E+01   -.250E-05 -.766E-05 -.190E+00
   0.570E-01 0.127E+01 -.156E+04   -.154E+00 -.124E+01 0.156E+04   0.136E+00 -.599E-01 -.469E+01   0.649E-04 -.282E-03 0.179E+00
   -.194E+01 0.195E+01 -.156E+04   0.228E+01 -.233E+01 0.156E+04   -.347E+00 0.444E+00 -.464E+01   0.102E-03 0.192E-03 0.179E+00
   -.252E-01 0.269E+00 -.510E+03   0.111E-01 -.292E+00 0.509E+03   0.168E-01 0.327E-01 0.154E+00   0.278E-04 0.673E-04 0.582E-01
   -.353E+01 0.164E+01 -.513E+03   0.361E+01 -.161E+01 0.512E+03   -.123E+00 -.605E-01 0.290E+00   0.530E-04 -.700E-04 0.587E-01
   0.106E+00 -.487E+00 0.513E+03   -.105E+00 0.493E+00 -.513E+03   -.196E-02 -.735E-02 -.257E-01   0.112E-04 0.406E-04 -.773E-01
   -.133E+01 -.473E+00 0.511E+03   0.129E+01 0.484E+00 -.510E+03   0.489E-01 -.117E-01 -.102E+00   0.108E-04 -.303E-04 -.773E-01
   0.177E-01 -.682E-01 0.155E+04   -.207E-01 0.671E-01 -.156E+04   0.362E-02 0.128E-02 0.316E+01   0.370E-05 -.173E-04 -.190E+00
   -.238E+00 -.180E+00 0.155E+04   0.240E+00 0.181E+00 -.156E+04   -.302E-02 -.925E-03 0.316E+01   -.786E-06 0.144E-04 -.190E+00
   0.485E+00 -.118E+01 -.156E+04   -.614E+00 0.115E+01 0.156E+04   0.156E+00 0.785E-01 -.457E+01   0.911E-04 0.289E-03 0.179E+00
   -.548E+01 -.369E+01 -.155E+04   0.539E+01 0.413E+01 0.155E+04   0.222E+00 -.496E+00 -.370E+01   -.102E-03 -.189E-03 0.178E+00
   0.631E+00 -.331E+00 -.508E+03   -.671E+00 0.351E+00 0.507E+03   0.586E-01 -.306E-01 0.372E+00   0.201E-04 -.726E-04 0.582E-01
   -.149E+01 -.139E+01 -.510E+03   0.146E+01 0.136E+01 0.509E+03   0.309E-01 0.548E-01 0.334E+00   0.126E-04 0.801E-04 0.584E-01
   -.862E-01 0.957E+00 0.510E+03   0.988E-01 -.894E+00 -.510E+03   -.138E-01 -.734E-01 -.156E+00   -.904E-05 -.336E-04 -.773E-01
   0.833E+00 0.441E+00 0.513E+03   -.835E+00 -.457E+00 -.513E+03   0.246E-02 0.171E-01 -.498E-01   -.242E-04 0.252E-04 -.773E-01
   -.546E-02 0.890E-01 0.155E+04   0.434E-02 -.952E-01 -.156E+04   0.136E-02 0.761E-02 0.316E+01   -.498E-05 0.154E-04 -.190E+00
   0.257E+00 0.191E+00 0.155E+04   -.267E+00 -.196E+00 -.156E+04   0.124E-01 0.635E-02 0.316E+01   0.285E-05 -.740E-05 -.190E+00
   -.109E+01 0.151E+02 -.157E+04   0.131E+01 -.155E+02 0.157E+04   -.250E+00 -.280E-01 -.486E+01   -.707E-04 -.130E-03 0.182E+00
   0.205E+01 0.153E+01 -.156E+04   -.241E+01 -.187E+01 0.156E+04   0.368E+00 0.421E+00 -.479E+01   -.959E-04 0.170E-03 0.179E+00
   0.384E-01 0.238E+01 -.511E+03   -.340E-01 -.258E+01 0.511E+03   -.971E-02 0.259E+00 0.208E+00   -.276E-04 0.147E-04 0.586E-01
   0.362E+01 0.234E+01 -.510E+03   -.370E+01 -.232E+01 0.510E+03   0.118E+00 -.305E-01 0.495E+00   -.488E-04 -.746E-04 0.585E-01
   -.121E+00 -.101E+01 0.511E+03   0.129E+00 0.967E+00 -.511E+03   -.861E-02 0.477E-01 -.588E-01   -.140E-04 0.306E-04 -.773E-01
   0.131E+01 -.440E+00 0.510E+03   -.125E+01 0.456E+00 -.510E+03   -.684E-01 -.174E-01 -.151E+00   -.742E-05 -.270E-04 -.773E-01
   -.168E-01 -.873E-01 0.155E+04   0.203E-01 0.941E-01 -.156E+04   -.426E-02 -.832E-02 0.315E+01   -.745E-05 -.246E-04 -.190E+00
   0.238E+00 -.192E+00 0.155E+04   -.240E+00 0.197E+00 -.156E+04   0.271E-02 -.632E-02 0.316E+01   0.207E-05 0.178E-04 -.190E+00
   -.768E+00 -.118E+01 -.155E+04   0.916E+00 0.500E+00 0.156E+04   -.178E+00 0.809E+00 -.378E+01   -.880E-04 0.880E-04 0.179E+00
   0.826E+01 -.381E+01 -.156E+04   -.844E+01 0.431E+01 0.156E+04   0.387E-02 -.559E+00 -.432E+01   0.966E-04 -.173E-03 0.180E+00
   -.852E+00 -.351E+01 -.532E+03   0.882E+00 0.369E+01 0.532E+03   -.521E-01 -.237E+00 -.643E+00   -.253E-04 -.520E-04 0.597E-01
   0.153E+01 -.205E+01 -.510E+03   -.151E+01 0.204E+01 0.510E+03   -.320E-01 0.256E-01 0.372E+00   -.864E-05 0.820E-04 0.585E-01
 -----------------------------------------------------------------------------------------------
   -.345E+00 -.228E+01 0.172E+02   -.194E-12 -.355E-13 0.284E-12   0.305E+00 0.206E+01 -.143E+02   -.337E-04 -.111E-03 -.581E+00
 
 
 POSITION                                       TOTAL-FORCE (eV/Angst)
 -----------------------------------------------------------------------------------
      0.00000      6.33074      7.50000         0.000077     -0.000570      0.491181
      2.11025      0.00000      7.50000         0.001288     -0.000644      0.497080
      0.00000      0.00000      9.61025         0.001947      0.002467      0.018769
      2.11025      6.33074      9.61025         0.023104     -0.001315      0.031083
      0.00175      6.32879     11.72745        -0.007558      0.019836      0.033139
      2.11061      0.00106     11.73276         0.015890     -0.035033      0.057822
      0.00062      0.00346     13.83502        -0.020111     -0.022713     -0.124455
      2.09069      6.33005     13.83160         0.275380      0.126879     -0.066208
      0.00000      2.11025      7.50000        -0.000099      0.000442      0.494369
      2.11025      4.22049      7.50000         0.002090      0.000444      0.497281
      0.00000      4.22049      9.61025        -0.010168     -0.004047      0.026755
      2.11025      2.11025      9.61025         0.002901     -0.000017      0.011853
      0.00026      2.11143     11.72998        -0.010698     -0.021879      0.022712
      2.11604      4.21832     11.74046         0.031397      0.037211     -0.041683
      0.00359      4.21639     13.83025        -0.111295      0.022453     -0.107660
      2.10166      2.10903     13.83819        -0.106494     -0.153007     -0.228484
      4.22049      6.33074      7.50000         0.000247     -0.001415      0.503303
      6.33074      0.00000      7.50000        -0.001143     -0.000485      0.494741
      4.22049      0.00000      9.61025        -0.004327     -0.017774      0.051440
      6.33074      6.33074      9.61025        -0.022871     -0.011812      0.030907
      4.21818      6.32213     11.73949         0.008623      0.017650      0.228341
      6.32886      0.00240     11.73049        -0.015291     -0.032556      0.069633
      4.21777      0.01682     13.83630         0.023705     -0.344706     -0.038633
      6.35154      6.33641     13.81223        -0.306514      0.002810      0.122078
      4.22049      2.11025      7.50000         0.000324      0.001267      0.494154
      6.33074      4.22049      7.50000        -0.002019      0.000372      0.500622
      4.22049      4.22049      9.61025         0.005776      0.011896      0.055405
      6.33074      2.11025      9.61025        -0.004991      0.012233      0.015316
      4.21865      2.11487     11.73768         0.010957     -0.006777     -0.043922
      6.32242      4.21778     11.74181        -0.029311      0.034745      0.036430
      4.20463      4.16578     13.93712         0.187170      0.635665     -0.790109
      6.33639      2.10651     13.83212         0.099416     -0.050332     -0.131920
      0.00000      6.33074      9.61025         0.002792      0.001138      0.073249
      2.11025      0.00000      9.61025        -0.003777      0.000261      0.065558
      0.00000      0.00000      7.50000        -0.000443     -0.000534     -0.445309
      2.11025      6.33074      7.50000        -0.004089      0.000198     -0.446421
      8.43906      6.33359     13.87705         0.062828     -0.050255     -0.107991
      2.10402      8.44004     13.88071        -0.053973      0.132857     -0.099819
      8.43955      8.43908     11.72473         0.006388      0.016249      0.003401
      2.11497      6.33271     11.73124        -0.064043     -0.034546     -0.021983
      0.00000      2.11025      9.61025        -0.000987     -0.003016      0.070857
      2.11025      4.22049      9.61025         0.015539     -0.002432      0.095609
      0.00000      4.22049      7.50000         0.001374      0.000387     -0.446090
      2.11025      2.11025      7.50000        -0.000893     -0.000334     -0.445884
      8.43882      2.10668     13.88052         0.052812      0.059105     -0.082681
      2.09489      4.22127     13.85874         0.176637     -0.141011      0.229530
      8.43746      4.22140     11.72242         0.028653     -0.015719      0.058521
      2.10948      2.10701     11.72619         0.010374      0.034475      0.057613
      4.22049      6.33074      9.61025        -0.003412     -0.021826      0.071331
      6.33074      0.00000      9.61025         0.000891      0.003893      0.065908
      4.22049      0.00000      7.50000         0.000593      0.002579     -0.447198
      6.33074      6.33074      7.50000         0.004347      0.002108     -0.444334
      4.22154      6.36778     13.93502        -0.068071     -0.442477     -0.274011
      6.33491      8.43985     13.88004         0.060576      0.141409     -0.137239
      4.22045      8.43503     11.72954        -0.006919      0.094928     -0.014620
      6.32507      6.33100     11.72992         0.061956     -0.014808     -0.039066
      4.22049      2.11025      9.61025        -0.001794      0.014963      0.098272
      6.33074      4.22049      9.61025        -0.020950     -0.004175      0.084850
      4.22049      4.22049      7.50000        -0.001335     -0.002871     -0.450385
      6.33074      2.11025      7.50000         0.001045     -0.002174     -0.445968
      4.22062      2.09110     13.87599        -0.059771      0.253136      0.142407
      6.34494      4.22297     13.88752        -0.191823     -0.157006     -0.010382
      4.22176      4.22431     11.74807        -0.030694     -0.101716     -0.000961
      6.32990      2.10929     11.72767        -0.011229      0.015930      0.031895
 -----------------------------------------------------------------------------------
    total drift:                               -0.009133      0.002030     -0.035767


--------------------------------------------------------------------------------------------------------



  FREE ENERGIE OF THE ION-ELECTRON SYSTEM (eV)
  ---------------------------------------------------
  free  energy   TOTEN  =      -446.04798060 eV

  energy  without entropy=     -446.04798060  energy(sigma->0) =     -446.04798060
 


--------------------------------------------------------------------------------------------------------


    POTLOK:  cpu time      5.1489: real time      5.1633


--------------------------------------------------------------------------------------------------------


     LOOP+:  cpu time    596.4449: real time    597.9276
    4ORBIT:  cpu time      0.0000: real time      0.0000

 total amount of memory used by VASP MPI-rank0   850115. kBytes
=======================================================================

   base      :      30000. kBytes
   nonlr-proj:      19436. kBytes
   fftplans  :      18492. kBytes
   grid      :      39444. kBytes
   one-center:        519. kBytes
   HF        :         67. kBytes
   wavefun   :     144608. kBytes
   fock_wrk  :     597549. kBytes
 
  
  
 General timing and accounting informations for this job:
 ========================================================
  
                  Total CPU time used (sec):      601.568
                            User time (sec):      593.601
                          System time (sec):        7.968
                         Elapsed time (sec):      606.339
  
                   Maximum memory used (kb):     2379488.
                   Average memory used (kb):          N/A
  
                          Minor page faults:       351986
                          Major page faults:            0
                 Voluntary context switches:        23952


                    ____  _____ _____     ____  _  _
      -------------|  _ \|  ___|_   _|---|  _ \| || |------------
     |             | | | | |_    | | ___ | | | | || |_           |
     |             | |_| |  _|   | ||___|| |_| |__   _|          |
     |             |____/|_|     |_|     |____/   |_|            |
     |             ===================================           |
     |            E. Caldeweyher, S. Ehlert & S. Grimme          |
     |          Mulliken Center for Theoretical Chemistry        |
     |                    University of Bonn                     |
      ----------------------------------------------------------- 

Rational (Becke-Johnson) damping: hse06-D4-ATM
---------------------
  s6         1.0000
  s8         1.1953
  s9         1.0000
  a1         0.3866
  a2         5.1913
 alp        16.0000
--------------------

Dispersion energy:      -2.6779872210253E-01 Eh

