 **********************************************************************
                          MRCC program system
 **********************************************************************
 
                              Written by
     Mihaly Kallay, Peter R. Nagy, David Mester, Laszlo Gyevi-Nagy,
        Jozsef Csoka, P. Bernat Szabo, Zoltan Rolik, Gyula Samu,
     Jozsef Csontos, Bence Hegely, Adam Ganyecz, Istvan Ladjanszki,
       Lorant Szegedy, Bence Ladoczki, Klara Petrov, Mate Farkas,
                    Pal D. Mezei, and Reka A. Horvath
 
        Department of Physical Chemistry and Materials Science
            Budapest University of Technology and Economics
                  Budapest P.O.Box 91, H-1521 Hungary
 
                              www.mrcc.hu
 
                      Release date: March 18, 2022

 ************************ 2022-11-17 20:38:06 *************************
 Executing minp...

 Reading input from MINP...
 
 Input file:
 
calc=LNO-CCSD(T)
scftype=rhf
verbosity=3
mem=300GB
symm=off
unit=angs
scfiguess=small
scfmaxit=1000
scfalg=locfit1


lcorthr=tight
bpedo=0.99999
ccmaxit=400
usedisk=0
ccsdalg=dfdirect
ccsdthreads=4
ccsdmkl=thr
ptthreads=4

charge=0
core=2

basis=special
aug-cc-pVDZ
aug-cc-pVDZ
aug-cc-pVDZ
aug-cc-pVDZ
aug-cc-pVDZ
aug-cc-pVDZ
aug-cc-pVDZ
aug-cc-pVDZ
bse_CVDZ
aug-cc-pVDZ
aug-cc-pVDZ
aug-cc-pVDZ
aug-cc-pVDZ
aug-cc-pVDZ
bse_CVDZ
bse_CVDZ
bse_CVDZ
bse_CVDZ
aug-cc-pVDZ
aug-cc-pVDZ
aug-cc-pVDZ
aug-cc-pVDZ
bse_CVDZ
bse_CVDZ
bse_CVDZ
bse_CVDZ
aug-cc-pVDZ
aug-cc-pVDZ
aug-cc-pVDZ
aug-cc-pVDZ
aug-cc-pVDZ
aug-cc-pVDZ
aug-cc-pVDZ
aug-cc-pVDZ
aug-cc-pVDZ
aug-cc-pVDZ
aug-cc-pVDZ
aug-cc-pVDZ
aug-cc-pVDZ
aug-cc-pVDZ
aug-cc-pVDZ
aug-cc-pVDZ

basis_sm=special
def2-SVP
def2-SVP
def2-SVP
def2-SVP
def2-SVP
def2-SVP
def2-SVP
def2-SVP
def2-SVP
def2-SVP
def2-SVP
def2-SVP
def2-SVP
def2-SVP
def2-SVP
def2-SVP
def2-SVP
def2-SVP
def2-SVP
def2-SVP
def2-SVP
def2-SVP
def2-SVP
def2-SVP
def2-SVP
def2-SVP
def2-SVP
def2-SVP
def2-SVP
def2-SVP
def2-SVP
def2-SVP
def2-SVP
def2-SVP
def2-SVP
def2-SVP
def2-SVP
def2-SVP
def2-SVP
def2-SVP
def2-SVP
def2-SVP

dfbasis_scf=special
def2-QZVPP-RI-JK
def2-QZVPP-RI-JK
def2-QZVPP-RI-JK
def2-QZVPP-RI-JK
def2-QZVPP-RI-JK
def2-QZVPP-RI-JK
def2-QZVPP-RI-JK
def2-QZVPP-RI-JK
def2-QZVPP-RI-JK
def2-QZVPP-RI-JK
def2-QZVPP-RI-JK
def2-QZVPP-RI-JK
def2-QZVPP-RI-JK
def2-QZVPP-RI-JK
def2-QZVPP-RI-JK
def2-QZVPP-RI-JK
def2-QZVPP-RI-JK
def2-QZVPP-RI-JK
def2-QZVPP-RI-JK
def2-QZVPP-RI-JK
def2-QZVPP-RI-JK
def2-QZVPP-RI-JK
def2-QZVPP-RI-JK
def2-QZVPP-RI-JK
def2-QZVPP-RI-JK
def2-QZVPP-RI-JK
def2-QZVPP-RI-JK
def2-QZVPP-RI-JK
def2-QZVPP-RI-JK
def2-QZVPP-RI-JK
def2-QZVPP-RI-JK
def2-QZVPP-RI-JK
def2-QZVPP-RI-JK
def2-QZVPP-RI-JK
def2-QZVPP-RI-JK
def2-QZVPP-RI-JK
def2-QZVPP-RI-JK
def2-QZVPP-RI-JK
def2-QZVPP-RI-JK
def2-QZVPP-RI-JK
def2-QZVPP-RI-JK
def2-QZVPP-RI-JK

dfbasis_cor=special
aug-cc-pVDZ-RI
aug-cc-pVDZ-RI
aug-cc-pVDZ-RI
aug-cc-pVDZ-RI
aug-cc-pVDZ-RI
aug-cc-pVDZ-RI
aug-cc-pVDZ-RI
aug-cc-pVDZ-RI
bse_CVDZ_mp2fit
aug-cc-pVDZ-RI
aug-cc-pVDZ-RI
aug-cc-pVDZ-RI
aug-cc-pVDZ-RI
aug-cc-pVDZ-RI
bse_CVDZ_mp2fit
bse_CVDZ_mp2fit
bse_CVDZ_mp2fit
bse_CVDZ_mp2fit
aug-cc-pVDZ-RI
aug-cc-pVDZ-RI
aug-cc-pVDZ-RI
aug-cc-pVDZ-RI
bse_CVDZ_mp2fit
bse_CVDZ_mp2fit
bse_CVDZ_mp2fit
bse_CVDZ_mp2fit
aug-cc-pVDZ-RI
aug-cc-pVDZ-RI
aug-cc-pVDZ-RI
aug-cc-pVDZ-RI
aug-cc-pVDZ-RI
aug-cc-pVDZ-RI
aug-cc-pVDZ-RI
aug-cc-pVDZ-RI
aug-cc-pVDZ-RI
aug-cc-pVDZ-RI
aug-cc-pVDZ-RI
aug-cc-pVDZ-RI
aug-cc-pVDZ-RI
aug-cc-pVDZ-RI
aug-cc-pVDZ-RI
aug-cc-pVDZ-RI

ecp=special
none
none
none
none
none
none
none
none
none
none
none
none
none
none
none
none
none
none
none
none
none
none
none
none
none
none
none
none
none
none
none
none
none
none
none
none
none
none
none
none
none
none

unit=angs
geom=xyz
42
C2 H6 Mg9 O25 ECP69
C    -0.41689822922   -0.02185305659    3.07794000557
C    -1.72242623808   -0.63612110120    3.57781821960
H    -0.59199935821    0.91149562795    2.52476034735
H     0.11313945014   -0.72351786700    2.41630228359
H     0.26642805910    0.21311051199    3.90478343526
H    -2.40717047785   -0.83187135322    2.74190428256
H    -2.24223250058    0.03463530165    4.27513805082
H    -1.54444920195   -1.58613834456    4.09937753601
Mg    0.00000000000    0.00000000000   -0.03652448019
O    -0.00005601345    2.10907390660   -0.00002665905
O    -0.00006236277   -2.11136123308    0.00000000000
O    -2.11222639314   -0.00131919639   -0.00560527220
O     2.11498488411   -0.00110503738   -0.00000303788
O     0.00271927821   -0.00281039503   -2.15376485956
Mg   -2.10864408182    2.10826547188   -0.05485464755
Mg   -2.10864694756   -2.11187939284   -0.05484963009
Mg    2.11494004117    2.11016683353   -0.03597672200
Mg    2.11493629640   -2.11020130363   -0.03596672574
O    -2.10706162784    2.10724933752   -2.15873956657
O     2.11291637790    2.10743079756   -2.15344922460
O    -2.10705995584   -2.11333420346   -2.15871862053
O     2.11291440837   -2.11304927761   -2.15343361022
Mg   -4.21684147109   -0.00175238924   -0.05460643706
Mg    0.00008109781    4.22047913623   -0.03700420493
Mg    0.00008109781   -4.22050791959   -0.03700420493
Mg    4.22414558473   -0.00175238924   -0.05460643706
O    -4.21346101188    2.10893647129   -0.00403867909
O    -4.21345809273   -2.11153645033   -0.00401560813
O    -2.11223762539    4.21916248441   -0.00555661139
O     0.00267372550    4.21768364359   -2.15360750253
O     2.11500597442    4.21937717473   -0.00010581928
O    -2.11223762539   -4.22182457141   -0.00555661139
O     2.11500597442   -4.22160988108   -0.00010581928
O    -4.21862275779   -0.00302996910   -2.15842348918
O     0.00267372550   -4.22330341222   -2.15360750253
O     4.22752604394    2.10893647129   -0.00403867909
O     4.22236429802   -0.00302996910   -2.15842348918
O     4.22752896308   -2.11153645033   -0.00401560813
O    -6.32600217170   -0.00110503738   -0.00000303788
O     6.32876066268   -0.00131919639   -0.00560527220
O    -0.00006236277    6.32962582274    0.00000000000
O    -0.00005601345   -6.33191314921   -0.00002665905

ghost=serialno
9-42

 
 
 Checking keyword combinations...
 
 Keywords:
 
 active=none
--------------------Output has been truncated-------------------------


--------------------Output has been truncated-------------------------


--------------------Output has been truncated-------------------------


--------------------Output has been truncated-------------------------


--------------------Output has been truncated-------------------------


--------------------Output has been truncated-------------------------


--------------------Output has been truncated-------------------------


--------------------Output has been truncated-------------------------


--------------------Output has been truncated-------------------------


--------------------Output has been truncated-------------------------


 
 Final local CC results:
 
 Minimum number of correlated electrons:        14       (100.0%)
 Maximum number of correlated electrons:        14       (100.0%)
 Average number of correlated electrons:        14.0     (100.0%)
 Minimum number of correlated orbitals:         69       (  7.5%)
 Maximum number of correlated orbitals:         77       (  8.4%)
 Average number of correlated orbitals:         71.0     (  7.8%)
 
 CPU time for integral calculations [min]:                  4.506
 Wall time for integral calculations [min]:                 0.155
 
 CPU time for SCF calculation [min]:                       18.182
 Wall time for SCF calculation [min]:                       0.606
 
 CPU time for orbital localization [min]:                   0.138
 Wall time for orbital localization [min]:                  0.031
 
 CPU time for integral transformations [min]:              36.225
 Wall time for integral transformations [min]:              1.586
 
 Reference energy [au]:                                   -79.237393750104
 
 LMP2 correlation energy [au]:                             -0.315115311385
 Total LMP2 energy [au]:                                  -79.552509061489
 
 Total MP2 correction for dropped NAFs [au]:               -0.000071773279
 Total MP2 correction [au]:                                -0.000238300715
 
 CPU time for CCSD calculations [min]:                      1.610
 Total CPU time for CCSD [min]:                            60.661
 Wall time for CCSD calculations [min]:                     0.057
 Total wall time for CCSD [min]:                            2.434
 
 CCSD correlation energy [au]:                             -0.351901163145
 Total CCSD energy [au]:                                  -79.589294913249
 CCSD correlation energy + 0.5 MP2 corrections [au]:       -0.352020313502
 Total LNO-CCSD energy with MP2 corrections [au]:         -79.589414063606
 
 CPU time for (T) corrections [min]:                        0.926
 Total CPU time for CCSD(T) [min]:                         61.587
 Wall time for (T) corrections [min]:                       0.034
 Total wall time for CCSD(T) [min]:                         2.469
 
 Total (T) correlation energy contribution [au]:           -0.009810464233
 Total (T) correlation energy+0.5 MP2 correction [au]:     -0.009929614590
 CCSD(T) correlation energy [au]:                          -0.361711627378
 Total CCSD(T) energy [au]:                               -79.599105377482
 CCSD(T) correlation energy + MP2 corrections [au]:        -0.361949928093
 Total LNO-CCSD(T) energy with MP2 corrections [au]:      -79.599343678197
 
 ======================================================================
 ======================================================================
 
 ************************ 2022-11-17 20:41:15 *************************
                      Normal termination of mrcc.
 **********************************************************************
