 vasp.6.3.0 20Jan22 (build Aug 21 2024 11:13:42) complex                         
 executed on        HPECrayEX_GCC date 2024.11.26  18:59:27
 running  512 mpi-ranks, with    1 threads/rank
 distrk:  each k-point on  512 cores,    1 groups
 distr:  one band on NCORE=  16 cores,   32 groups


--------------------------------------------------------------------------------------------------------


 INCAR:
   SYSTEM = TiO2
   ISMEAR = 0
   SIGMA = 0.05
   EDIFF = 1E-4
   ALGO = ALL
   ISTART = 0
   IBRION = -1
   NSW = 0
   ISYM = 0
   ISIF = 2
   EDIFFG = -0.01
   DIPOL = 0.5 0.5 0.5
   IDIPOL = 3
   LDIPOL = .TRUE.
   GGA = PE
   IVDW = 21
   ENCUT = 600
   PREC = Accurate
   LASPH = .TRUE.
   LREAL = .FALSE.
   ISPIN = 1
   NELM = 200
   NELMIN = 8
   NCORE = 16
   KPAR = 1
   LWAVE = .FALSE.
   LCHARG = .FALSE.

 POTCAR:    PAW_PBE Ti_pv 07Sep2000               
 POTCAR:    PAW_PBE O 08Apr2002                   
 POTCAR:    PAW_PBE Ti_pv 07Sep2000               
   SHA256 =  f757a1b2c6d082f4c628fa3d987464a8763bf92e53844ac0500b0e2ddc9ce5c0 Ti_pv/POTCAR          
   COPYR  = (c) Copyright 07Sep2000 Georg Kresse                                                    
   COPYR  = This file is part of the software VASP. Any use, copying, and all other rights are regul
   COPYR  = If you do not have a valid VASP license, you may not use, copy or distribute this file. 
   VRHFIN =Ti: d3 s1                                                                                
   LEXCH  = PE                                                                                      
   EATOM  =  1042.5995 eV,   76.6289 Ry                                                             
                                                                                                    
   TITEL  = PAW_PBE Ti_pv 07Sep2000                                                                 
   LULTRA =        F    use ultrasoft PP ?                                                          
   IUNSCR =        1    unscreen: 0-lin 1-nonlin 2-no                                               
   RPACOR =    2.200    partial core radius                                                         
   POMASS =   47.880; ZVAL   =   10.000    mass and valenz                                          
   RCORE  =    2.500    outmost cutoff radius                                                       
   RWIGS  =    2.500; RWIGS  =    1.323    wigner-seitz radius (au A)                               
   ENMAX  =  222.335; ENMIN  =  166.751 eV                                                          
   RCLOC  =    1.701    cutoff for local pot                                                        
   LCOR   =        T    correct aug charges                                                         
   LPAW   =        T    paw PP                                                                      
   EAUG   =  482.848                                                                                
   DEXC   =    0.000                                                                                
   RMAX   =    2.564    core radius for proj-oper                                                   
   RAUG   =    1.300    factor for augmentation sphere                                              
   RDEP   =    2.538    radius for radial grids                                                     
   RDEPT  =    1.952    core radius for aug-charge                                                  
                                                                                                    
   Atomic configuration                                                                             
    8 entries                                                                                       
     n  l   j            E        occ.                                                              
     1  0  0.50     -4865.3608   2.0000                                                             
     2  0  0.50      -533.1368   2.0000                                                             
     2  1  1.50      -440.5031   6.0000                                                             
     3  0  0.50       -59.3186   2.0000                                                             
     3  1  1.50       -35.7012   6.0000                                                             
     3  2  2.50        -1.9157   3.0000                                                             
     4  0  0.50        -3.7291   1.0000                                                             
     4  3  2.50        -1.3606   0.0000                                                             
   Description                                                                                      
     l       E           TYP  RCUT    TYP  RCUT                                                     
     1    -35.7012140     23  2.300                                                                 
     1     -1.3605826     23  2.300                                                                 
     2     -1.9156996     23  2.500                                                                 
     2     -0.4063033     23  2.500                                                                 
     0     -3.7290856     23  2.500                                                                 
     0     20.4087390     23  2.500                                                                 
  local pseudopotential read in
  partial core-charges read in
  partial kinetic energy density read in
  atomic valenz-charges read in
  non local Contribution for L=           1  read in
    real space projection operators read in
  non local Contribution for L=           1  read in
    real space projection operators read in
  non local Contribution for L=           2  read in
    real space projection operators read in
  non local Contribution for L=           2  read in
    real space projection operators read in
  non local Contribution for L=           0  read in
    real space projection operators read in
  non local Contribution for L=           0  read in
    real space projection operators read in
    PAW grid and wavefunctions read in

   number of l-projection  operators is LMAX  =           6
   number of lm-projection operators is LMMAX =          18

 POTCAR:    PAW_PBE O 08Apr2002                   
   SHA256 =  818f92134a0a090dccd8ba1447fa70422a3b330e708bb4f08108d8ae51209ddf O/POTCAR              
   COPYR  = (c) Copyright 08Apr2002 Georg Kresse                                                    
   COPYR  = This file is part of the software VASP. Any use, copying, and all other rights are regul
   COPYR  = If you do not have a valid VASP license, you may not use, copy or distribute this file. 
   VRHFIN =O: s2p4                                                                                  
   LEXCH  = PE                                                                                      
   EATOM  =   432.3788 eV,   31.7789 Ry                                                             
                                                                                                    
   TITEL  = PAW_PBE O 08Apr2002                                                                     
   LULTRA =        F    use ultrasoft PP ?                                                          
   IUNSCR =        1    unscreen: 0-lin 1-nonlin 2-no                                               
   RPACOR =    1.200    partial core radius                                                         
   POMASS =   16.000; ZVAL   =    6.000    mass and valenz                                          
   RCORE  =    1.520    outmost cutoff radius                                                       
   RWIGS  =    1.550; RWIGS  =    0.820    wigner-seitz radius (au A)                               
   ENMAX  =  400.000; ENMIN  =  300.000 eV                                                          
   ICORE  =        2    local potential                                                             
   LCOR   =        T    correct aug charges                                                         
   LPAW   =        T    paw PP                                                                      
   EAUG   =  605.392                                                                                
   DEXC   =    0.000                                                                                
   RMAX   =    1.553    core radius for proj-oper                                                   
   RAUG   =    1.300    factor for augmentation sphere                                              
   RDEP   =    1.550    radius for radial grids                                                     
   RDEPT  =    1.329    core radius for aug-charge                                                  
                                                                                                    
   Atomic configuration                                                                             
    4 entries                                                                                       
     n  l   j            E        occ.                                                              
     1  0  0.50      -514.6923   2.0000                                                             
     2  0  0.50       -23.9615   2.0000                                                             
     2  1  0.50        -9.0305   4.0000                                                             
     3  2  1.50        -9.5241   0.0000                                                             
   Description                                                                                      
     l       E           TYP  RCUT    TYP  RCUT                                                     
     0    -23.9615318     23  1.200                                                                 
     0     -9.5240782     23  1.200                                                                 
     1     -9.0304911     23  1.520                                                                 
     1      8.1634956     23  1.520                                                                 
     2     -9.5240782      7  1.500                                                                 
  local pseudopotential read in
  partial core-charges read in
  partial kinetic energy density read in
  kinetic energy density of atom read in
  atomic valenz-charges read in
  non local Contribution for L=           0  read in
    real space projection operators read in
  non local Contribution for L=           0  read in
    real space projection operators read in
  non local Contribution for L=           1  read in
    real space projection operators read in
  non local Contribution for L=           1  read in
    real space projection operators read in
    PAW grid and wavefunctions read in

   number of l-projection  operators is LMAX  =           4
   number of lm-projection operators is LMMAX =           8

 -----------------------------------------------------------------------------
|                                                                             |
|               ----> ADVICE to this user running VASP <----                  |
|                                                                             |
|     You have a (more or less) 'large supercell' and for larger cells it     |
|     might be more efficient to use real-space projection operators.         |
|     Therefore, try LREAL= Auto in the INCAR file.                           |
|     Mind: For very accurate calculation, you might also keep the            |
|     reciprocal projection scheme (i.e. LREAL=.FALSE.).                      |
|                                                                             |
 -----------------------------------------------------------------------------

  PAW_PBE Ti_pv 07Sep2000               :
 energy of atom  1       EATOM=-1042.5995
 kinetic energy error for atom=    0.0007 (will be added to EATOM!!)
  PAW_PBE O 08Apr2002                   :
 energy of atom  2       EATOM= -432.3788
 kinetic energy error for atom=    0.0168 (will be added to EATOM!!)


 POSCAR: Ti  O
  positions in direct lattice
  No initial velocities read in
 exchange correlation table for  LEXCH =        8
   RHO(1)=    0.500       N(1)  =     2000
   RHO(2)=  100.500       N(2)  =     4000



--------------------------------------------------------------------------------------------------------


 ion  position               nearest neighbor table
   1  0.750  0.625  0.287-  81 1.96  82 1.96 141 1.96 142 1.96  84 1.99 163 1.99  11 2.96  31 2.96

   2  0.000  0.750  0.287-  83 1.96  84 1.96 103 1.96 104 1.96  85 1.99  32 2.96  12 2.96
   3  0.000  0.625  0.393-  85 1.96  86 1.96 145 1.96 146 1.96  87 1.99  88 1.99  13 2.96  33 2.96

   4  0.750  0.750  0.393-  87 1.96 107 1.96 168 1.96 188 1.96  89 1.99  82 1.99  14 2.96  34 2.96

   5  0.750  0.625  0.500-  89 1.96  90 1.96 149 1.96 150 1.96  92 1.99 171 1.99  15 2.96  35 2.96

   6  0.000  0.750  0.500-  91 1.96  92 1.96 111 1.96 112 1.96  86 1.99  93 2.01  16 2.96  36 2.96

   7  0.000  0.625  0.604-  93 1.90 153 1.90  96 1.95  95 1.96  94 2.02 154 2.02  17 2.96  37 2.96

   8  0.750  0.750  0.610-  97 1.88  95 1.97 176 1.98 196 1.98 115 1.98  90 2.10  18 2.96  38 2.96

   9  0.751  0.626  0.719-  98 1.83 158 1.87 179 2.02 100 2.03  97 2.08 157 2.09  19 2.95  39 2.99

  10  1.000  0.750  0.709-  94 1.82 119 1.94 120 1.95  99 1.95 100 1.96  20 2.96  40 2.96
  11  0.750  0.875  0.287-  81 1.96  82 1.96 101 1.96 102 1.96 104 1.99 183 1.99   1 2.96  21 2.96

  12  0.000  0.000  0.287- 103 1.96 104 1.96 123 1.96 124 1.96 105 1.99  22 2.96   2 2.96
  13  0.000  0.875  0.393-  85 1.96  86 1.96 105 1.96 106 1.96 107 1.99 108 1.99   3 2.96  23 2.96

  14  0.750  0.000  0.393- 107 1.96 127 1.96 188 1.96 208 1.96 109 1.99 102 1.99   4 2.96  24 2.96

  15  0.750  0.875  0.500-  89 1.96  90 1.96 109 1.96 110 1.96 112 1.99 191 1.99   5 2.96  25 2.96

  16  0.000  0.000  0.500- 111 1.96 112 1.96 131 1.96 132 1.96 106 1.99 113 2.01   6 2.96  26 2.96

  17  0.000  0.875  0.605-  93 1.90 113 1.90 116 1.95 115 1.96 114 2.02  94 2.02  27 2.96   7 2.96

  18  0.750  0.000  0.611- 117 1.88 135 1.97 216 1.98 115 1.98 196 1.98 110 2.11  28 2.96   8 2.96

  19  0.750  0.875  0.720- 118 1.83  98 1.84 199 2.03 120 2.04 117 2.09  97 2.09   9 2.95  29 2.95

  20  0.000  1.000  0.709- 114 1.82 120 1.95 139 1.95 140 1.95 119 1.95  10 2.96  30 2.96
  21  0.750  0.125  0.287- 101 1.96 102 1.96 121 1.96 122 1.96 124 1.99 203 1.99  11 2.96  31 2.96

  22  0.000  0.250  0.287- 123 1.96 124 1.96 143 1.96 144 1.96 125 1.99  32 2.96  12 2.96
  23  0.000  0.125  0.393- 105 1.96 106 1.96 125 1.96 126 1.96 127 1.99 128 1.99  13 2.96  33 2.96

  24  0.750  0.250  0.393- 127 1.96 147 1.96 208 1.96 228 1.96 129 1.99 122 1.99  14 2.96  34 2.96

  25  0.750  0.125  0.500- 109 1.96 110 1.96 129 1.96 130 1.96 132 1.99 211 1.99  15 2.96  35 2.96

  26  0.000  0.250  0.500- 131 1.96 132 1.96 151 1.96 152 1.96 126 1.99 133 2.01  16 2.96  36 2.96

  27  0.000  0.125  0.605- 133 1.90 113 1.90 136 1.95 135 1.97 114 2.02 134 2.02  17 2.96  37 2.96

  28  0.750  0.250  0.610- 137 1.88 216 1.97 135 1.98 155 1.98 236 1.98 130 2.10  18 2.96  38 2.96

  29  0.749  0.124  0.720- 118 1.83 138 1.84 219 2.03 140 2.04 117 2.09 137 2.10  39 2.95  19 2.95

  30  1.000  0.250  0.709- 134 1.82 139 1.94 140 1.95 159 1.95 160 1.96  20 2.96  40 2.97
  31  0.750  0.375  0.287- 121 1.96 122 1.96 141 1.96 142 1.96 144 1.99 223 1.99   1 2.96  21 2.96

  32  0.000  0.500  0.287-  83 1.96  84 1.96 143 1.96 144 1.96 145 1.99  22 2.96   2 2.96
  33  0.000  0.375  0.393- 125 1.96 126 1.96 145 1.96 146 1.96 147 1.99 148 1.99   3 2.96  23 2.96

  34  0.750  0.500  0.393-  87 1.96 147 1.96 168 1.96 228 1.96 142 1.99 149 1.99   4 2.96  24 2.96

  35  0.750  0.375  0.500- 129 1.96 130 1.96 149 1.96 150 1.96 152 1.99 231 1.99   5 2.96  25 2.96

  36  0.000  0.500  0.500-  91 1.96  92 1.96 151 1.96 152 1.96 146 1.99 153 2.01   6 2.96  26 2.96

  37  0.000  0.375  0.604- 153 1.90 133 1.90 156 1.95 155 1.96 134 2.02 154 2.02  27 2.96   7 2.96

  38  0.751  0.500  0.611- 157 1.87 155 1.97  95 1.97 236 1.98 176 1.98 150 2.10   8 2.96  28 2.96

  39  0.751  0.374  0.719- 138 1.83 158 1.87 160 2.02 239 2.03 137 2.07 157 2.09  29 2.95   9 2.99

  40  0.001  0.500  0.709- 154 1.82 159 1.95  99 1.95 100 1.95 160 1.95  10 2.96  30 2.97
  41  0.250  0.625  0.287- 161 1.96 162 1.96 221 1.96 222 1.96  83 1.99 164 1.99  51 2.96  71 2.96

  42  0.500  0.750  0.287- 163 1.96 164 1.96 183 1.96 184 1.96 165 1.99  72 2.96  52 2.96
  43  0.500  0.625  0.393- 165 1.96 166 1.96 225 1.96 226 1.96 167 1.99 168 1.99  53 2.96  73 2.96

  44  0.250  0.750  0.393-  88 1.96 108 1.96 167 1.96 187 1.96 169 1.99 162 1.99  54 2.96  74 2.96

  45  0.250  0.625  0.500- 169 1.96 170 1.96 229 1.96 230 1.96  91 1.99 172 1.99  55 2.96  75 2.96

  46  0.500  0.750  0.500- 171 1.96 172 1.96 191 1.96 192 1.96 166 1.99 173 2.00  56 2.96  76 2.96

  47  0.500  0.623  0.606- 233 1.90 173 1.94 176 1.96 175 1.97 234 1.99 174 2.01  77 2.91  57 2.98

  48  0.250  0.750  0.611- 177 1.88 175 1.97 195 1.97  96 1.98 116 1.98 170 2.11  78 2.96  58 2.96

  49  0.250  0.625  0.720- 178 1.83 238 1.84  99 2.04 180 2.05 177 2.09 237 2.09  59 2.96  79 2.96

  50  0.501  0.750  0.708- 174 1.81 179 1.91 199 1.95 180 1.95 200 1.97  60 2.96  80 2.98
  51  0.250  0.875  0.287- 161 1.96 162 1.96 181 1.96 182 1.96 103 1.99 184 1.99  41 2.96  61 2.96

  52  0.500  0.000  0.287- 183 1.96 184 1.96 203 1.96 204 1.96 185 1.99  62 2.96  42 2.96
  53  0.500  0.875  0.393- 165 1.96 166 1.96 185 1.96 186 1.96 187 1.99 188 1.99  43 2.96  63 2.96

  54  0.250  0.000  0.393- 108 1.96 128 1.96 187 1.96 207 1.96 189 1.99 182 1.99  44 2.96  64 2.96

  55  0.250  0.875  0.500- 169 1.96 170 1.96 189 1.96 190 1.96 111 1.99 192 1.99  45 2.96  65 2.96

  56  0.500  0.000  0.500- 191 1.96 192 1.96 211 1.96 212 1.96 186 1.99 193 1.99  46 2.96  66 2.96

  57  0.500  0.874  0.603- 173 1.89 193 1.90 196 1.96 195 1.97 174 2.00 194 2.03  47 2.98  67 2.98

  58  0.250  1.000  0.611- 197 1.87 195 1.97 215 1.97 116 1.98 136 1.98 190 2.11  48 2.96  68 2.97

  59  0.251  0.875  0.720- 198 1.83 178 1.84 200 2.03 119 2.05 197 2.10 177 2.10  69 2.96  49 2.96

  60  0.499  1.000  0.708- 194 1.81 200 1.94 220 1.94 219 1.96 199 1.96  70 2.96  50 2.96
  61  0.250  0.125  0.287- 181 1.96 182 1.96 201 1.96 202 1.96 123 1.99 204 1.99  51 2.96  71 2.96

  62  0.500  0.250  0.287- 203 1.96 204 1.96 223 1.96 224 1.96 205 1.99  72 2.96  52 2.96
  63  0.500  0.125  0.393- 185 1.96 186 1.96 205 1.96 206 1.96 207 1.99 208 1.99  53 2.96  73 2.96

  64  0.250  0.250  0.393- 128 1.96 148 1.96 207 1.96 227 1.96 209 1.99 202 1.99  54 2.96  74 2.96

  65  0.250  0.125  0.500- 189 1.96 190 1.96 209 1.96 210 1.96 131 1.99 212 1.99  55 2.96  75 2.96

  66  0.500  0.250  0.500- 211 1.96 212 1.96 231 1.96 232 1.96 206 1.99 213 2.00  56 2.96  76 2.96

  67  0.500  0.126  0.604- 213 1.89 193 1.90 215 1.96 216 1.97 214 2.00 194 2.03  77 2.98  57 2.98

  68  0.250  0.250  0.611- 217 1.87 235 1.97 215 1.98 156 1.98 136 1.98 210 2.11  78 2.96  58 2.97

  69  0.251  0.125  0.720- 198 1.83 218 1.84 220 2.03 139 2.05 217 2.10 197 2.10  59 2.96  79 2.96

  70  0.500  0.250  0.708- 214 1.81 239 1.92 240 1.94 219 1.95 220 1.96  60 2.96  80 2.96
  71  0.250  0.375  0.287- 201 1.96 202 1.96 221 1.96 222 1.96 143 1.99 224 1.99  41 2.96  61 2.96

  72  0.500  0.500  0.287- 163 1.96 164 1.96 223 1.96 224 1.96 225 1.99  62 2.96  42 2.96
  73  0.500  0.375  0.393- 205 1.96 206 1.96 225 1.96 226 1.96 227 1.99 228 1.99  43 2.96  63 2.96

  74  0.250  0.500  0.393-  88 1.96 148 1.96 167 1.96 227 1.96 222 1.99 229 1.99  44 2.96  64 2.96

  75  0.250  0.375  0.500- 209 1.96 210 1.96 229 1.96 230 1.96 151 1.99 232 1.99  45 2.96  65 2.96

  76  0.500  0.500  0.500- 171 1.96 172 1.96 231 1.96 232 1.96 226 1.99 233 2.01  46 2.96  66 2.96

  77  0.500  0.377  0.606- 233 1.90 213 1.94 236 1.96 235 1.97 234 1.99 214 2.01  47 2.91  67 2.98

  78  0.250  0.500  0.611- 237 1.87 175 1.97 235 1.97 156 1.98  96 1.98 230 2.11  48 2.96  68 2.96

  79  0.250  0.375  0.720- 218 1.83 238 1.84 159 2.04 240 2.04 217 2.10 237 2.10  69 2.96  49 2.96

  80  0.501  0.499  0.712- 234 1.91 240 1.94 180 1.95 239 1.96 179 1.99  70 2.96  50 2.98
  81  0.750  0.750  0.245-   1 1.96  11 1.96
  82  0.750  0.750  0.328-   1 1.96  11 1.96   4 1.99
  83  0.098  0.625  0.287-   2 1.96  32 1.96  41 1.99
  84  0.902  0.625  0.287-   2 1.96  32 1.96   1 1.99
  85  0.000  0.750  0.352-   3 1.96  13 1.96   2 1.99
  86  0.000  0.750  0.435-   3 1.96  13 1.96   6 1.99
  87  0.848  0.625  0.393-   4 1.96  34 1.96   3 1.99
  88  0.152  0.625  0.393-  44 1.96  74 1.96   3 1.99
  89  0.750  0.750  0.458-   5 1.96  15 1.96   4 1.99
  90  0.750  0.750  0.542-   5 1.96  15 1.96   8 2.10
  91  0.098  0.625  0.500-   6 1.96  36 1.96  45 1.99
  92  0.902  0.625  0.500-   6 1.96  36 1.96   5 1.99
  93  0.000  0.750  0.566-  17 1.90   7 1.90   6 2.01
  94  0.999  0.750  0.649-  10 1.82   7 2.02  17 2.02
  95  0.850  0.625  0.607-   7 1.96  38 1.97   8 1.97
  96  0.150  0.625  0.607-   7 1.95  48 1.98  78 1.98
  97  0.753  0.751  0.672-   8 1.88   9 2.08  19 2.09
  98  0.749  0.749  0.755-   9 1.83  19 1.84
  99  0.094  0.625  0.719-  40 1.95  10 1.95  49 2.04
 100  0.906  0.624  0.720-  40 1.95  10 1.96   9 2.03
 101  0.750  0.000  0.245-  11 1.96  21 1.96
 102  0.750  0.000  0.328-  11 1.96  21 1.96  14 1.99
 103  0.098  0.875  0.287-   2 1.96  12 1.96  51 1.99
 104  0.902  0.875  0.287-   2 1.96  12 1.96  11 1.99
 105  0.000  0.000  0.352-  13 1.96  23 1.96  12 1.99
 106  0.000  0.000  0.435-  13 1.96  23 1.96  16 1.99
 107  0.848  0.875  0.393-   4 1.96  14 1.96  13 1.99
 108  0.152  0.875  0.393-  44 1.96  54 1.96  13 1.99
 109  0.750  0.000  0.458-  15 1.96  25 1.96  14 1.99
 110  0.750  0.000  0.542-  15 1.96  25 1.96  18 2.11
 111  0.098  0.875  0.500-   6 1.96  16 1.96  55 1.99
 112  0.902  0.875  0.500-   6 1.96  16 1.96  15 1.99
 113  0.000  1.000  0.566-  27 1.90  17 1.90  16 2.01
 114  1.000  1.000  0.649-  20 1.82  17 2.02  27 2.02
 115  0.850  0.875  0.607-  17 1.96  18 1.98   8 1.98
 116  0.150  0.875  0.607-  17 1.95  58 1.98  48 1.98
 117  0.750  1.000  0.672-  18 1.88  29 2.09  19 2.09
 118  0.750  1.000  0.756-  29 1.83  19 1.83
 119  0.094  0.875  0.719-  10 1.94  20 1.95  59 2.05
 120  0.906  0.875  0.720-  10 1.95  20 1.95  19 2.04
 121  0.750  0.250  0.245-  21 1.96  31 1.96
 122  0.750  0.250  0.328-  21 1.96  31 1.96  24 1.99
 123  0.098  0.125  0.287-  12 1.96  22 1.96  61 1.99
 124  0.902  0.125  0.287-  12 1.96  22 1.96  21 1.99
 125  0.000  0.250  0.352-  23 1.96  33 1.96  22 1.99
 126  0.000  0.250  0.435-  23 1.96  33 1.96  26 1.99
 127  0.848  0.125  0.393-  14 1.96  24 1.96  23 1.99
 128  0.152  0.125  0.393-  54 1.96  64 1.96  23 1.99
 129  0.750  0.250  0.458-  25 1.96  35 1.96  24 1.99
 130  0.750  0.250  0.542-  25 1.96  35 1.96  28 2.10
 131  0.098  0.125  0.500-  16 1.96  26 1.96  65 1.99
 132  0.902  0.125  0.500-  16 1.96  26 1.96  25 1.99
 133  0.000  0.250  0.566-  27 1.90  37 1.90  26 2.01
 134  0.999  0.250  0.649-  30 1.82  37 2.02  27 2.02
 135  0.850  0.125  0.607-  27 1.97  18 1.97  28 1.98
 136  0.149  0.125  0.607-  27 1.95  58 1.98  68 1.98
 137  0.752  0.250  0.672-  28 1.88  39 2.07  29 2.10
 138  0.749  0.251  0.755-  39 1.83  29 1.84
 139  0.094  0.125  0.719-  30 1.94  20 1.95  69 2.05
 140  0.906  0.125  0.719-  30 1.95  20 1.95  29 2.04
 141  0.750  0.500  0.245-   1 1.96  31 1.96
 142  0.750  0.500  0.328-   1 1.96  31 1.96  34 1.99
 143  0.098  0.375  0.287-  22 1.96  32 1.96  71 1.99
 144  0.902  0.375  0.287-  22 1.96  32 1.96  31 1.99
 145  0.000  0.500  0.352-   3 1.96  33 1.96  32 1.99
 146  0.000  0.500  0.435-   3 1.96  33 1.96  36 1.99
 147  0.848  0.375  0.393-  24 1.96  34 1.96  33 1.99
 148  0.152  0.375  0.393-  64 1.96  74 1.96  33 1.99
 149  0.750  0.500  0.458-   5 1.96  35 1.96  34 1.99
 150  0.750  0.500  0.542-   5 1.96  35 1.96  38 2.10
 151  0.098  0.375  0.500-  26 1.96  36 1.96  75 1.99
 152  0.902  0.375  0.500-  26 1.96  36 1.96  35 1.99
 153  0.000  0.500  0.566-  37 1.90   7 1.90  36 2.01
 154  0.999  0.500  0.649-  40 1.82   7 2.02  37 2.02
 155  0.850  0.375  0.607-  37 1.96  38 1.97  28 1.98
 156  0.150  0.375  0.607-  37 1.95  68 1.98  78 1.98
 157  0.755  0.500  0.672-  38 1.87   9 2.09  39 2.09
 158  0.739  0.500  0.756-   9 1.87  39 1.87
 159  0.094  0.375  0.719-  40 1.95  30 1.95  79 2.04
 160  0.906  0.376  0.720-  40 1.95  30 1.96  39 2.02
 161  0.250  0.750  0.245-  41 1.96  51 1.96
 162  0.250  0.750  0.328-  41 1.96  51 1.96  44 1.99
 163  0.598  0.625  0.287-  42 1.96  72 1.96   1 1.99
 164  0.402  0.625  0.287-  42 1.96  72 1.96  41 1.99
 165  0.500  0.750  0.352-  43 1.96  53 1.96  42 1.99
 166  0.500  0.750  0.435-  43 1.96  53 1.96  46 1.99
 167  0.348  0.625  0.393-  44 1.96  74 1.96  43 1.99
 168  0.652  0.625  0.393-   4 1.96  34 1.96  43 1.99
 169  0.250  0.750  0.458-  45 1.96  55 1.96  44 1.99
 170  0.250  0.750  0.542-  45 1.96  55 1.96  48 2.11
 171  0.598  0.625  0.500-  46 1.96  76 1.96   5 1.99
 172  0.402  0.625  0.500-  46 1.96  76 1.96  45 1.99
 173  0.500  0.749  0.565-  57 1.89  47 1.94  46 2.00
 174  0.498  0.751  0.648-  50 1.81  57 2.00  47 2.01
 175  0.349  0.625  0.607-  48 1.97  78 1.97  47 1.97
 176  0.650  0.625  0.608-  47 1.96   8 1.98  38 1.98
 177  0.251  0.750  0.672-  48 1.88  49 2.09  59 2.10
 178  0.250  0.750  0.756-  49 1.83  59 1.84
 179  0.597  0.629  0.714-  50 1.91  80 1.99   9 2.02
 180  0.408  0.626  0.720-  80 1.95  50 1.95  49 2.05
 181  0.250  0.000  0.245-  51 1.96  61 1.96
 182  0.250  0.000  0.328-  51 1.96  61 1.96  54 1.99
 183  0.598  0.875  0.287-  42 1.96  52 1.96  11 1.99
 184  0.402  0.875  0.287-  42 1.96  52 1.96  51 1.99
 185  0.500  0.000  0.352-  53 1.96  63 1.96  52 1.99
 186  0.500  0.000  0.435-  53 1.96  63 1.96  56 1.99
 187  0.348  0.875  0.393-  44 1.96  54 1.96  53 1.99
 188  0.652  0.875  0.393-   4 1.96  14 1.96  53 1.99
 189  0.250  0.000  0.458-  55 1.96  65 1.96  54 1.99
 190  0.250  0.000  0.542-  55 1.96  65 1.96  58 2.11
 191  0.598  0.875  0.500-  46 1.96  56 1.96  15 1.99
 192  0.402  0.875  0.500-  46 1.96  56 1.96  55 1.99
 193  0.500  0.000  0.565-  57 1.90  67 1.90  56 1.99
 194  0.500  1.000  0.649-  60 1.81  57 2.03  67 2.03
 195  0.349  0.875  0.607-  57 1.97  58 1.97  48 1.97
 196  0.650  0.875  0.607-  57 1.96   8 1.98  18 1.98
 197  0.250  1.000  0.672-  58 1.87  59 2.10  69 2.10
 198  0.250  0.000  0.756-  59 1.83  69 1.83
 199  0.594  0.875  0.719-  50 1.95  60 1.96  19 2.03
 200  0.406  0.876  0.719-  60 1.94  50 1.97  59 2.03
 201  0.250  0.250  0.245-  61 1.96  71 1.96
 202  0.250  0.250  0.328-  61 1.96  71 1.96  64 1.99
 203  0.598  0.125  0.287-  52 1.96  62 1.96  21 1.99
 204  0.402  0.125  0.287-  52 1.96  62 1.96  61 1.99
 205  0.500  0.250  0.352-  63 1.96  73 1.96  62 1.99
 206  0.500  0.250  0.435-  63 1.96  73 1.96  66 1.99
 207  0.348  0.125  0.393-  54 1.96  64 1.96  63 1.99
 208  0.652  0.125  0.393-  14 1.96  24 1.96  63 1.99
 209  0.250  0.250  0.458-  65 1.96  75 1.96  64 1.99
 210  0.250  0.250  0.542-  65 1.96  75 1.96  68 2.11
 211  0.598  0.125  0.500-  56 1.96  66 1.96  25 1.99
 212  0.402  0.125  0.500-  56 1.96  66 1.96  65 1.99
 213  0.500  0.251  0.565-  67 1.89  77 1.94  66 2.00
 214  0.499  0.249  0.649-  70 1.81  67 2.00  77 2.01
 215  0.350  0.125  0.607-  67 1.96  58 1.97  68 1.98
 216  0.650  0.125  0.607-  67 1.97  28 1.97  18 1.98
 217  0.250  0.250  0.672-  68 1.87  69 2.10  79 2.10
 218  0.250  0.250  0.756-  79 1.83  69 1.84
 219  0.594  0.125  0.719-  70 1.95  60 1.96  29 2.03
 220  0.406  0.124  0.719-  60 1.94  70 1.96  69 2.03
 221  0.250  0.500  0.245-  41 1.96  71 1.96
 222  0.250  0.500  0.328-  41 1.96  71 1.96  74 1.99
 223  0.598  0.375  0.287-  62 1.96  72 1.96  31 1.99
 224  0.402  0.375  0.287-  62 1.96  72 1.96  71 1.99
 225  0.500  0.500  0.352-  43 1.96  73 1.96  72 1.99
 226  0.500  0.500  0.435-  43 1.96  73 1.96  76 1.99
 227  0.348  0.375  0.393-  64 1.96  74 1.96  73 1.99
 228  0.652  0.375  0.393-  24 1.96  34 1.96  73 1.99
 229  0.250  0.500  0.458-  45 1.96  75 1.96  74 1.99
 230  0.250  0.500  0.542-  45 1.96  75 1.96  78 2.11
 231  0.598  0.375  0.500-  66 1.96  76 1.96  35 1.99
 232  0.402  0.375  0.500-  66 1.96  76 1.96  75 1.99
 233  0.500  0.500  0.566-  47 1.90  77 1.90  76 2.01
 234  0.499  0.500  0.650-  80 1.91  47 1.99  77 1.99
 235  0.349  0.375  0.607-  68 1.97  78 1.97  77 1.97
 236  0.650  0.375  0.608-  77 1.96  28 1.98  38 1.98
 237  0.250  0.500  0.672-  78 1.87  49 2.09  79 2.10
 238  0.251  0.500  0.756-  79 1.84  49 1.84
 239  0.596  0.372  0.715-  70 1.92  80 1.96  39 2.03
 240  0.406  0.374  0.718-  80 1.94  70 1.94  79 2.04


IMPORTANT INFORMATION: All symmetrisations will be switched off!
NOSYMM: (Re-)initialisation of all symmetry stuff for point group C_1.


----------------------------------------------------------------------------------------

                                     Primitive cell                                     

  volume of cell :    4737.1735

  direct lattice vectors                    reciprocal lattice vectors
    13.061198858  0.000000000  0.000000000     0.076562650  0.000000000  0.000000000
     0.000000000 11.845266045  0.000000000     0.000000000  0.084421911  0.000000000
     0.000000000  0.000000000 30.619030317     0.000000000  0.000000000  0.032659427

  length of vectors
    13.061198858 11.845266045 30.619030317     0.076562650  0.084421911  0.032659427

  position of ions in fractional coordinates (direct lattice)
     0.750000000  0.625000000  0.286714362
     0.000000000  0.750000000  0.286714362
     0.000000000  0.625000000  0.393357181
     0.750000000  0.750000000  0.393357181
     0.750000000  0.625000000  0.500000000
     0.000000000  0.750000000  0.500000000
     0.000436741  0.625054834  0.604472472
     0.750386817  0.750126797  0.610301398
     0.750778184  0.625893765  0.719283845
     0.999877768  0.750289182  0.708762741
     0.750000000  0.875000000  0.286714362
     0.000000000  0.000000000  0.286714362
     0.000000000  0.875000000  0.393357181
     0.750000000  0.000000000  0.393357181
     0.750000000  0.875000000  0.500000000
     0.000000000  0.000000000  0.500000000
     0.000111469  0.875025512  0.604522587
     0.749814054  0.000080575  0.610537837
     0.749646222  0.875112233  0.720200438
     0.000014971  0.999938576  0.708716497
     0.750000000  0.125000000  0.286714362
     0.000000000  0.250000000  0.286714362
     0.000000000  0.125000000  0.393357181
     0.750000000  0.250000000  0.393357181
     0.750000000  0.125000000  0.500000000
     0.000000000  0.250000000  0.500000000
     0.000327292  0.124950981  0.604512481
     0.750195349  0.249723959  0.610313370
     0.749486918  0.124409456  0.720225431
     0.999892439  0.249617705  0.708751743
     0.750000000  0.375000000  0.286714362
     0.000000000  0.500000000  0.286714362
     0.000000000  0.375000000  0.393357181
     0.750000000  0.500000000  0.393357181
     0.750000000  0.375000000  0.500000000
     0.000000000  0.500000000  0.500000000
     0.000270257  0.374976463  0.604466953
     0.750947056  0.499977761  0.610509390
     0.751252292  0.373592116  0.719401779
     0.000597591  0.500080229  0.708684882
     0.250000000  0.625000000  0.286714362
     0.500000000  0.750000000  0.286714362
     0.500000000  0.625000000  0.393357181
     0.250000000  0.750000000  0.393357181
     0.250000000  0.625000000  0.500000000
     0.500000000  0.750000000  0.500000000
     0.500466847  0.622767592  0.605654704
     0.250442071  0.749878821  0.610599403
     0.250288396  0.625199599  0.720347351
     0.500601204  0.750235065  0.707514527
     0.250000000  0.875000000  0.286714362
     0.500000000  0.000000000  0.286714362
     0.500000000  0.875000000  0.393357181
     0.250000000  0.000000000  0.393357181
     0.250000000  0.875000000  0.500000000
     0.500000000  0.000000000  0.500000000
     0.499890448  0.874081156  0.603497399
     0.249907022  0.999873647  0.610626976
     0.250848060  0.875098534  0.720300004
     0.499412198  0.999960128  0.707705538
     0.250000000  0.125000000  0.286714362
     0.500000000  0.250000000  0.286714362
     0.500000000  0.125000000  0.393357181
     0.250000000  0.250000000  0.393357181
     0.250000000  0.125000000  0.500000000
     0.500000000  0.250000000  0.500000000
     0.499542746  0.126009846  0.603597584
     0.250190437  0.250187507  0.610622561
     0.250623655  0.124967371  0.720263387
     0.500393167  0.249619962  0.707815254
     0.250000000  0.375000000  0.286714362
     0.500000000  0.500000000  0.286714362
     0.500000000  0.375000000  0.393357181
     0.250000000  0.500000000  0.393357181
     0.250000000  0.375000000  0.500000000
     0.500000000  0.500000000  0.500000000
     0.500436340  0.377122761  0.605825164
     0.250416016  0.500035537  0.610720507
     0.250092726  0.374903174  0.720258360
     0.500708632  0.499277172  0.712438604
     0.750000000  0.750000000  0.244945706
     0.750000000  0.750000000  0.328483017
     0.097917178  0.625000000  0.286714362
     0.902082822  0.625000000  0.286714362
     0.000000000  0.750000000  0.351588525
     0.000000000  0.750000000  0.435125836
     0.847917178  0.625000000  0.393357181
     0.152082822  0.625000000  0.393357181
     0.750000000  0.750000000  0.458231344
     0.750000000  0.750000000  0.541768656
     0.097917178  0.625000000  0.500000000
     0.902082822  0.625000000  0.500000000
     0.000087942  0.750111928  0.565528005
     0.999171990  0.749863272  0.649430568
     0.850203204  0.625243270  0.606711501
     0.149620819  0.625114875  0.607349911
     0.752996004  0.750607289  0.671659087
     0.748534262  0.749086609  0.755434216
     0.094088145  0.625076517  0.719201795
     0.906116082  0.624258907  0.720131686
     0.750000000  0.000000000  0.244945706
     0.750000000  0.000000000  0.328483017
     0.097917178  0.875000000  0.286714362
     0.902082822  0.875000000  0.286714362
     0.000000000  0.000000000  0.351588525
     0.000000000  0.000000000  0.435125836
     0.847917178  0.875000000  0.393357181
     0.152082822  0.875000000  0.393357181
     0.750000000  0.000000000  0.458231344
     0.750000000  0.000000000  0.541768656
     0.097917178  0.875000000  0.500000000
     0.902082822  0.875000000  0.500000000
     0.000060579  0.999984271  0.565524304
     0.999572731  0.999985830  0.649386034
     0.850028288  0.875436052  0.606981628
     0.149583025  0.874798582  0.607362713
     0.750242593  0.999951862  0.671934437
     0.749745299  0.999822639  0.755714227
     0.093905889  0.874572623  0.718932957
     0.906132776  0.875022614  0.719617531
     0.750000000  0.250000000  0.244945706
     0.750000000  0.250000000  0.328483017
     0.097917178  0.125000000  0.286714362
     0.902082822  0.125000000  0.286714362
     0.000000000  0.250000000  0.351588525
     0.000000000  0.250000000  0.435125836
     0.847917178  0.125000000  0.393357181
     0.152082822  0.125000000  0.393357181
     0.750000000  0.250000000  0.458231344
     0.750000000  0.250000000  0.541768656
     0.097917178  0.125000000  0.500000000
     0.902082822  0.125000000  0.500000000
     0.000035641  0.249903135  0.565533073
     0.999298488  0.250122006  0.649428910
     0.849959854  0.124676470  0.607066671
     0.149495892  0.125017861  0.607244153
     0.752437860  0.249740298  0.671727265
     0.748945369  0.250601504  0.755430056
     0.093744104  0.125323851  0.719110390
     0.906018328  0.124903000  0.719440585
     0.750000000  0.500000000  0.244945706
     0.750000000  0.500000000  0.328483017
     0.097917178  0.375000000  0.286714362
     0.902082822  0.375000000  0.286714362
     0.000000000  0.500000000  0.351588525
     0.000000000  0.500000000  0.435125836
     0.847917178  0.375000000  0.393357181
     0.152082822  0.375000000  0.393357181
     0.750000000  0.500000000  0.458231344
     0.750000000  0.500000000  0.541768656
     0.097917178  0.375000000  0.500000000
     0.902082822  0.375000000  0.500000000
     0.000199923  0.500008017  0.565519891
     0.999331151  0.500018177  0.649364218
     0.850199299  0.374715792  0.606743089
     0.149629848  0.375049639  0.607317842
     0.754791271  0.499993945  0.671583819
     0.739009301  0.499978621  0.755640044
     0.093982530  0.374969213  0.719132618
     0.906111790  0.375712291  0.720182725
     0.250000000  0.750000000  0.244945706
     0.250000000  0.750000000  0.328483017
     0.597917178  0.625000000  0.286714362
     0.402082822  0.625000000  0.286714362
     0.500000000  0.750000000  0.351588525
     0.500000000  0.750000000  0.435125836
     0.347917178  0.625000000  0.393357181
     0.652082822  0.625000000  0.393357181
     0.250000000  0.750000000  0.458231344
     0.250000000  0.750000000  0.541768656
     0.597917178  0.625000000  0.500000000
     0.402082822  0.625000000  0.500000000
     0.500179452  0.748828666  0.565342176
     0.497655117  0.751184468  0.648428387
     0.349393212  0.624968472  0.607098191
     0.650324506  0.625145792  0.607757274
     0.250864386  0.749609507  0.671883578
     0.250153099  0.750052767  0.755751804
     0.596549840  0.629363242  0.714362580
     0.407530594  0.625813234  0.720310878
     0.250000000  0.000000000  0.244945706
     0.250000000  0.000000000  0.328483017
     0.597917178  0.875000000  0.286714362
     0.402082822  0.875000000  0.286714362
     0.500000000  0.000000000  0.351588525
     0.500000000  0.000000000  0.435125836
     0.347917178  0.875000000  0.393357181
     0.652082822  0.875000000  0.393357181
     0.250000000  0.000000000  0.458231344
     0.250000000  0.000000000  0.541768656
     0.597917178  0.875000000  0.500000000
     0.402082822  0.875000000  0.500000000
     0.499967722  0.000073238  0.565042277
     0.499747800  0.999919580  0.648575889
     0.349478364  0.875238078  0.606830287
     0.650029744  0.874770084  0.607189294
     0.249623592  0.999976247  0.671764859
     0.249611668  0.000004978  0.755635258
     0.594108509  0.874877710  0.718514620
     0.405936091  0.875945366  0.718830600
     0.250000000  0.250000000  0.244945706
     0.250000000  0.250000000  0.328483017
     0.597917178  0.125000000  0.286714362
     0.402082822  0.125000000  0.286714362
     0.500000000  0.250000000  0.351588525
     0.500000000  0.250000000  0.435125836
     0.347917178  0.125000000  0.393357181
     0.652082822  0.125000000  0.393357181
     0.250000000  0.250000000  0.458231344
     0.250000000  0.250000000  0.541768656
     0.597917178  0.125000000  0.500000000
     0.402082822  0.125000000  0.500000000
     0.500076206  0.251283694  0.565436291
     0.498578844  0.248560863  0.648627245
     0.349542238  0.124847669  0.606929322
     0.650120872  0.125166775  0.607164787
     0.249676166  0.249886226  0.671779775
     0.250404678  0.250103210  0.755611237
     0.594112270  0.124727687  0.718584849
     0.405839475  0.124168496  0.718689406
     0.250000000  0.500000000  0.244945706
     0.250000000  0.500000000  0.328483017
     0.597917178  0.375000000  0.286714362
     0.402082822  0.375000000  0.286714362
     0.500000000  0.500000000  0.351588525
     0.500000000  0.500000000  0.435125836
     0.347917178  0.375000000  0.393357181
     0.652082822  0.375000000  0.393357181
     0.250000000  0.500000000  0.458231344
     0.250000000  0.500000000  0.541768656
     0.597917178  0.375000000  0.500000000
     0.402082822  0.375000000  0.500000000
     0.500166543  0.499817188  0.565701111
     0.498805016  0.500385534  0.649937461
     0.349433259  0.374932637  0.607332980
     0.650291201  0.374997096  0.607775438
     0.249991446  0.500438514  0.671914020
     0.251221241  0.499935740  0.755693254
     0.596208134  0.371503899  0.714771152
     0.406362467  0.373983088  0.718346087

  ion indices of the primitive-cell ions
   primitive index   ion index
                 1           1
                 2           2
                 3           3
                 4           4
                 5           5
                 6           6
                 7           7
                 8           8
                 9           9
                10          10
                11          11
                12          12
                13          13
                14          14
                15          15
                16          16
                17          17
                18          18
                19          19
                20          20
                21          21
                22          22
                23          23
                24          24
                25          25
                26          26
                27          27
                28          28
                29          29
                30          30
                31          31
                32          32
                33          33
                34          34
                35          35
                36          36
                37          37
                38          38
                39          39
                40          40
                41          41
                42          42
                43          43
                44          44
                45          45
                46          46
                47          47
                48          48
                49          49
                50          50
                51          51
                52          52
                53          53
                54          54
                55          55
                56          56
                57          57
                58          58
                59          59
                60          60
                61          61
                62          62
                63          63
                64          64
                65          65
                66          66
                67          67
                68          68
                69          69
                70          70
                71          71
                72          72
                73          73
                74          74
                75          75
                76          76
                77          77
                78          78
                79          79
                80          80
                81          81
                82          82
                83          83
                84          84
                85          85
                86          86
                87          87
                88          88
                89          89
                90          90
                91          91
                92          92
                93          93
                94          94
                95          95
                96          96
                97          97
                98          98
                99          99
               100         100
               101         101
               102         102
               103         103
               104         104
               105         105
               106         106
               107         107
               108         108
               109         109
               110         110
               111         111
               112         112
               113         113
               114         114
               115         115
               116         116
               117         117
               118         118
               119         119
               120         120
               121         121
               122         122
               123         123
               124         124
               125         125
               126         126
               127         127
               128         128
               129         129
               130         130
               131         131
               132         132
               133         133
               134         134
               135         135
               136         136
               137         137
               138         138
               139         139
               140         140
               141         141
               142         142
               143         143
               144         144
               145         145
               146         146
               147         147
               148         148
               149         149
               150         150
               151         151
               152         152
               153         153
               154         154
               155         155
               156         156
               157         157
               158         158
               159         159
               160         160
               161         161
               162         162
               163         163
               164         164
               165         165
               166         166
               167         167
               168         168
               169         169
               170         170
               171         171
               172         172
               173         173
               174         174
               175         175
               176         176
               177         177
               178         178
               179         179
               180         180
               181         181
               182         182
               183         183
               184         184
               185         185
               186         186
               187         187
               188         188
               189         189
               190         190
               191         191
               192         192
               193         193
               194         194
               195         195
               196         196
               197         197
               198         198
               199         199
               200         200
               201         201
               202         202
               203         203
               204         204
               205         205
               206         206
               207         207
               208         208
               209         209
               210         210
               211         211
               212         212
               213         213
               214         214
               215         215
               216         216
               217         217
               218         218
               219         219
               220         220
               221         221
               222         222
               223         223
               224         224
               225         225
               226         226
               227         227
               228         228
               229         229
               230         230
               231         231
               232         232
               233         233
               234         234
               235         235
               236         236
               237         237
               238         238
               239         239
               240         240

----------------------------------------------------------------------------------------



 KPOINTS: pymatgen v2020.8.13 with grid density = 

Automatic generation of k-mesh.
 Grid dimensions read from file:
 generate k-points for:    2    2    1

 Generating k-lattice:

  Cartesian coordinates                     Fractional coordinates (reciprocal lattice)
     0.038281325  0.000000000  0.000000000     0.500000000  0.000000000  0.000000000
     0.000000000  0.042210956  0.000000000     0.000000000  0.500000000  0.000000000
     0.000000000  0.000000000  0.032659427     0.000000000  0.000000000  1.000000000

  Length of vectors
     0.038281325  0.042210956  0.032659427

  Shift w.r.t. Gamma in fractional coordinates (k-lattice)
     0.000000000  0.000000000  0.000000000

 
 Subroutine IBZKPT returns following result:
 ===========================================
 
 Found      4 irreducible k-points:
 
 Following reciprocal coordinates:
            Coordinates               Weight
  0.000000  0.000000  0.000000      1.000000
  0.500000  0.000000  0.000000      1.000000
  0.000000  0.500000  0.000000      1.000000
  0.500000  0.500000  0.000000      1.000000
 
 Following cartesian coordinates:
            Coordinates               Weight
  0.000000  0.000000  0.000000      1.000000
  0.038281  0.000000  0.000000      1.000000
  0.000000  0.042211  0.000000      1.000000
  0.038281  0.042211  0.000000      1.000000
 


--------------------------------------------------------------------------------------------------------




 Dimension of arrays:
   k-points           NKPTS =      4   k-points in BZ     NKDIM =      4   number of bands    NBANDS=   1056
   number of dos      NEDOS =    301   number of ions     NIONS =    240
   non local maximal  LDIM  =      6   non local SUM 2l+1 LMDIM =     18
   total plane-waves  NPLWV = ******
   max r-space proj   IRMAX =      1   max aug-charges    IRDMAX=  21440
   dimension x,y,z NGX =   108 NGY =   96 NGZ =  250
   dimension x,y,z NGXF=   216 NGYF=  192 NGZF=  500
   support grid    NGXF=   216 NGYF=  192 NGZF=  500
   ions per type =              80 160
   NGX,Y,Z   is equivalent  to a cutoff of  13.75, 13.47, 13.57 a.u.
   NGXF,Y,Z  is equivalent  to a cutoff of  27.49, 26.95, 27.15 a.u.

 SYSTEM =  TiO2                                    
 POSCAR =  Ti  O                                   

--------------------------------------------------------------------------------------------------------


  energy-cutoff  :      600.00
  volume of cell :     4737.17
      direct lattice vectors                 reciprocal lattice vectors
    13.061198858  0.000000000  0.000000000     0.076562650  0.000000000  0.000000000
     0.000000000 11.845266045  0.000000000     0.000000000  0.084421911  0.000000000
     0.000000000  0.000000000 30.619030317     0.000000000  0.000000000  0.032659427

  length of vectors
    13.061198858 11.845266045 30.619030317     0.076562650  0.084421911  0.032659427



 k-points in units of 2pi/SCALE and weight: pymatgen v2020.8.13 with grid density = 
   0.00000000  0.00000000  0.00000000       0.250
   0.03828133  0.00000000  0.00000000       0.250
   0.00000000  0.04221096  0.00000000       0.250
   0.03828133  0.04221096  0.00000000       0.250

 k-points in reciprocal lattice and weights: pymatgen v2020.8.13 with grid density = 
   0.00000000  0.00000000  0.00000000       0.250
   0.50000000  0.00000000  0.00000000       0.250
   0.00000000  0.50000000  0.00000000       0.250
   0.50000000  0.50000000  0.00000000       0.250

 position of ions in fractional coordinates (direct lattice) 
   0.75000000  0.62500000  0.28671436
   0.00000000  0.75000000  0.28671436
   0.00000000  0.62500000  0.39335718
   0.75000000  0.75000000  0.39335718
   0.75000000  0.62500000  0.50000000
   0.00000000  0.75000000  0.50000000
   0.00043674  0.62505483  0.60447247
   0.75038682  0.75012680  0.61030140
   0.75077818  0.62589376  0.71928385
   0.99987777  0.75028918  0.70876274
   0.75000000  0.87500000  0.28671436
   0.00000000  0.00000000  0.28671436
   0.00000000  0.87500000  0.39335718
   0.75000000  0.00000000  0.39335718
   0.75000000  0.87500000  0.50000000
   0.00000000  0.00000000  0.50000000
   0.00011147  0.87502551  0.60452259
   0.74981405  0.00008057  0.61053784
   0.74964622  0.87511223  0.72020044
   0.00001497  0.99993858  0.70871650
   0.75000000  0.12500000  0.28671436
   0.00000000  0.25000000  0.28671436
   0.00000000  0.12500000  0.39335718
   0.75000000  0.25000000  0.39335718
   0.75000000  0.12500000  0.50000000
   0.00000000  0.25000000  0.50000000
   0.00032729  0.12495098  0.60451248
   0.75019535  0.24972396  0.61031337
   0.74948692  0.12440946  0.72022543
   0.99989244  0.24961771  0.70875174
   0.75000000  0.37500000  0.28671436
   0.00000000  0.50000000  0.28671436
   0.00000000  0.37500000  0.39335718
   0.75000000  0.50000000  0.39335718
   0.75000000  0.37500000  0.50000000
   0.00000000  0.50000000  0.50000000
   0.00027026  0.37497646  0.60446695
   0.75094706  0.49997776  0.61050939
   0.75125229  0.37359212  0.71940178
   0.00059759  0.50008023  0.70868488
   0.25000000  0.62500000  0.28671436
   0.50000000  0.75000000  0.28671436
   0.50000000  0.62500000  0.39335718
   0.25000000  0.75000000  0.39335718
   0.25000000  0.62500000  0.50000000
   0.50000000  0.75000000  0.50000000
   0.50046685  0.62276759  0.60565470
   0.25044207  0.74987882  0.61059940
   0.25028840  0.62519960  0.72034735
   0.50060120  0.75023507  0.70751453
   0.25000000  0.87500000  0.28671436
   0.50000000  0.00000000  0.28671436
   0.50000000  0.87500000  0.39335718
   0.25000000  0.00000000  0.39335718
   0.25000000  0.87500000  0.50000000
   0.50000000  0.00000000  0.50000000
   0.49989045  0.87408116  0.60349740
   0.24990702  0.99987365  0.61062698
   0.25084806  0.87509853  0.72030000
   0.49941220  0.99996013  0.70770554
   0.25000000  0.12500000  0.28671436
   0.50000000  0.25000000  0.28671436
   0.50000000  0.12500000  0.39335718
   0.25000000  0.25000000  0.39335718
   0.25000000  0.12500000  0.50000000
   0.50000000  0.25000000  0.50000000
   0.49954275  0.12600985  0.60359758
   0.25019044  0.25018751  0.61062256
   0.25062366  0.12496737  0.72026339
   0.50039317  0.24961996  0.70781525
   0.25000000  0.37500000  0.28671436
   0.50000000  0.50000000  0.28671436
   0.50000000  0.37500000  0.39335718
   0.25000000  0.50000000  0.39335718
   0.25000000  0.37500000  0.50000000
   0.50000000  0.50000000  0.50000000
   0.50043634  0.37712276  0.60582516
   0.25041602  0.50003554  0.61072051
   0.25009273  0.37490317  0.72025836
   0.50070863  0.49927717  0.71243860
   0.75000000  0.75000000  0.24494571
   0.75000000  0.75000000  0.32848302
   0.09791718  0.62500000  0.28671436
   0.90208282  0.62500000  0.28671436
   0.00000000  0.75000000  0.35158853
   0.00000000  0.75000000  0.43512584
   0.84791718  0.62500000  0.39335718
   0.15208282  0.62500000  0.39335718
   0.75000000  0.75000000  0.45823134
   0.75000000  0.75000000  0.54176866
   0.09791718  0.62500000  0.50000000
   0.90208282  0.62500000  0.50000000
   0.00008794  0.75011193  0.56552801
   0.99917199  0.74986327  0.64943057
   0.85020320  0.62524327  0.60671150
   0.14962082  0.62511488  0.60734991
   0.75299600  0.75060729  0.67165909
   0.74853426  0.74908661  0.75543422
   0.09408815  0.62507652  0.71920180
   0.90611608  0.62425891  0.72013169
   0.75000000  0.00000000  0.24494571
   0.75000000  0.00000000  0.32848302
   0.09791718  0.87500000  0.28671436
   0.90208282  0.87500000  0.28671436
   0.00000000  0.00000000  0.35158853
   0.00000000  0.00000000  0.43512584
   0.84791718  0.87500000  0.39335718
   0.15208282  0.87500000  0.39335718
   0.75000000  0.00000000  0.45823134
   0.75000000  0.00000000  0.54176866
   0.09791718  0.87500000  0.50000000
   0.90208282  0.87500000  0.50000000
   0.00006058  0.99998427  0.56552430
   0.99957273  0.99998583  0.64938603
   0.85002829  0.87543605  0.60698163
   0.14958302  0.87479858  0.60736271
   0.75024259  0.99995186  0.67193444
   0.74974530  0.99982264  0.75571423
   0.09390589  0.87457262  0.71893296
   0.90613278  0.87502261  0.71961753
   0.75000000  0.25000000  0.24494571
   0.75000000  0.25000000  0.32848302
   0.09791718  0.12500000  0.28671436
   0.90208282  0.12500000  0.28671436
   0.00000000  0.25000000  0.35158853
   0.00000000  0.25000000  0.43512584
   0.84791718  0.12500000  0.39335718
   0.15208282  0.12500000  0.39335718
   0.75000000  0.25000000  0.45823134
   0.75000000  0.25000000  0.54176866
   0.09791718  0.12500000  0.50000000
   0.90208282  0.12500000  0.50000000
   0.00003564  0.24990314  0.56553307
   0.99929849  0.25012201  0.64942891
   0.84995985  0.12467647  0.60706667
   0.14949589  0.12501786  0.60724415
   0.75243786  0.24974030  0.67172727
   0.74894537  0.25060150  0.75543006
   0.09374410  0.12532385  0.71911039
   0.90601833  0.12490300  0.71944059
   0.75000000  0.50000000  0.24494571
   0.75000000  0.50000000  0.32848302
   0.09791718  0.37500000  0.28671436
   0.90208282  0.37500000  0.28671436
   0.00000000  0.50000000  0.35158853
   0.00000000  0.50000000  0.43512584
   0.84791718  0.37500000  0.39335718
   0.15208282  0.37500000  0.39335718
   0.75000000  0.50000000  0.45823134
   0.75000000  0.50000000  0.54176866
   0.09791718  0.37500000  0.50000000
   0.90208282  0.37500000  0.50000000
   0.00019992  0.50000802  0.56551989
   0.99933115  0.50001818  0.64936422
   0.85019930  0.37471579  0.60674309
   0.14962985  0.37504964  0.60731784
   0.75479127  0.49999394  0.67158382
   0.73900930  0.49997862  0.75564004
   0.09398253  0.37496921  0.71913262
   0.90611179  0.37571229  0.72018273
   0.25000000  0.75000000  0.24494571
   0.25000000  0.75000000  0.32848302
   0.59791718  0.62500000  0.28671436
   0.40208282  0.62500000  0.28671436
   0.50000000  0.75000000  0.35158853
   0.50000000  0.75000000  0.43512584
   0.34791718  0.62500000  0.39335718
   0.65208282  0.62500000  0.39335718
   0.25000000  0.75000000  0.45823134
   0.25000000  0.75000000  0.54176866
   0.59791718  0.62500000  0.50000000
   0.40208282  0.62500000  0.50000000
   0.50017945  0.74882867  0.56534218
   0.49765512  0.75118447  0.64842839
   0.34939321  0.62496847  0.60709819
   0.65032451  0.62514579  0.60775727
   0.25086439  0.74960951  0.67188358
   0.25015310  0.75005277  0.75575180
   0.59654984  0.62936324  0.71436258
   0.40753059  0.62581323  0.72031088
   0.25000000  0.00000000  0.24494571
   0.25000000  0.00000000  0.32848302
   0.59791718  0.87500000  0.28671436
   0.40208282  0.87500000  0.28671436
   0.50000000  0.00000000  0.35158853
   0.50000000  0.00000000  0.43512584
   0.34791718  0.87500000  0.39335718
   0.65208282  0.87500000  0.39335718
   0.25000000  0.00000000  0.45823134
   0.25000000  0.00000000  0.54176866
   0.59791718  0.87500000  0.50000000
   0.40208282  0.87500000  0.50000000
   0.49996772  0.00007324  0.56504228
   0.49974780  0.99991958  0.64857589
   0.34947836  0.87523808  0.60683029
   0.65002974  0.87477008  0.60718929
   0.24962359  0.99997625  0.67176486
   0.24961167  0.00000498  0.75563526
   0.59410851  0.87487771  0.71851462
   0.40593609  0.87594537  0.71883060
   0.25000000  0.25000000  0.24494571
   0.25000000  0.25000000  0.32848302
   0.59791718  0.12500000  0.28671436
   0.40208282  0.12500000  0.28671436
   0.50000000  0.25000000  0.35158853
   0.50000000  0.25000000  0.43512584
   0.34791718  0.12500000  0.39335718
   0.65208282  0.12500000  0.39335718
   0.25000000  0.25000000  0.45823134
   0.25000000  0.25000000  0.54176866
   0.59791718  0.12500000  0.50000000
   0.40208282  0.12500000  0.50000000
   0.50007621  0.25128369  0.56543629
   0.49857884  0.24856086  0.64862725
   0.34954224  0.12484767  0.60692932
   0.65012087  0.12516678  0.60716479
   0.24967617  0.24988623  0.67177978
   0.25040468  0.25010321  0.75561124
   0.59411227  0.12472769  0.71858485
   0.40583947  0.12416850  0.71868941
   0.25000000  0.50000000  0.24494571
   0.25000000  0.50000000  0.32848302
   0.59791718  0.37500000  0.28671436
   0.40208282  0.37500000  0.28671436
   0.50000000  0.50000000  0.35158853
   0.50000000  0.50000000  0.43512584
   0.34791718  0.37500000  0.39335718
   0.65208282  0.37500000  0.39335718
   0.25000000  0.50000000  0.45823134
   0.25000000  0.50000000  0.54176866
   0.59791718  0.37500000  0.50000000
   0.40208282  0.37500000  0.50000000
   0.50016654  0.49981719  0.56570111
   0.49880502  0.50038553  0.64993746
   0.34943326  0.37493264  0.60733298
   0.65029120  0.37499710  0.60777544
   0.24999145  0.50043851  0.67191402
   0.25122124  0.49993574  0.75569325
   0.59620813  0.37150390  0.71477115
   0.40636247  0.37398309  0.71834609

 position of ions in cartesian coordinates  (Angst):
   9.79589914  7.40329128  8.77891573
   0.00000000  8.88394953  8.77891573
   0.00000000  7.40329128 12.04421544
   9.79589914  8.88394953 12.04421544
   9.79589914  7.40329128 15.30951516
   0.00000000  8.88394953 15.30951516
   0.00570437  7.40394081 18.50836096
   9.80095143  8.88545147 18.68683702
   9.80606316  7.41387816 22.02377386
  13.05960236  8.88737497 21.70162786
   9.79589914 10.36460779  8.77891573
   0.00000000  0.00000000  8.77891573
   0.00000000 10.36460779 12.04421544
   9.79589914  0.00000000 12.04421544
   9.79589914 10.36460779 15.30951516
   0.00000000  0.00000000 15.30951516
   0.00145592 10.36490999 18.50989542
   9.79347046  0.00095443 18.69407655
   9.79127838 10.36593722 22.05183903
   0.00019553 11.84453846 21.70021190
   9.79589914  1.48065826  8.77891573
   0.00000000  2.96131651  8.77891573
   0.00000000  1.48065826 12.04421544
   9.79589914  2.96131651 12.04421544
   9.79589914  1.48065826 15.30951516
   0.00000000  2.96131651 15.30951516
   0.00427483  1.48007761 18.50958597
   9.79845063  2.95804673 18.68720357
   9.78919768  1.47366311 22.05260430
  13.05979399  2.95678813 21.70129110
   9.79589914  4.44197477  8.77891573
   0.00000000  5.92263302  8.77891573
   0.00000000  4.44197477 12.04421544
   9.79589914  5.92263302 12.04421544
   9.79589914  4.44197477 15.30951516
   0.00000000  5.92263302 15.30951516
   0.00352988  4.44169597 18.50819196
   9.80826883  5.92236959 18.69320552
   9.81225558  4.42529800 22.02738487
   0.00780526  5.92358335 21.69924389
   3.26529971  7.40329128  8.77891573
   6.53059943  8.88394953  8.77891573
   6.53059943  7.40329128 12.04421544
   3.26529971  8.88394953 12.04421544
   3.26529971  7.40329128 15.30951516
   6.53059943  8.88394953 15.30951516
   6.53669701  7.37684781 18.54455975
   3.27107370  8.88251414 18.69596163
   3.26906651  7.40565559 22.05633738
   6.53845187  8.88673395 21.66340876
   3.26529971 10.36460779  8.77891573
   6.53059943  0.00000000  8.77891573
   6.53059943 10.36460779 12.04421544
   3.26529971  0.00000000 12.04421544
   3.26529971 10.36460779 15.30951516
   6.53059943  0.00000000 15.30951516
   6.52916855 10.35372383 18.47850516
   3.26408532 11.84376935 18.69680589
   3.27637640 10.36577496 22.05488765
   6.52292203 11.84479375 21.66925733
   3.26529971  1.48065826  8.77891573
   6.53059943  2.96131651  8.77891573
   6.53059943  1.48065826 12.04421544
   3.26529971  2.96131651 12.04421544
   3.26529971  1.48065826 15.30951516
   6.53059943  2.96131651 15.30951516
   6.52462715  1.49262015 18.48157273
   3.26778706  2.96353758 18.69667069
   3.27344540  1.48027175 22.05376647
   6.53573466  2.95681487 21.67261673
   3.26529971  4.44197477  8.77891573
   6.53059943  5.92263302  8.77891573
   6.53059943  4.44197477 12.04421544
   3.26529971  5.92263302 12.04421544
   3.26529971  4.44197477 15.30951516
   6.53059943  5.92263302 15.30951516
   6.53629855  4.46711944 18.54977906
   3.27073338  5.92305397 18.69966972
   3.26651083  4.44082784 22.05361256
   6.53985502  5.91407094 21.81417922
   9.79589914  8.88394953  7.50000000
   9.79589914  8.88394953 10.05783146
   1.27891573  7.40329128  8.77891573
  11.78228313  7.40329128  8.77891573
   0.00000000  8.88394953 10.76529971
   0.00000000  8.88394953 13.32313117
  11.07481487  7.40329128 12.04421544
   1.98638398  7.40329128 12.04421544
   9.79589914  8.88394953 14.03059943
   9.79589914  8.88394953 16.58843089
   1.27891573  7.40329128 15.30951516
  11.78228313  7.40329128 15.30951516
   0.00114863  8.88527535 17.31591913
  13.05038406  8.88232995 19.88493426
  11.10467312  7.40617288 18.57691785
   1.95422727  7.40465200 18.59646534
   9.83503055  8.89114304 20.56554994
   9.77675485  8.87313018 23.13066318
   1.22890397  7.40419765 22.02126157
  11.83496234  7.39451283 22.04973392
   9.79589914  0.00000000  7.50000000
   9.79589914  0.00000000 10.05783146
   1.27891573 10.36460779  8.77891573
  11.78228313 10.36460779  8.77891573
   0.00000000  0.00000000 10.76529971
   0.00000000  0.00000000 13.32313117
  11.07481487 10.36460779 12.04421544
   1.98638398 10.36460779 12.04421544
   9.79589914  0.00000000 14.03059943
   9.79589914  0.00000000 16.58843089
   1.27891573 10.36460779 15.30951516
  11.78228313 10.36460779 15.30951516
   0.00079124 11.84507973 17.31580580
  13.05561821 11.84509820 19.88357067
  11.10238851 10.36977295 18.58518885
   1.95373363 10.36222194 18.59685733
   9.79906770 11.84469584 20.57398090
   9.79257244 11.84316516 23.13923681
   1.22652349 10.35954539 22.01303001
  11.83518037 10.36487566 22.03399100
   9.79589914  2.96131651  7.50000000
   9.79589914  2.96131651 10.05783146
   1.27891573  1.48065826  8.77891573
  11.78228313  1.48065826  8.77891573
   0.00000000  2.96131651 10.76529971
   0.00000000  2.96131651 13.32313117
  11.07481487  1.48065826 12.04421544
   1.98638398  1.48065826 12.04421544
   9.79589914  2.96131651 14.03059943
   9.79589914  2.96131651 16.58843089
   1.27891573  1.48065826 15.30951516
  11.78228313  1.48065826 15.30951516
   0.00046551  2.96016912 17.31607430
  13.05203627  2.96276171 19.88488348
  11.10149467  1.47682596 18.58779280
   1.95259557  1.48086983 18.59322712
   9.82774051  2.95824027 20.56763750
   9.78212440  2.96844149 23.13053579
   1.22441038  1.48449436 22.01846283
  11.83368555  1.47950926 22.02857309
   9.79589914  5.92263302  7.50000000
   9.79589914  5.92263302 10.05783146
   1.27891573  4.44197477  8.77891573
  11.78228313  4.44197477  8.77891573
   0.00000000  5.92263302 10.76529971
   0.00000000  5.92263302 13.32313117
  11.07481487  4.44197477 12.04421544
   1.98638398  4.44197477 12.04421544
   9.79589914  5.92263302 14.03059943
   9.79589914  5.92263302 16.58843089
   1.27891573  4.44197477 15.30951516
  11.78228313  4.44197477 15.30951516
   0.00261123  5.92272798 17.31567070
  13.05246289  5.92284833 19.88290268
  11.10462211  4.43860824 18.57788504
   1.95434520  4.44256276 18.59548341
   9.85847888  5.92256130 20.56324530
   9.65234744  5.92237978 23.13696542
   1.22752451  4.44161008 22.01914343
  11.83490628  4.45041205 22.05129670
   3.26529971  8.88394953  7.50000000
   3.26529971  8.88394953 10.05783146
   7.80951516  7.40329128  8.77891573
   5.25168370  7.40329128  8.77891573
   6.53059943  8.88394953 10.76529971
   6.53059943  8.88394953 13.32313117
   4.54421544  7.40329128 12.04421544
   8.51698341  7.40329128 12.04421544
   3.26529971  8.88394953 14.03059943
   3.26529971  8.88394953 16.58843089
   7.80951516  7.40329128 15.30951516
   5.25168370  7.40329128 15.30951516
   6.53294329  8.87007477 17.31022924
   6.49997244  8.89797987 19.85424843
   4.56349422  7.40291782 18.58875792
   8.49401770  7.40501822 18.60893840
   3.27658963  8.87932404 20.57242364
   3.26729937  8.88457458 23.14038739
   7.79165609  7.45497505 21.87308950
   5.32283812  7.41292425 22.05522061
   3.26529971  0.00000000  7.50000000
   3.26529971  0.00000000 10.05783146
   7.80951516 10.36460779  8.77891573
   5.25168370 10.36460779  8.77891573
   6.53059943  0.00000000 10.76529971
   6.53059943  0.00000000 13.32313117
   4.54421544 10.36460779 12.04421544
   8.51698341 10.36460779 12.04421544
   3.26529971  0.00000000 14.03059943
   3.26529971  0.00000000 16.58843089
   7.80951516 10.36460779 15.30951516
   5.25168370 10.36460779 15.30951516
   6.53017785  0.00086753 17.30104662
   6.52730540 11.84431345 19.85876482
   4.56460641 10.36742789 18.58055496
   8.49016775 10.36188438 18.59154740
   3.26038338 11.84498469 20.56878858
   3.26022764  0.00005896 23.13681888
   7.75976938 10.36315923 22.00022095
   5.30201200 10.37580590 22.00989593
   3.26529971  2.96131651  7.50000000
   3.26529971  2.96131651 10.05783146
   7.80951516  1.48065826  8.77891573
   5.25168370  1.48065826  8.77891573
   6.53059943  2.96131651 10.76529971
   6.53059943  2.96131651 13.32313117
   4.54421544  1.48065826 12.04421544
   8.51698341  1.48065826 12.04421544
   3.26529971  2.96131651 14.03059943
   3.26529971  2.96131651 16.58843089
   7.80951516  1.48065826 15.30951516
   5.25168370  1.48065826 15.30951516
   6.53159477  2.97652221 17.31311094
   6.51203743  2.94426955 19.86033728
   4.56544067  1.47885385 18.58358730
   8.49135799  1.48263375 18.59079703
   3.26107006  2.95996882 20.56924530
   3.27058530  2.96253906 23.13608336
   7.75981850  1.47743263 22.00237129
   5.30075009  1.47080887 22.00557271
   3.26529971  5.92263302  7.50000000
   3.26529971  5.92263302 10.05783146
   7.80951516  4.44197477  8.77891573
   5.25168370  4.44197477  8.77891573
   6.53059943  5.92263302 10.76529971
   6.53059943  5.92263302 13.32313117
   4.54421544  4.44197477 12.04421544
   8.51698341  4.44197477 12.04421544
   3.26529971  5.92263302 14.03059943
   3.26529971  5.92263302 16.58843089
   7.80951516  4.44197477 15.30951516
   5.25168370  4.44197477 15.30951516
   6.53277468  5.92046756 17.32121947
   6.51499151  5.92719978 19.90045482
   4.56401728  4.44117683 18.59594693
   8.49358269  4.44194037 18.60949455
   3.26518799  5.92782734 20.57335573
   3.28125059  5.92187185 23.13859464
   7.78719300  4.40056252 21.88559958
   5.30758099  4.42992917 21.99506061



--------------------------------------------------------------------------------------------------------

--------------------------------------- Iteration      FINAL  ---------------------------------------


--------------------OUTCAR has been truncated-------------------------


--------------------OUTCAR has been truncated-------------------------


--------------------OUTCAR has been truncated-------------------------


--------------------OUTCAR has been truncated-------------------------


--------------------OUTCAR has been truncated-------------------------


--------------------OUTCAR has been truncated-------------------------


--------------------OUTCAR has been truncated-------------------------


--------------------OUTCAR has been truncated-------------------------


--------------------OUTCAR has been truncated-------------------------


--------------------OUTCAR has been truncated-------------------------


  Hirshfeld charges:
            ion         q(e)     
   ------------------------------
      1     Ti          0.673
      2     Ti          0.836
      3     Ti          0.735
      4     Ti          0.724
      5     Ti          0.719
      6     Ti          0.734
      7     Ti          0.738
      8     Ti          0.720
      9     Ti          0.709
     10     Ti          0.792
     11     Ti          0.673
     12     Ti          0.836
     13     Ti          0.735
     14     Ti          0.724
     15     Ti          0.719
     16     Ti          0.734
     17     Ti          0.738
     18     Ti          0.720
     19     Ti          0.716
     20     Ti          0.792
     21     Ti          0.673
     22     Ti          0.836
     23     Ti          0.735
     24     Ti          0.724
     25     Ti          0.719
     26     Ti          0.734
     27     Ti          0.738
     28     Ti          0.720
     29     Ti          0.716
     30     Ti          0.792
     31     Ti          0.673
     32     Ti          0.836
     33     Ti          0.735
     34     Ti          0.724
     35     Ti          0.719
     36     Ti          0.734
     37     Ti          0.738
     38     Ti          0.718
     39     Ti          0.709
     40     Ti          0.790
     41     Ti          0.673
     42     Ti          0.836
     43     Ti          0.735
     44     Ti          0.724
     45     Ti          0.719
     46     Ti          0.733
     47     Ti          0.738
     48     Ti          0.720
     49     Ti          0.716
     50     Ti          0.787
     51     Ti          0.673
     52     Ti          0.836
     53     Ti          0.735
     54     Ti          0.724
     55     Ti          0.719
     56     Ti          0.733
     57     Ti          0.739
     58     Ti          0.719
     59     Ti          0.716
     60     Ti          0.787
     61     Ti          0.673
     62     Ti          0.836
     63     Ti          0.735
     64     Ti          0.724
     65     Ti          0.719
     66     Ti          0.733
     67     Ti          0.739
     68     Ti          0.720
     69     Ti          0.717
     70     Ti          0.791
     71     Ti          0.673
     72     Ti          0.836
     73     Ti          0.735
     74     Ti          0.724
     75     Ti          0.719
     76     Ti          0.735
     77     Ti          0.738
     78     Ti          0.719
     79     Ti          0.716
     80     Ti          0.829
     81     O          -0.404
     82     O          -0.385
     83     O          -0.368
     84     O          -0.368
     85     O          -0.348
     86     O          -0.359
     87     O          -0.367
     88     O          -0.367
     89     O          -0.371
     90     O          -0.372
     91     O          -0.364
     92     O          -0.364
     93     O          -0.354
     94     O          -0.352
     95     O          -0.367
     96     O          -0.367
     97     O          -0.374
     98     O          -0.370
     99     O          -0.384
    100     O          -0.386
    101     O          -0.404
    102     O          -0.385
    103     O          -0.368
    104     O          -0.368
    105     O          -0.348
    106     O          -0.359
    107     O          -0.367
    108     O          -0.367
    109     O          -0.371
    110     O          -0.372
    111     O          -0.364
    112     O          -0.364
    113     O          -0.353
    114     O          -0.352
    115     O          -0.367
    116     O          -0.367
    117     O          -0.374
    118     O          -0.368
    119     O          -0.384
    120     O          -0.384
    121     O          -0.404
    122     O          -0.385
    123     O          -0.368
    124     O          -0.368
    125     O          -0.348
    126     O          -0.359
    127     O          -0.367
    128     O          -0.367
    129     O          -0.371
    130     O          -0.372
    131     O          -0.364
    132     O          -0.364
    133     O          -0.354
    134     O          -0.352
    135     O          -0.367
    136     O          -0.367
    137     O          -0.375
    138     O          -0.370
    139     O          -0.384
    140     O          -0.384
    141     O          -0.404
    142     O          -0.385
    143     O          -0.368
    144     O          -0.368
    145     O          -0.348
    146     O          -0.359
    147     O          -0.367
    148     O          -0.367
    149     O          -0.371
    150     O          -0.372
    151     O          -0.364
    152     O          -0.364
    153     O          -0.354
    154     O          -0.353
    155     O          -0.367
    156     O          -0.367
    157     O          -0.375
    158     O          -0.381
    159     O          -0.385
    160     O          -0.386
    161     O          -0.404
    162     O          -0.385
    163     O          -0.368
    164     O          -0.368
    165     O          -0.348
    166     O          -0.359
    167     O          -0.367
    168     O          -0.367
    169     O          -0.371
    170     O          -0.372
    171     O          -0.364
    172     O          -0.364
    173     O          -0.355
    174     O          -0.352
    175     O          -0.367
    176     O          -0.367
    177     O          -0.375
    178     O          -0.369
    179     O          -0.380
    180     O          -0.382
    181     O          -0.404
    182     O          -0.385
    183     O          -0.368
    184     O          -0.368
    185     O          -0.348
    186     O          -0.359
    187     O          -0.367
    188     O          -0.367
    189     O          -0.371
    190     O          -0.372
    191     O          -0.364
    192     O          -0.364
    193     O          -0.355
    194     O          -0.353
    195     O          -0.367
    196     O          -0.367
    197     O          -0.374
    198     O          -0.368
    199     O          -0.384
    200     O          -0.386
    201     O          -0.404
    202     O          -0.385
    203     O          -0.368
    204     O          -0.368
    205     O          -0.348
    206     O          -0.359
    207     O          -0.367
    208     O          -0.367
    209     O          -0.371
    210     O          -0.372
    211     O          -0.364
    212     O          -0.364
    213     O          -0.354
    214     O          -0.352
    215     O          -0.367
    216     O          -0.367
    217     O          -0.374
    218     O          -0.369
    219     O          -0.384
    220     O          -0.385
    221     O          -0.404
    222     O          -0.385
    223     O          -0.368
    224     O          -0.368
    225     O          -0.348
    226     O          -0.359
    227     O          -0.367
    228     O          -0.367
    229     O          -0.371
    230     O          -0.372
    231     O          -0.364
    232     O          -0.364
    233     O          -0.351
    234     O          -0.350
    235     O          -0.367
    236     O          -0.367
    237     O          -0.375
    238     O          -0.371
    239     O          -0.378
    240     O          -0.380

  Hirshfeld-I charges:
            ion         q(e)        dq(e)    
   ------------------------------------------
      1     Ti          2.060     -0.171E-04
      2     Ti          2.063     -0.412E-04
      3     Ti          2.132     -0.182E-04
      4     Ti          2.140     -0.571E-05
      5     Ti          2.127     -0.185E-04
      6     Ti          2.131     -0.771E-05
      7     Ti          2.150     -0.127E-05
      8     Ti          2.122     -0.167E-04
      9     Ti          2.054     -0.233E-04
     10     Ti          2.090     -0.377E-04
     11     Ti          2.060     -0.171E-04
     12     Ti          2.063     -0.412E-04
     13     Ti          2.132     -0.181E-04
     14     Ti          2.140     -0.562E-05
     15     Ti          2.127     -0.183E-04
     16     Ti          2.131     -0.772E-05
     17     Ti          2.150     -0.127E-05
     18     Ti          2.119     -0.175E-04
     19     Ti          2.057     -0.231E-04
     20     Ti          2.090     -0.381E-04
     21     Ti          2.060     -0.171E-04
     22     Ti          2.063     -0.412E-04
     23     Ti          2.132     -0.181E-04
     24     Ti          2.140     -0.570E-05
     25     Ti          2.127     -0.183E-04
     26     Ti          2.131     -0.771E-05
     27     Ti          2.150     -0.128E-05
     28     Ti          2.122     -0.167E-04
     29     Ti          2.056     -0.231E-04
     30     Ti          2.091     -0.376E-04
     31     Ti          2.060     -0.171E-04
     32     Ti          2.063     -0.412E-04
     33     Ti          2.132     -0.182E-04
     34     Ti          2.140     -0.548E-05
     35     Ti          2.127     -0.186E-04
     36     Ti          2.131     -0.781E-05
     37     Ti          2.150     -0.124E-05
     38     Ti          2.117     -0.158E-04
     39     Ti          2.054     -0.235E-04
     40     Ti          2.092     -0.372E-04
     41     Ti          2.060     -0.171E-04
     42     Ti          2.063     -0.411E-04
     43     Ti          2.132     -0.182E-04
[...]
      9.78920      1.47366     22.05260         0.080158      0.056044      0.063045
     13.05979      2.95679     21.70129        -0.067231      0.035004     -0.036927
      9.79590      4.44197      8.77892        -0.001331      0.000079     -3.418235
      0.00000      5.92263      8.77892         0.000686     -0.000060      2.834646
      0.00000      4.44197     12.04422         0.003442      0.000241      0.522868
      9.79590      5.92263     12.04422        -0.003234      0.000278     -0.717963
      9.79590      4.44197     15.30952        -0.018023      0.021625      0.620095
      0.00000      5.92263     15.30952         0.007192      0.000449     -0.687113
      0.00353      4.44170     18.50819        -0.030597      0.007064      0.042284
      9.80827      5.92237     18.69321         0.081099      0.003212      0.167135
      9.81226      4.42530     22.02738         0.164246      0.599609      0.446726
      0.00781      5.92358     21.69924        -0.101597      0.012770     -0.006334
      3.26530      7.40329      8.77892         0.001403      0.000112     -3.416558
      6.53060      8.88395      8.77892        -0.000608      0.000331      2.838061
      6.53060      7.40329     12.04422        -0.003169      0.011546      0.533257
      3.26530      8.88395     12.04422         0.003928      0.000830     -0.708467
      3.26530      7.40329     15.30952         0.018104     -0.007972      0.652178
      6.53060      8.88395     15.30952        -0.008249     -0.030776     -0.622377
      6.53670      7.37685     18.54456         0.034027      0.259346     -0.177195
      3.27107      8.88251     18.69596        -0.044389      0.027352      0.038155
      3.26907      7.40566     22.05634        -0.177888      0.062616      0.020006
      6.53845      8.88673     21.66341         0.008540      0.272817      0.015743
      3.26530     10.36461      8.77892         0.001589      0.000039     -3.416419
      6.53060      0.00000      8.77892        -0.000759     -0.000143      2.838644
      6.53060     10.36461     12.04422        -0.003199      0.001882      0.538517
      3.26530      0.00000     12.04422         0.004506     -0.000168     -0.708416
      3.26530     10.36461     15.30952         0.012863      0.004858      0.649035
      6.53060      0.00000     15.30952        -0.006943     -0.001477     -0.775301
      6.52917     10.35372     18.47851         0.029496      0.051500      0.000265
      3.26409     11.84377     18.69681        -0.026434     -0.005561      0.054328
      3.27638     10.36577     22.05489        -0.049703     -0.006352     -0.000671
      6.52292     11.84479     21.66926         0.030451     -0.062709     -0.054265
      3.26530      1.48066      8.77892         0.001544     -0.000127     -3.416398
      6.53060      2.96132      8.77892        -0.000629     -0.000341      2.837815
      6.53060      1.48066     12.04422        -0.003252     -0.004392      0.536984
      3.26530      2.96132     12.04422         0.003725     -0.000801     -0.708109
      3.26530      1.48066     15.30952         0.012221     -0.004388      0.650818
      6.53060      2.96132     15.30952        -0.008365      0.033395     -0.615769
      6.52463      1.49262     18.48157         0.025556     -0.076864     -0.019004
      3.26779      2.96354     18.69667        -0.050369     -0.027120      0.020145
      3.27345      1.48027     22.05377        -0.077151     -0.066836     -0.024432
      6.53573      2.95681     21.67262         0.065965     -0.405927     -0.202195
      3.26530      4.44197      8.77892         0.001331     -0.000037     -3.416538
      6.53060      5.92263      8.77892        -0.000803      0.000087      2.837220
      6.53060      4.44197     12.04422        -0.003279     -0.009076      0.531955
      3.26530      5.92263     12.04422         0.003154      0.000173     -0.707497
      3.26530      4.44197     15.30952         0.018732      0.007456      0.652508
      6.53060      5.92263     15.30952        -0.009931     -0.001083     -0.685736
      6.53630      4.46712     18.54978         0.039017     -0.232121     -0.195537
      3.27073      5.92305     18.69967        -0.065887      0.005701      0.022022
      3.26651      4.44083     22.05361        -0.290079      0.010763     -0.012914
      6.53986      5.91407     21.81418         0.197882      0.228088     -1.823839
      9.79590      8.88395      7.50000         0.000419     -0.000067      1.919958
      9.79590      8.88395     10.05783         0.000626     -0.000094      1.704079
      1.27892      7.40329      8.77892        -1.831543      0.000038     -0.785537
     11.78228      7.40329      8.77892         1.830715     -0.000005     -0.785474
      0.00000      8.88395     10.76530        -0.000344      0.000012     -1.325639
      0.00000      8.88395     13.32313        -0.000687      0.000181     -0.127339
     11.07481      7.40329     12.04422         0.415559     -0.000102      0.057336
      1.98638      7.40329     12.04422        -0.418853     -0.000063      0.055965
      9.79590      8.88395     14.03060         0.001915     -0.000754     -0.073122
      9.79590      8.88395     16.58843        -0.005177      0.000492     -0.018158
      1.27892      7.40329     15.30952        -0.477475      0.001987      0.086416
     11.78228      7.40329     15.30952         0.464708      0.000995      0.090088
      0.00115      8.88528     17.31592         0.005484      0.002547      0.001377
     13.05038      8.88233     19.88493         0.008099      0.000657     -0.012876
     11.10467      7.40617     18.57692        -0.005690      0.001077     -0.013690
      1.95423      7.40465     18.59647         0.042335     -0.004443     -0.002656
      9.83503      8.89114     20.56555        -0.039371      0.040866     -0.197751
      9.77675      8.87313     23.13066         0.013879      0.158817     -0.037009
      1.22890      7.40420     22.02126         0.036526     -0.001268      0.027038
     11.83496      7.39451     22.04973         0.137964      0.023906     -0.004967
      9.79590      0.00000      7.50000         0.000396      0.000061      1.919938
      9.79590      0.00000     10.05783         0.000755      0.000045      1.704037
      1.27892     10.36461      8.77892        -1.831622     -0.000062     -0.785507
     11.78228     10.36461      8.77892         1.830754     -0.000024     -0.785444
      0.00000      0.00000     10.76530        -0.000374      0.000050     -1.325618
      0.00000      0.00000     13.32313        -0.000897      0.000070     -0.127311
     11.07481     10.36461     12.04422         0.415528     -0.000018      0.057442
      1.98638     10.36461     12.04422        -0.418979     -0.000159      0.056052
      9.79590      0.00000     14.03060         0.002066      0.000824     -0.072149
      9.79590      0.00000     16.58843        -0.012996      0.000241     -0.028867
      1.27892     10.36461     15.30952        -0.476191      0.000648      0.085509
     11.78228     10.36461     15.30952         0.462930     -0.001077      0.088146
      0.00079     11.84508     17.31581         0.003441      0.001069      0.008289
     13.05562     11.84510     19.88357         0.003857      0.001658     -0.001573
     11.10239     10.36977     18.58519        -0.005352     -0.001796     -0.004503
      1.95373     10.36222     18.59686         0.034177     -0.005538      0.000990
      9.79907     11.84470     20.57398        -0.009520      0.008852     -0.148569
      9.79257     11.84317     23.13924        -0.005878      0.022841      0.030426
      1.22652     10.35955     22.01303         0.001751      0.013973      0.030690
     11.83518     10.36488     22.03399         0.065364      0.011961      0.015455
      9.79590      2.96132      7.50000         0.000431      0.000056      1.919973
      9.79590      2.96132     10.05783         0.000612      0.000084      1.704287
      1.27892      1.48066      8.77892        -1.831609      0.000006     -0.785498
     11.78228      1.48066      8.77892         1.830752      0.000049     -0.785406
      0.00000      2.96132     10.76530        -0.000363     -0.000018     -1.325539
      0.00000      2.96132     13.32313        -0.000852     -0.000148     -0.126653
     11.07481      1.48066     12.04422         0.415523      0.000208      0.057445
      1.98638      1.48066     12.04422        -0.419044      0.000183      0.056033
      9.79590      2.96132     14.03060         0.001955      0.000347     -0.072297
      9.79590      2.96132     16.58843        -0.007606      0.003832     -0.009416
      1.27892      1.48066     15.30952        -0.476878      0.000292      0.085952
     11.78228      1.48066     15.30952         0.462543      0.001270      0.088846
      0.00047      2.96017     17.31607         0.005563     -0.002427      0.001505
     13.05204      2.96276     19.88488         0.007624     -0.001205     -0.005672
     11.10149      1.47683     18.58779        -0.006255      0.003718     -0.005034
      1.95260      1.48087     18.59323         0.035056      0.010162      0.002432
      9.82774      2.95824     20.56764        -0.040336     -0.043152     -0.189589
      9.78212      2.96844     23.13054        -0.015921     -0.150041      0.012481
      1.22441      1.48449     22.01846         0.013480     -0.005285      0.033584
     11.83369      1.47951     22.02857         0.057793     -0.003675      0.020851
      9.79590      5.92263      7.50000         0.000384     -0.000037      1.919896
      9.79590      5.92263     10.05783         0.000570     -0.000005      1.703929
      1.27892      4.44197      8.77892        -1.831547      0.000000     -0.785512
     11.78228      4.44197      8.77892         1.830737     -0.000013     -0.785458
      0.00000      5.92263     10.76530        -0.000344     -0.000021     -1.325549
      0.00000      5.92263     13.32313        -0.000548     -0.000052     -0.127603
     11.07481      4.44197     12.04422         0.415494     -0.000066      0.057382
      1.98638      4.44197     12.04422        -0.418936      0.000046      0.055972
      9.79590      5.92263     14.03060         0.003627     -0.000203     -0.075399
      9.79590      5.92263     16.58843        -0.014009     -0.001422     -0.030630
      1.27892      4.44197     15.30952        -0.478320     -0.002794      0.086728
     11.78228      4.44197     15.30952         0.464469     -0.001017      0.089948
      0.00261      5.92273     17.31567         0.004576     -0.001390     -0.001805
     13.05246      5.92285     19.88290         0.012947     -0.001197     -0.014096
     11.10462      4.43861     18.57789        -0.004497     -0.002859     -0.013923
      1.95435      4.44256     18.59548         0.044884     -0.000021     -0.001533
      9.85848      5.92256     20.56325        -0.040470     -0.009508     -0.279465
      9.65235      5.92238     23.13697         0.303634     -0.017745     -0.664764
      1.22752      4.44161     22.01914         0.050778     -0.007464      0.031695
     11.83491      4.45041     22.05130         0.130858     -0.033509     -0.002686
      3.26530      8.88395      7.50000        -0.000342     -0.000057      1.919318
      3.26530      8.88395     10.05783        -0.000588     -0.000087      1.701354
      7.80952      7.40329      8.77892        -1.829384     -0.000296     -0.785882
      5.25168      7.40329      8.77892         1.830340     -0.000330     -0.785963
      6.53060      8.88395     10.76530         0.000393     -0.001972     -1.332984
      6.53060      8.88395     13.32313         0.001222     -0.004103     -0.162220
      4.54422      7.40329     12.04422         0.413623     -0.000608      0.055431
      8.51698      7.40329     12.04422        -0.410087     -0.000687      0.056670
      3.26530      8.88395     14.03060        -0.002626      0.000477     -0.087599
      3.26530      8.88395     16.58843        -0.014631     -0.004202     -0.011325
      7.80952      7.40329     15.30952        -0.445021     -0.029040      0.077408
      5.25168      7.40329     15.30952         0.462795     -0.029408      0.078665
      6.53294      8.87007     17.31023        -0.003193     -0.059877      0.075302
      6.49997      8.89798     19.85425         0.003797     -0.038100      0.076020
      4.56349      7.40292     18.58876         0.054847     -0.020551      0.011011
      8.49402      7.40502     18.60894        -0.109760     -0.018641     -0.001052
      3.27659      8.87932     20.57242         0.025485     -0.019178     -0.079026
      3.26730      8.88457     23.14039         0.008187     -0.025616     -0.007787
      7.79166      7.45498     21.87309        -0.473650     -0.527331      0.379373
      5.32284      7.41292     22.05522         0.215119     -0.321418      0.140623
      3.26530      0.00000      7.50000        -0.000353     -0.000004      1.919287
      3.26530      0.00000     10.05783        -0.000655     -0.000007      1.701143
      7.80952     10.36461      8.77892        -1.829255     -0.000199     -0.785906
      5.25168     10.36461      8.77892         1.830231     -0.000165     -0.785998
      6.53060      0.00000     10.76530         0.000437      0.000402     -1.333962
      6.53060      0.00000     13.32313         0.000755      0.000757     -0.167668
      4.54422     10.36461     12.04422         0.411708     -0.000168      0.055196
      8.51698     10.36461     12.04422        -0.408104     -0.000032      0.056508
      3.26530      0.00000     14.03060        -0.002197      0.000131     -0.087837
      3.26530      0.00000     16.58843        -0.024953      0.001672     -0.032182
      7.80952     10.36461     15.30952        -0.437602     -0.001992      0.080797
      5.25168     10.36461     15.30952         0.451569     -0.003772      0.080721
      6.53018      0.00087     17.30105        -0.002817      0.006284      0.035443
      6.52731     11.84431     19.85876        -0.006005      0.006827      0.033055
      4.56461     10.36743     18.58055         0.012644     -0.007400      0.001834
      8.49017     10.36188     18.59155        -0.045887     -0.000147     -0.009140
      3.26038     11.84498     20.56879         0.010861      0.009829     -0.085364
      3.26023      0.00006     23.13682         0.006323      0.025451      0.029339
      7.75977     10.36316     22.00022        -0.128539     -0.027873     -0.011884
      5.30201     10.37581     22.00990         0.064119     -0.031131      0.005423
      3.26530      2.96132      7.50000        -0.000309      0.000092      1.919229
      3.26530      2.96132     10.05783        -0.000563      0.000095      1.701348
      7.80952      1.48066      8.77892        -1.829311      0.000331     -0.785879
      5.25168      1.48066      8.77892         1.830277      0.000269     -0.785968
      6.53060      2.96132     10.76530         0.000445      0.001966     -1.332140
      6.53060      2.96132     13.32313         0.001024      0.004215     -0.154229
      4.54422      1.48066     12.04422         0.412097      0.000317      0.055271
      8.51698      1.48066     12.04422        -0.408475      0.000311      0.056617
      3.26530      2.96132     14.03060        -0.002894     -0.000541     -0.088659
      3.26530      2.96132     16.58843        -0.013489      0.004243     -0.008579
      7.80952      1.48066     15.30952        -0.439986      0.008388      0.083433
      5.25168      1.48066     15.30952         0.453303      0.008877      0.081879
      6.53159      2.97652     17.31311        -0.003118      0.057477      0.079517
      6.51204      2.94427     19.86034        -0.002945      0.044238      0.131811
      4.56544      1.47885     18.58359         0.017448      0.013751      0.001600
      8.49136      1.48263     18.59080        -0.048563      0.004355     -0.007728
      3.26107      2.95997     20.56925         0.035214      0.024358     -0.060089
      3.27059      2.96254     23.13608         0.036282      0.044950      0.042187
      7.75982      1.47743     22.00237        -0.138686      0.082201      0.011574
      5.30075      1.47081     22.00557         0.066814      0.083591      0.030528
      3.26530      5.92263      7.50000        -0.000313     -0.000029      1.919248
      3.26530      5.92263     10.05783        -0.000535     -0.000003      1.701355
      7.80952      4.44197      8.77892        -1.829428      0.000171     -0.785902
      5.25168      4.44197      8.77892         1.830355      0.000223     -0.785952
      6.53060      5.92263     10.76530         0.000371     -0.000343     -1.330240
      6.53060      5.92263     13.32313         0.001263     -0.000862     -0.119127
      4.54422      4.44197     12.04422         0.414035      0.000470      0.055461
      8.51698      4.44197     12.04422        -0.410408      0.000428      0.056778
      3.26530      5.92263     14.03060        -0.003935     -0.000099     -0.089558
      3.26530      5.92263     16.58843        -0.010608     -0.002287     -0.002656
      7.80952      4.44197     15.30952        -0.446028      0.022813      0.076732
      5.25168      4.44197     15.30952         0.463156      0.024428      0.077082
      6.53277      5.92047     17.32122        -0.000571     -0.005780      0.130994
      6.51499      5.92720     19.90045        -0.053143     -0.029376      0.802586
      4.56402      4.44118     18.59595         0.057072      0.014418      0.013653
      8.49358      4.44194     18.60949        -0.112414      0.013663      0.001299
      3.26519      5.92783     20.57336         0.037873     -0.014609     -0.069288
      3.28125      5.92187     23.13859         0.029460     -0.048517      0.006201
      7.78719      4.40056     21.88560        -0.496066      0.408247      0.438912
      5.30758      4.42993     21.99506         0.255940      0.301397      0.317819
 -----------------------------------------------------------------------------------
    total drift:                               -0.007531     -0.000669     -0.005212


--------------------------------------------------------------------------------------------------------



  FREE ENERGIE OF THE ION-ELECTRON SYSTEM (eV)
  ---------------------------------------------------
  free  energy   TOTEN  =     -2154.62260026 eV

  energy  without entropy=    -2154.62260026  energy(sigma->0) =    -2154.62260026



--------------------------------------------------------------------------------------------------------


    POTLOK:  cpu time      0.3410: real time      0.3410


--------------------------------------------------------------------------------------------------------


     LOOP+:  cpu time    838.9247: real time    839.4366
    4ORBIT:  cpu time      0.0000: real time      0.0000

 total amount of memory used by VASP MPI-rank0   163892. kBytes
=======================================================================

   base      :      30000. kBytes
   nonl-proj :      49520. kBytes
   fftplans  :       7949. kBytes
   grid      :      12122. kBytes
   one-center:        233. kBytes
   wavefun   :      64068. kBytes

  
  
 General timing and accounting informations for this job:
 ========================================================
  
                  Total CPU time used (sec):      929.449
                            User time (sec):      919.110
                          System time (sec):       10.339
                         Elapsed time (sec):      943.786
  
                   Maximum memory used (kb):      509532.
                   Average memory used (kb):          N/A
  
                          Minor page faults:       967103
                          Major page faults:          746
                 Voluntary context switches:        11009
