 **********************************************************************
                          MRCC program system
 **********************************************************************
 
                              Written by
     Mihaly Kallay, Peter R. Nagy, David Mester, Laszlo Gyevi-Nagy,
        Jozsef Csoka, P. Bernat Szabo, Zoltan Rolik, Gyula Samu,
     Jozsef Csontos, Bence Hegely, Adam Ganyecz, Istvan Ladjanszki,
       Lorant Szegedy, Bence Ladoczki, Klara Petrov, Mate Farkas,
                    Pal D. Mezei, and Reka A. Horvath
 
        Department of Physical Chemistry and Materials Science
            Budapest University of Technology and Economics
                  Budapest P.O.Box 91, H-1521 Hungary
 
                              www.mrcc.hu
 
                      Release date: March 18, 2022

 ************************ 2023-02-05 13:32:54 *************************
 Executing minp...

 Reading input from MINP...
 
 Input file:
 
calc=FNO-CCSD(T)
verbosity=3
mem=220GB
unit=angs
scfiguess=small
scfalg=locfit1
ccmaxit=400
ccsdalg=dfdirect
ccsdthreads=4
ccsdmkl=thr
ptthreads=4
lnoepsv=1e-5
naf_cor=1e-2
basis=aug-cc-pVQZ
basis_sm=def2-SVP
dfbasis_scf=def2-QZVPP-RI-JK
dfbasis_cor=aug-cc-pVQZ-RI
unit=angs
geom=xyz
16

C    34.41670262    34.07107264    10.41543014
C    33.11117461    33.45680459    10.91530835
H    34.24160149    35.00442132     9.86225048
H    34.94674030    33.36940783     9.75379242
H    35.10002891    34.30603621    11.24227357
H    32.42643037    33.26105434    10.07939442
H    32.59136835    34.12756100    11.61262818
H    33.28915165    32.50678735    11.43686767
C    25.97571797    17.18910333    10.41543014
C    24.67018996    16.57483529    10.91530835
H    25.80061684    18.12245202     9.86225048
H    26.50575565    16.48743852     9.75379242
H    26.65904426    17.42406690    11.24227357
H    23.98544572    16.37908503    10.07939442
H    24.15038370    17.24559169    11.61262818
H    24.84816699    15.62481804    11.43686767

--------------------Output has been truncated-------------------------


--------------------Output has been truncated-------------------------


--------------------Output has been truncated-------------------------


--------------------Output has been truncated-------------------------


--------------------Output has been truncated-------------------------


--------------------Output has been truncated-------------------------


--------------------Output has been truncated-------------------------


--------------------Output has been truncated-------------------------


--------------------Output has been truncated-------------------------


--------------------Output has been truncated-------------------------


 
 Reference energy [au]:                      -158.528874085397
 DF-MP2 singlet pair energy [au]:              -0.635444660037
 DF-MP2 triplet pair energy [au]:              -0.153812728957
 DF-SCS-MP2 correlation energy [au]:           -0.813804501696
 DF-SCS-MP2 energy [au]:                     -159.342678587093
 DF-SOS-MP2 correlation energy [au]:           -0.826078058048
 DF-SOS-MP2 energy [au]:                     -159.354952143445
 DF-MP2 correlation energy [au]:               -0.789257388993
 DF-MP2 energy [au]:                         -159.318131474390

 Results in FNO basis:
 
 
 Reference energy [au]:                      -158.528874085397
 DF-MP2 singlet pair energy [au]:              -0.625097523209
 DF-MP2 triplet pair energy [au]:              -0.153240961099
 DF-SCS-MP2 correlation energy [au]:           -0.801197348217
 DF-SCS-MP2 energy [au]:                     -159.330071433614
 DF-SOS-MP2 correlation energy [au]:           -0.812626780171
 DF-SOS-MP2 energy [au]:                     -159.341500865568
 DF-MP2 correlation energy [au]:               -0.778338484308
 DF-MP2 energy [au]:                         -159.307212569705

 Results in NAF basis:
 
 
 Reference energy [au]:                      -158.528874085397
 DF-MP2 singlet pair energy [au]:              -0.625055223649
 DF-MP2 triplet pair energy [au]:              -0.153256963908
 DF-SCS-MP2 correlation energy [au]:           -0.801151923015
 DF-SCS-MP2 energy [au]:                     -159.330026008412
 DF-SOS-MP2 correlation energy [au]:           -0.812571790744
 DF-SOS-MP2 energy [au]:                     -159.341445876141
 DF-MP2 correlation energy [au]:               -0.778312187558
 DF-MP2 energy [au]:                         -159.307186272954

 ************************ 2023-02-05 13:35:08 *************************
 Executing ccsd...

 Allocation of 220.0 Gbytes of memory...

 Direct DF-CCSD(T) calculation
 
 Convergence criterion:  1.0E-06
 
 Number of occupied/virtual/auxiliary orbitals:    14   350  1101
   6894.54 MB is the minimal memory requirement for (T)
   1573.93 MB is the minimal memory requirement for CCSD
 
 Reference energy [au]:            -158.528874085397
 T1 contribution [au]:                0.000000000000
 Same spin MP2 energy [au]:          -0.153248957061
 Opposite spin MP2 energy [au]:      -0.625076363507
 MP2 correlation energy [au]:        -0.778325320567
 Total MP2 energy [au]:            -159.307199405964
 MP2 correction [au]:                -0.010932068426
 
 
 CPU time [min]:     1.653                   Wall time [min]:     0.566
 
 Starting CCSD iterations...
 
                     Residual norm          Energy
 Iteration  1        0.253997607291     -159.343025301037
 Iteration  2        0.062948400647     -159.362189590993
 Iteration  3        0.018511659597     -159.364461015717
 Iteration  4        0.003748060885     -159.364475463034
 Iteration  5        0.000793323016     -159.364487192098
 Iteration  6        0.000221931553     -159.364491293734
 Iteration  7        0.000052460855     -159.364490843686
 Iteration  8        0.000014140064     -159.364491571445
 Iteration  9        0.000002817360     -159.364491528632
 
 CCSD iteration has converged in  9 steps.
    59038.48 MB memory was utilized by CCSD
 
 T1 diagnostic:      8.231E-03            D1 diagnostic:      1.428E-02
 
 T1 contribution [au]:                                  0.000000000000
 PPL energy contribution [au]:                          0.217870372851
 Scaled PPL energy contribution [au]:                   0.220949930366

 OS-PPL energy contribution [au]:                       0.191083934810
 Scaled OS-PPL energy contribution [au]:                0.194273857510
 SS-PPL energy contribution [au]:                       0.026786438041
 Scaled SS-PPL energy contribution [au]:                0.026882595127

 Opposite spin CCSD energy [au]:                       -0.690280179521
 Same spin CCSD energy [au]:                           -0.145352935754
 CCSD correlation energy [au]:                         -0.835633115275
 CCSD correlation energy + MP2 correction [au]:        -0.846565183701
 CCSD correlation energy + MP2 + PPL corr. [au]:       -0.843485626186
 Total CCSD energy [au]:                             -159.364507200672
 Total CCSD energy + MP2 correction [au]:            -159.375439269098
 Total CCSD energy + MP2 + PPL corr. [au]:           -159.372359711583
 
 CPU time [min]:   156.423                   Wall time [min]:     5.487
 
 Calculation of (T) correction...
 
 
     8827.33 MB memory is utilized for (T)

 0%       25%       50%       75%       100%
 |---------|---------|---------|---------| 
 
 (T) correction [au]:                                    -0.029525320425
 (T*) correction [au]:                                   -0.029940022111
 (T+) correction [au]:                                   -0.029932964617
 CCSD(T) correlation energy [au]:                        -0.865158435700
 CCSD(T) correlation energy + MP2 correction [au]:       -0.876090504126
 CCSD(T+) correlation en. + MP2 + PPL corr. [au]:        -0.873418590803
 Total CCSD(T) energy [au]:                            -159.394032521097
 Total CCSD(T) energy + MP2 correction [au]:           -159.404964589523
 Total CCSD(T+) energy + MP2 + PPL corr. [au]:         -159.402292676200
 
 CPU time [min]:   278.252                   Wall time [min]:     9.128
 
 ************************ 2023-02-05 13:44:16 *************************
                      Normal termination of mrcc.
 **********************************************************************
