 vasp.6.3.0 20Jan22 (build Apr  1 2022 16:44:48) complex                         
 executed on        HPECrayEX_GCC date 2023.02.18  05:04:55
 running  512 mpi-ranks, with    1 threads/rank
 distrk:  each k-point on  512 cores,    1 groups
 distr:  one band on NCORE=   8 cores,   64 groups


--------------------------------------------------------------------------------------------------------


 INCAR:
   SYSTEM = MgO-rocksalt
   ISMEAR = 0
   SIGMA = 0.05
   EDIFF = 1E-7
   ALGO = ALL
   ISTART = 0
   IBRION = 2
   NSW = 1000
   ISYM = 0
   ISIF = 2
   EDIFFG = -0.01
   DIPOL = 0.5 0.5 0.5
   IDIPOL = 3
   LDIPOL = .TRUE.
   GGA = MK
   LUSE_VDW = .TRUE.
   PARAM1 = 0.1234
   PARAM2 = 0.711357
   ZAB_VDW = -1.8867
   AGGAC = 0.0
   ENCUT = 520
   PREC = Accurate
   LASPH = .TRUE.
   LREAL = Auto
   ISPIN = 1
   NELM = 200
   NELMIN = 8
   NCORE = 8
   KPAR = 1
   LWAVE = .FALSE.
   LCHARG = .FALSE.

 POTCAR:    PAW_PBE C 08Apr2002                   
 POTCAR:    PAW_PBE H 15Jun2001                   
 POTCAR:    PAW_PBE Mg 13Apr2007                  
 POTCAR:    PAW_PBE O 08Apr2002                   
 -----------------------------------------------------------------------------
|                                                                             |
|               ----> ADVICE to this user running VASP <----                  |
|                                                                             |
|     You have switched on vdW-DFT.                                           |
|     This routine was written and supplied by Jiri Klimes. We recommend      |
|     that you carefully read and cite the following publications:            |
|       J. Klimes, D.R. Bowler, A. Michelides                                 |
|          J. Phys.: Cond Matt. 22 022201 (2010)                              |
|       J. Klimes, D.R. Bowler, A. Michelides                                 |
|          Phys. Rev. B. 83, 195131 (2011)                                    |
|     and references therein.                                                 |
|                                                                             |
 -----------------------------------------------------------------------------

 POTCAR:    PAW_PBE C 08Apr2002                   
   SHA256 =  253f7b50bb8d59471dbedb8285d89021f4a42ed1a2c5d38a03a736e69125dd95 C/POTCAR              
   COPYR  = (c) Copyright 08Apr2002 Georg Kresse                                                    
   COPYR  = This file is part of the software VASP. Any use, copying, and all other rights are regul
   COPYR  = If you do not have a valid VASP license, you may not use, copy or distribute this file. 
   VRHFIN =C: s2p2                                                                                  
   LEXCH  = PE                                                                                      
   EATOM  =   147.1560 eV,   10.8157 Ry                                                             
                                                                                                    
   TITEL  = PAW_PBE C 08Apr2002                                                                     
   LULTRA =        F    use ultrasoft PP ?                                                          
   IUNSCR =        1    unscreen: 0-lin 1-nonlin 2-no                                               
   RPACOR =    1.200    partial core radius                                                         
   POMASS =   12.011; ZVAL   =    4.000    mass and valenz                                          
   RCORE  =    1.500    outmost cutoff radius                                                       
   RWIGS  =    1.630; RWIGS  =    0.863    wigner-seitz radius (au A)                               
   ENMAX  =  400.000; ENMIN  =  300.000 eV                                                          
   ICORE  =        2    local potential                                                             
   LCOR   =        T    correct aug charges                                                         
   LPAW   =        T    paw PP                                                                      
   EAUG   =  644.873                                                                                
   DEXC   =    0.000                                                                                
   RMAX   =    1.529    core radius for proj-oper                                                   
   RAUG   =    1.300    factor for augmentation sphere                                              
   RDEP   =    1.501    radius for radial grids                                                     
   RDEPT  =    1.300    core radius for aug-charge                                                  
                                                                                                    
   Atomic configuration                                                                             
    4 entries                                                                                       
     n  l   j            E        occ.                                                              
     1  0  0.50      -273.3789   2.0000                                                             
     2  0  0.50       -13.7508   2.0000                                                             
     2  1  0.50        -5.2854   2.0000                                                             
     3  2  1.50        -5.4423   0.0000                                                             
   Description                                                                                      
     l       E           TYP  RCUT    TYP  RCUT                                                     
     0    -13.7508458     23  1.200                                                                 
     0     -8.2022199     23  1.200                                                                 
     1     -5.2854383     23  1.500                                                                 
     1     34.0145650     23  1.500                                                                 
     2     -5.4423304      7  1.500                                                                 
  local pseudopotential read in
  partial core-charges read in
  partial kinetic energy density read in
  atomic valenz-charges read in
  non local Contribution for L=           0  read in
    real space projection operators read in
  non local Contribution for L=           0  read in
    real space projection operators read in
  non local Contribution for L=           1  read in
    real space projection operators read in
  non local Contribution for L=           1  read in
    real space projection operators read in
    PAW grid and wavefunctions read in

   number of l-projection  operators is LMAX  =           4
   number of lm-projection operators is LMMAX =           8

 POTCAR:    PAW_PBE H 15Jun2001                   
   SHA256 =  030f79b5d3ab3cf0e668861823c8fb652ff669f3e15e46930bd03bfd63a607b6 H/POTCAR              
   COPYR  = (c) Copyright 15Jun2001 Georg Kresse                                                    
   COPYR  = This file is part of the software VASP. Any use, copying, and all other rights are regul
   COPYR  = If you do not have a valid VASP license, you may not use, copy or distribute this file. 
   VRHFIN =H: ultrasoft test                                                                        
   LEXCH  = PE                                                                                      
   EATOM  =    12.4884 eV,    0.9179 Ry                                                             
                                                                                                    
   TITEL  = PAW_PBE H 15Jun2001                                                                     
   LULTRA =        F    use ultrasoft PP ?                                                          
   IUNSCR =        0    unscreen: 0-lin 1-nonlin 2-no                                               
   RPACOR =    0.000    partial core radius                                                         
   POMASS =    1.000; ZVAL   =    1.000    mass and valenz                                          
   RCORE  =    1.100    outmost cutoff radius                                                       
   RWIGS  =    0.700; RWIGS  =    0.370    wigner-seitz radius (au A)                               
   ENMAX  =  250.000; ENMIN  =  200.000 eV                                                          
   RCLOC  =    0.701    cutoff for local pot                                                        
   LCOR   =        T    correct aug charges                                                         
   LPAW   =        T    paw PP                                                                      
   EAUG   =  400.000                                                                                
   RMAX   =    1.123    core radius for proj-oper                                                   
   RAUG   =    1.200    factor for augmentation sphere                                              
   RDEP   =    1.112    radius for radial grids                                                     
   RDEPT  =    0.926    core radius for aug-charge                                                  
                                                                                                    
   Atomic configuration                                                                             
    2 entries                                                                                       
     n  l   j            E        occ.                                                              
     1  0  0.50        -6.4927   1.0000                                                             
     2  1  0.50        -3.4015   0.0000                                                             
   Description                                                                                      
     l       E           TYP  RCUT    TYP  RCUT                                                     
     0     -6.4927494     23  1.100                                                                 
     0      6.8029130     23  1.100                                                                 
     1     -4.0817478     23  1.100                                                                 
  local pseudopotential read in
  atomic valenz-charges read in
  non local Contribution for L=           0  read in
    real space projection operators read in
  non local Contribution for L=           0  read in
    real space projection operators read in
  non local Contribution for L=           1  read in
    real space projection operators read in
    PAW grid and wavefunctions read in

   number of l-projection  operators is LMAX  =           3
   number of lm-projection operators is LMMAX =           5

 POTCAR:    PAW_PBE Mg 13Apr2007                  
   SHA256 =  a90315392b5cf46bd986ff2010bfd53a40dec98e36f8d1f6277412e9d0e81a9f Mg/POTCAR             
   COPYR  = (c) Copyright 13Apr2007 Georg Kresse                                                    
   COPYR  = This file is part of the software VASP. Any use, copying, and all other rights are regul
   COPYR  = If you do not have a valid VASP license, you may not use, copy or distribute this file. 
   VRHFIN =Mg: s2p0                                                                                 
   LEXCH  = PE                                                                                      
   EATOM  =    23.0369 eV,    1.6932 Ry                                                             
                                                                                                    
   TITEL  = PAW_PBE Mg 13Apr2007                                                                    
   LULTRA =        F    use ultrasoft PP ?                                                          
   IUNSCR =        1    unscreen: 0-lin 1-nonlin 2-no                                               
   RPACOR =    1.500    partial core radius                                                         
   POMASS =   24.305; ZVAL   =    2.000    mass and valenz                                          
   RCORE  =    2.000    outmost cutoff radius                                                       
   RWIGS  =    2.880; RWIGS  =    1.524    wigner-seitz radius (au A)                               
   ENMAX  =  200.000; ENMIN  =  100.000 eV                                                          
   RCLOC  =    1.506    cutoff for local pot                                                        
   LCOR   =        T    correct aug charges                                                         
   LPAW   =        T    paw PP                                                                      
   EAUG   =  454.734                                                                                
   DEXC   =    0.000                                                                                
   RMAX   =    2.045    core radius for proj-oper                                                   
   RAUG   =    1.300    factor for augmentation sphere                                              
   RDEP   =    2.025    radius for radial grids                                                     
   RDEPT  =    1.942    core radius for aug-charge                                                  
                                                                                                    
   Atomic configuration                                                                             
    6 entries                                                                                       
     n  l   j            E        occ.                                                              
     1  0  0.50     -1259.6230   2.0000                                                             
     2  0  0.50       -79.8442   2.0000                                                             
     2  1  1.50       -46.6121   6.0000                                                             
     3  0  0.50        -4.7055   2.0000                                                             
     3  1  0.50        -1.3660   0.0000                                                             
     3  2  1.50        -1.3606   0.0000                                                             
   Description                                                                                      
     l       E           TYP  RCUT    TYP  RCUT                                                     
     0     -4.7054661     23  2.000                                                                 
     0     27.2116520     23  2.000                                                                 
     1      1.3605826     23  2.000                                                                 
     1     27.2116520     23  2.000                                                                 
     2     -1.3605826     23  2.000                                                                 
  local pseudopotential read in
  partial core-charges read in
  partial kinetic energy density read in
  atomic valenz-charges read in
  non local Contribution for L=           0  read in
    real space projection operators read in
  non local Contribution for L=           0  read in
    real space projection operators read in
  non local Contribution for L=           1  read in
    real space projection operators read in
  non local Contribution for L=           1  read in
    real space projection operators read in
  non local Contribution for L=           2  read in
    real space projection operators read in
    PAW grid and wavefunctions read in

   number of l-projection  operators is LMAX  =           5
   number of lm-projection operators is LMMAX =          13

 POTCAR:    PAW_PBE O 08Apr2002                   
   SHA256 =  818f92134a0a090dccd8ba1447fa70422a3b330e708bb4f08108d8ae51209ddf O/POTCAR              
   COPYR  = (c) Copyright 08Apr2002 Georg Kresse                                                    
   COPYR  = This file is part of the software VASP. Any use, copying, and all other rights are regul
   COPYR  = If you do not have a valid VASP license, you may not use, copy or distribute this file. 
   VRHFIN =O: s2p4                                                                                  
   LEXCH  = PE                                                                                      
   EATOM  =   432.3788 eV,   31.7789 Ry                                                             
                                                                                                    
   TITEL  = PAW_PBE O 08Apr2002                                                                     
   LULTRA =        F    use ultrasoft PP ?                                                          
   IUNSCR =        1    unscreen: 0-lin 1-nonlin 2-no                                               
   RPACOR =    1.200    partial core radius                                                         
   POMASS =   16.000; ZVAL   =    6.000    mass and valenz                                          
   RCORE  =    1.520    outmost cutoff radius                                                       
   RWIGS  =    1.550; RWIGS  =    0.820    wigner-seitz radius (au A)                               
   ENMAX  =  400.000; ENMIN  =  300.000 eV                                                          
   ICORE  =        2    local potential                                                             
   LCOR   =        T    correct aug charges                                                         
   LPAW   =        T    paw PP                                                                      
   EAUG   =  605.392                                                                                
   DEXC   =    0.000                                                                                
   RMAX   =    1.553    core radius for proj-oper                                                   
   RAUG   =    1.300    factor for augmentation sphere                                              
   RDEP   =    1.550    radius for radial grids                                                     
   RDEPT  =    1.329    core radius for aug-charge                                                  
                                                                                                    
   Atomic configuration                                                                             
    4 entries                                                                                       
     n  l   j            E        occ.                                                              
     1  0  0.50      -514.6923   2.0000                                                             
     2  0  0.50       -23.9615   2.0000                                                             
     2  1  0.50        -9.0305   4.0000                                                             
     3  2  1.50        -9.5241   0.0000                                                             
   Description                                                                                      
     l       E           TYP  RCUT    TYP  RCUT                                                     
     0    -23.9615318     23  1.200                                                                 
     0     -9.5240782     23  1.200                                                                 
     1     -9.0304911     23  1.520                                                                 
     1      8.1634956     23  1.520                                                                 
     2     -9.5240782      7  1.500                                                                 
  local pseudopotential read in
  partial core-charges read in
  partial kinetic energy density read in
  kinetic energy density of atom read in
  atomic valenz-charges read in
  non local Contribution for L=           0  read in
    real space projection operators read in
  non local Contribution for L=           0  read in
    real space projection operators read in
  non local Contribution for L=           1  read in
    real space projection operators read in
  non local Contribution for L=           1  read in
    real space projection operators read in
    PAW grid and wavefunctions read in

   number of l-projection  operators is LMAX  =           4
   number of lm-projection operators is LMMAX =           8

 Optimization of the real space projectors (new method)

 maximal supplied QI-value         = 25.13
 optimisation between [QCUT,QGAM] = [ 11.56, 23.12] = [ 37.43,149.72] Ry 
 Optimized for a Real-space Cutoff    1.04 Angstroem

   l    n(q)    QCUT    max X(q) W(low)/X(q) W(high)/X(q)  e(spline) 
   0      7    11.561   115.676    0.20E-03    0.60E-03    0.21E-06
   0      7    11.561    87.132    0.20E-03    0.59E-03    0.21E-06
   1      7    11.561     4.429    0.23E-03    0.35E-03    0.15E-06
   1      7    11.561     2.733    0.18E-03    0.25E-03    0.12E-06
 Optimization of the real space projectors (new method)

 maximal supplied QI-value         = 34.20
 optimisation between [QCUT,QGAM] = [ 11.63, 23.26] = [ 37.87,151.49] Ry 
 Optimized for a Real-space Cutoff    1.21 Angstroem

   l    n(q)    QCUT    max X(q) W(low)/X(q) W(high)/X(q)  e(spline) 
   0      8    11.629    19.460    0.17E-03    0.34E-03    0.21E-06
   0      8    11.629    12.209    0.16E-03    0.33E-03    0.21E-06
   1      8    11.629     4.655    0.18E-03    0.16E-03    0.26E-06
 Optimization of the real space projectors (new method)

 maximal supplied QI-value         = 18.90
 optimisation between [QCUT,QGAM] = [ 11.53, 23.24] = [ 37.21,151.29] Ry 
 Optimized for a Real-space Cutoff    1.28 Angstroem

   l    n(q)    QCUT    max X(q) W(low)/X(q) W(high)/X(q)  e(spline) 
   0      9    11.527    28.265    0.62E-04    0.53E-04    0.73E-07
   0      9    11.527    10.429    0.52E-04    0.40E-04    0.58E-07
   1      8    11.527    13.073    0.98E-04    0.18E-03    0.86E-07
   1      8    11.527     9.625    0.79E-04    0.15E-03    0.74E-07
   2      8    11.527     4.652    0.22E-03    0.72E-04    0.47E-07
 Optimization of the real space projectors (new method)

 maximal supplied QI-value         = 24.76
 optimisation between [QCUT,QGAM] = [ 11.64, 23.27] = [ 37.91,151.63] Ry 
 Optimized for a Real-space Cutoff    1.14 Angstroem

   l    n(q)    QCUT    max X(q) W(low)/X(q) W(high)/X(q)  e(spline) 
   0      8    11.635    20.381    0.10E-03    0.33E-03    0.24E-06
   0      8    11.635    15.268    0.11E-03    0.35E-03    0.26E-06
   1      7    11.635     5.964    0.24E-03    0.31E-03    0.30E-06
   1      7    11.635     5.382    0.22E-03    0.25E-03    0.26E-06
 -----------------------------------------------------------------------------
|                                                                             |
|               ----> ADVICE to this user running VASP <----                  |
|                                                                             |
|     You enforced a specific xc type in the INCAR file but a different       |
|     type was found in the POTCAR file.                                      |
|     I HOPE YOU KNOW WHAT YOU ARE DOING!                                     |
|                                                                             |
 -----------------------------------------------------------------------------

  PAW_PBE C 08Apr2002                   :
 energy of atom  1       EATOM= -147.1560
 kinetic energy error for atom=    0.0071 (will be added to EATOM!!)
  PAW_PBE H 15Jun2001                   :
 energy of atom  2       EATOM=  -12.4884
 kinetic energy error for atom=    0.0014 (will be added to EATOM!!)
  PAW_PBE Mg 13Apr2007                  :
 energy of atom  3       EATOM=  -23.0369
 kinetic energy error for atom=    0.0000 (will be added to EATOM!!)
  PAW_PBE O 08Apr2002                   :
 energy of atom  4       EATOM= -432.3788
 kinetic energy error for atom=    0.0208 (will be added to EATOM!!)


 POSCAR:  C  H Mg  O
  positions in direct lattice
  No initial velocities read in
 exchange correlation table for  LEXCH =       43
   RHO(1)=    0.500       N(1)  =     2000
   RHO(2)=  100.500       N(2)  =     4000



--------------------------------------------------------------------------------------------------------


 ion  position               nearest neighbor table
   1  0.480  0.471  0.789-   7 1.09   2 1.40   6 1.40
   2  0.562  0.461  0.788-   8 1.09   1 1.40   3 1.40
   3  0.595  0.384  0.789-   9 1.09   4 1.40   2 1.40
   4  0.545  0.318  0.793-  10 1.09   3 1.40   5 1.40
   5  0.462  0.328  0.794-  11 1.09   6 1.40   4 1.40
   6  0.430  0.404  0.792-  12 1.09   5 1.40   1 1.40
   7  0.454  0.530  0.788-   1 1.09
   8  0.601  0.512  0.785-   2 1.09
   9  0.659  0.376  0.788-   3 1.09
  10  0.570  0.259  0.793-   4 1.09
  11  0.424  0.277  0.796-   5 1.09
  12  0.366  0.412  0.793-   6 1.09
  13  0.125  0.000  0.352- 141 2.11 143 2.11 144 2.11 160 2.11 183 2.11  16 2.98  32 2.98  55 2.98
                            15 2.98  54 2.98  30 2.98  70 2.98  14 2.98
  14  0.250  0.125  0.352- 142 2.11 143 2.11 144 2.11 152 2.11 159 2.11  16 2.98  24 2.98  31 2.98
                            15 2.98  29 2.98  21 2.98  37 2.98  13 2.98
  15  0.125  0.125  0.451- 143 2.11 142 2.11 141 2.11 149 2.11 158 2.11 147 2.12  21 2.98  30 2.98
                            13 2.98  14 2.98  32 2.98  40 2.98  24 2.98  16 2.98  34 2.99  25 2.99
  16  0.250  0.000  0.451- 144 2.11 142 2.11 141 2.11 157 2.11 182 2.11 148 2.12  29 2.98  54 2.98
                            13 2.98  14 2.98  55 2.98  71 2.98  31 2.98  15 2.98  58 2.99  33 2.99
  17  0.125  0.000  0.550- 147 2.11 148 2.11 164 2.11 187 2.11 141 2.12 145 2.14  36 2.98  59 2.98
                            19 2.98  20 2.98  34 2.98  74 2.98  18 2.98  58 2.98  16 2.99  15 2.99
  18  0.250  0.125  0.550- 147 2.11 148 2.11 156 2.11 163 2.11 142 2.12 146 2.14  28 2.98  35 2.98
                            19 2.98  20 2.98  25 2.98  41 2.98  17 2.98  33 2.98  16 2.99  15 2.99
  19  0.125  0.125  0.648- 147 2.10 146 2.11 145 2.11 153 2.11 162 2.11  18 2.98  25 2.98  34 2.98
                            17 2.98  20 2.98  36 2.98  44 2.98  28 2.98
  20  0.250  0.000  0.648- 148 2.10 146 2.11 145 2.11 161 2.11 186 2.11  18 2.98  33 2.98  58 2.98
                            17 2.98  19 2.98  59 2.98  75 2.98  35 2.98
  21  0.125  0.250  0.352- 149 2.11 143 2.11 151 2.11 152 2.11 168 2.11  23 2.98  24 2.98  40 2.98
                            15 2.98  30 2.98  38 2.98  14 2.98  22 2.98
  22  0.250  0.375  0.352- 150 2.11 151 2.11 152 2.11 167 2.11 176 2.11  24 2.98  39 2.98  48 2.98
                            23 2.98  45 2.98  37 2.98  61 2.98  21 2.98
  23  0.125  0.375  0.451- 151 2.11 150 2.11 149 2.11 166 2.11 173 2.11 155 2.12  38 2.98  45 2.98
                            21 2.98  22 2.98  48 2.98  64 2.98  40 2.98  24 2.98  49 2.99  42 2.99
  24  0.250  0.250  0.451- 152 2.11 149 2.11 150 2.11 142 2.11 165 2.11 156 2.12  22 2.98  37 2.98
                            14 2.98  21 2.98  15 2.98  39 2.98  23 2.98  31 2.98  26 2.99  41 2.99
  25  0.125  0.250  0.550- 147 2.11 155 2.11 156 2.11 172 2.11 149 2.12 153 2.14  28 2.98  44 2.98
                            19 2.98  27 2.98  42 2.98  18 2.98  26 2.98  34 2.98  23 2.99  24 2.99
  26  0.250  0.375  0.550- 155 2.11 156 2.11 171 2.11 180 2.11 150 2.12 154 2.14  43 2.98  52 2.98
                            27 2.98  28 2.98  41 2.98  65 2.98  25 2.98  49 2.98  24 2.99  23 2.99
  27  0.125  0.375  0.648- 155 2.10 154 2.11 153 2.11 170 2.11 177 2.11  26 2.98  42 2.98  49 2.98
                            25 2.98  28 2.98  52 2.98  68 2.98  44 2.98
  28  0.250  0.250  0.648- 156 2.10 153 2.11 154 2.11 146 2.11 169 2.11  25 2.98  26 2.98  41 2.98
                            18 2.98  35 2.98  19 2.98  43 2.98  27 2.98
  29  0.375  0.000  0.352- 157 2.11 144 2.11 159 2.11 199 2.11 224 2.11  31 2.98  71 2.98  96 2.98
                            16 2.98  94 2.98  54 2.98 134 2.98  14 2.98
  30  0.000  0.125  0.352- 158 2.11 143 2.11 160 2.11 168 2.11 223 2.11  32 2.98  40 2.98  95 2.98
                            15 2.98  93 2.98  13 2.98 101 2.98  21 2.98
  31  0.375  0.125  0.451- 159 2.11 157 2.11 142 2.11 165 2.11 222 2.11 163 2.12  37 2.98  94 2.98
                            14 2.98  29 2.98  96 2.98 104 2.98  24 2.98  16 2.98  98 2.99  41 2.99
  32  0.000  0.000  0.451- 160 2.11 158 2.11 141 2.11 198 2.11 221 2.11 164 2.12  70 2.98  93 2.98
                            13 2.98  30 2.98  95 2.98 135 2.98  15 2.98  55 2.98  97 2.99  74 2.99
  33  0.375  0.000  0.550- 148 2.11 163 2.11 203 2.11 228 2.11 157 2.12 161 2.14  75 2.98 100 2.98
                            20 2.98  35 2.98  58 2.98 138 2.98  18 2.98  98 2.98  71 2.99  16 2.99
  34  0.000  0.125  0.550- 147 2.11 164 2.11 172 2.11 227 2.11 158 2.12 162 2.14  44 2.98  99 2.98
                            19 2.98  36 2.98  17 2.98 105 2.98  25 2.98  97 2.98  40 2.99  32 2.99
  35  0.375  0.125  0.648- 163 2.10 161 2.11 146 2.11 169 2.11 226 2.11  33 2.98  41 2.98  98 2.98
                            18 2.98  20 2.98 100 2.98 108 2.98  28 2.98
  36  0.000  0.000  0.648- 164 2.10 162 2.11 145 2.11 202 2.11 225 2.11  34 2.98  74 2.98  97 2.98
                            17 2.98  59 2.98  99 2.98 139 2.98  19 2.98
  37  0.375  0.250  0.352- 165 2.11 159 2.11 152 2.11 167 2.11 232 2.11  31 2.98  39 2.98 104 2.98
                            24 2.98  94 2.98 102 2.98  22 2.98  14 2.98
  38  0.000  0.375  0.352- 166 2.11 151 2.11 168 2.11 192 2.11 231 2.11  40 2.98  64 2.98 103 2.98
                            23 2.98 101 2.98  45 2.98 125 2.98  21 2.98
  39  0.375  0.375  0.451- 167 2.11 165 2.11 150 2.11 189 2.11 230 2.11 171 2.12  61 2.98 102 2.98
                            22 2.98  37 2.98 104 2.98 128 2.98  24 2.98  48 2.98 106 2.99  65 2.99
  40  0.000  0.250  0.451- 168 2.11 158 2.11 166 2.11 149 2.11 229 2.11 172 2.12  38 2.98 101 2.98
                            21 2.98  30 2.98  15 2.98 103 2.98  23 2.98  95 2.98  42 2.99 105 2.99
  41  0.375  0.250  0.550- 156 2.11 163 2.11 171 2.11 236 2.11 165 2.12 169 2.14  43 2.98 108 2.98
                            28 2.98  35 2.98 106 2.98  26 2.98  18 2.98  98 2.98  39 2.99  31 2.99
  42  0.000  0.375  0.550- 155 2.11 172 2.11 196 2.11 235 2.11 166 2.12 170 2.14  68 2.98 107 2.98
                            27 2.98  44 2.98  49 2.98 129 2.98  25 2.98 105 2.98  64 2.99  23 2.99
  43  0.375  0.375  0.648- 171 2.10 169 2.11 154 2.11 193 2.11 234 2.11  41 2.98  65 2.98 106 2.98
                            26 2.98  52 2.98 108 2.98 132 2.98  28 2.98
  44  0.000  0.250  0.648- 172 2.10 162 2.11 170 2.11 153 2.11 233 2.11  34 2.98  42 2.98 105 2.98
                            25 2.98  99 2.98  19 2.98 107 2.98  27 2.98
  45  0.125  0.500  0.352- 173 2.11 151 2.11 175 2.11 176 2.11 192 2.11  47 2.98  48 2.98  64 2.98
                            23 2.98  38 2.98  62 2.98  46 2.98  22 2.98
  46  0.250  0.625  0.352- 174 2.11 175 2.11 176 2.11 184 2.11 191 2.11  48 2.98  56 2.98  63 2.98
                            47 2.98  61 2.98  53 2.98  69 2.98  45 2.98
  47  0.125  0.625  0.451- 175 2.11 174 2.11 173 2.11 181 2.11 190 2.11 179 2.12  53 2.98  62 2.98
                            45 2.98  46 2.98  64 2.98  72 2.98  56 2.98  48 2.98  66 2.99  57 2.99
  48  0.250  0.500  0.451- 176 2.11 173 2.11 174 2.11 150 2.11 189 2.11 180 2.12  46 2.98  61 2.98
                            22 2.98  45 2.98  23 2.98  63 2.98  39 2.98  47 2.98  49 2.99  65 2.99
  49  0.125  0.500  0.550- 155 2.11 179 2.11 180 2.11 196 2.11 173 2.12 177 2.14  52 2.98  68 2.98
                            27 2.98  51 2.98  66 2.98  50 2.98  26 2.98  42 2.98  23 2.99  47 2.99
  50  0.250  0.625  0.550- 179 2.11 180 2.11 188 2.11 195 2.11 174 2.12 178 2.14  60 2.98  67 2.98
                            51 2.98  52 2.98  57 2.98  73 2.98  49 2.98  65 2.98  48 2.99  47 2.99
  51  0.125  0.625  0.648- 179 2.10 178 2.11 177 2.11 185 2.11 194 2.11  50 2.98  57 2.98  66 2.98
                            49 2.98  52 2.98  68 2.98  76 2.98  60 2.98
  52  0.250  0.500  0.648- 180 2.10 177 2.11 178 2.11 154 2.11 193 2.11  49 2.98  50 2.98  65 2.98
                            26 2.98  51 2.98  27 2.98  67 2.98  43 2.98
  53  0.125  0.750  0.352- 181 2.11 175 2.11 183 2.11 184 2.11 200 2.11  55 2.98  56 2.98  72 2.98
                            47 2.98  62 2.98  70 2.98  46 2.98  54 2.98
  54  0.250  0.875  0.352- 182 2.11 144 2.11 183 2.11 184 2.11 199 2.11  55 2.98  56 2.98  71 2.98
                            16 2.98  29 2.98  69 2.98  53 2.98  13 2.98
  55  0.125  0.875  0.451- 183 2.11 181 2.11 182 2.11 141 2.11 198 2.11 187 2.12  54 2.98  70 2.98
                            13 2.98  53 2.98  16 2.98  72 2.98  32 2.98  56 2.98  57 2.99  74 2.99
  56  0.250  0.750  0.451- 184 2.11 181 2.11 182 2.11 174 2.11 197 2.11 188 2.12  54 2.98  69 2.98
                            46 2.98  53 2.98  47 2.98  71 2.98  55 2.98  63 2.98  58 2.99  73 2.99
  57  0.125  0.750  0.550- 179 2.11 187 2.11 188 2.11 204 2.11 181 2.12 185 2.14  60 2.98  76 2.98
                            51 2.98  59 2.98  74 2.98  50 2.98  58 2.98  66 2.98  55 2.99  56 2.99
  58  0.250  0.875  0.550- 148 2.11 187 2.11 188 2.11 203 2.11 182 2.12 186 2.14  60 2.98  75 2.98
                            20 2.98  59 2.98  73 2.98  57 2.98  17 2.98  33 2.98  16 2.99  55 2.99
  59  0.125  0.875  0.648- 187 2.10 185 2.11 186 2.11 145 2.11 202 2.11  57 2.98  58 2.98  74 2.98
                            17 2.98  60 2.98  20 2.98  76 2.98  36 2.98
  60  0.250  0.750  0.648- 188 2.10 185 2.11 186 2.11 178 2.11 201 2.11  57 2.98  58 2.98  73 2.98
                            50 2.98  67 2.98  51 2.98  75 2.98  59 2.98
  61  0.375  0.500  0.352- 189 2.11 176 2.11 167 2.11 191 2.11 256 2.11  48 2.98  63 2.98 128 2.98
                            39 2.98 102 2.98 126 2.98  22 2.98  46 2.98
  62  0.000  0.625  0.352- 190 2.11 175 2.11 192 2.11 200 2.11 255 2.11  64 2.98  72 2.98 127 2.98
                            47 2.98 125 2.98  45 2.98 133 2.98  53 2.98
  63  0.375  0.625  0.451- 191 2.11 189 2.11 174 2.11 197 2.11 254 2.11 195 2.12  69 2.98 126 2.98
                            46 2.98  61 2.98 128 2.98 136 2.98  56 2.98  48 2.98 130 2.99  73 2.99
  64  0.000  0.500  0.451- 192 2.11 173 2.11 190 2.11 166 2.11 253 2.11 196 2.12  62 2.98 125 2.98
                            38 2.98  45 2.98  47 2.98 127 2.98  23 2.98 103 2.98  66 2.99 129 2.99
  65  0.375  0.500  0.550- 171 2.11 180 2.11 195 2.11 260 2.11 189 2.12 193 2.14  67 2.98 132 2.98
                            43 2.98  52 2.98 130 2.98  26 2.98  50 2.98 106 2.98  63 2.99  39 2.99
  66  0.000  0.625  0.550- 179 2.11 196 2.11 204 2.11 259 2.11 190 2.12 194 2.14  76 2.98 131 2.98
                            51 2.98  68 2.98  49 2.98 137 2.98  57 2.98 129 2.98  72 2.99  64 2.99
  67  0.375  0.625  0.648- 195 2.10 193 2.11 178 2.11 201 2.11 258 2.11  65 2.98  73 2.98 130 2.98
                            50 2.98  52 2.98 132 2.98 140 2.98  60 2.98
  68  0.000  0.500  0.648- 196 2.10 177 2.11 194 2.11 170 2.11 257 2.11  49 2.98  66 2.98 129 2.98
                            42 2.98 107 2.98  51 2.98 131 2.98  27 2.98
  69  0.375  0.750  0.352- 197 2.11 191 2.11 184 2.11 199 2.11 264 2.11  63 2.98  71 2.98 136 2.98
                            56 2.98 126 2.98 134 2.98  54 2.98  46 2.98
  70  0.000  0.875  0.352- 198 2.11 183 2.11 160 2.11 200 2.11 263 2.11  55 2.98  72 2.98 135 2.98
                            32 2.98  93 2.98 133 2.98  13 2.98  53 2.98
  71  0.375  0.875  0.451- 199 2.11 182 2.11 197 2.11 157 2.11 262 2.11 203 2.12  69 2.98 134 2.98
                            29 2.98  54 2.98  56 2.98 136 2.98  16 2.98  96 2.98  73 2.99 138 2.99
  72  0.000  0.750  0.451- 200 2.11 190 2.11 198 2.11 181 2.11 261 2.11 204 2.12  70 2.98 133 2.98
                            53 2.98  62 2.98  47 2.98 135 2.98  55 2.98 127 2.98  74 2.99 137 2.99
  73  0.375  0.750  0.550- 188 2.11 195 2.11 203 2.11 268 2.11 197 2.12 201 2.14  75 2.98 140 2.98
                            60 2.98  67 2.98 138 2.98  58 2.98  50 2.98 130 2.98  71 2.99  63 2.99
  74  0.000  0.875  0.550- 164 2.11 187 2.11 204 2.11 267 2.11 198 2.12 202 2.14  76 2.98 139 2.98
                            36 2.98  59 2.98 137 2.98  17 2.98  57 2.98  97 2.98  72 2.99  32 2.99
  75  0.375  0.875  0.648- 203 2.10 186 2.11 201 2.11 161 2.11 266 2.11  58 2.98  73 2.98 138 2.98
                            33 2.98 100 2.98  60 2.98 140 2.98  20 2.98
  76  0.000  0.750  0.648- 204 2.10 194 2.11 202 2.11 185 2.11 265 2.11  66 2.98  74 2.98 137 2.98
                            57 2.98 131 2.98  51 2.98 139 2.98  59 2.98
  77  0.625  0.000  0.352- 205 2.11 207 2.11 208 2.11 224 2.11 247 2.11  80 2.98  96 2.98 119 2.98
                            79 2.98 118 2.98  94 2.98 134 2.98  78 2.98
  78  0.750  0.125  0.352- 206 2.11 207 2.11 208 2.11 216 2.11 223 2.11  80 2.98  88 2.98  95 2.98
                            79 2.98  93 2.98  85 2.98 101 2.98  77 2.98
  79  0.625  0.125  0.451- 207 2.11 206 2.11 205 2.11 213 2.11 222 2.11 211 2.12  85 2.98  94 2.98
                            77 2.98  78 2.98  96 2.98 104 2.98  88 2.98  80 2.98  98 2.99  89 2.99
  80  0.750  0.000  0.451- 208 2.11 206 2.11 205 2.11 221 2.11 246 2.11 212 2.12  93 2.98 118 2.98
                            77 2.98  78 2.98 119 2.98 135 2.98  95 2.98  79 2.98 122 2.99  97 2.99
  81  0.625  0.000  0.550- 211 2.11 212 2.11 228 2.11 251 2.11 205 2.12 209 2.14 100 2.98 123 2.98
                            83 2.98  84 2.98  98 2.98 138 2.98  82 2.98 122 2.98  80 2.99  79 2.99
  82  0.750  0.125  0.550- 211 2.11 212 2.11 220 2.11 227 2.11 206 2.12 210 2.14  92 2.98  99 2.98
                            83 2.98  84 2.98  89 2.98 105 2.98  81 2.98  97 2.98  80 2.99  79 2.99
  83  0.625  0.125  0.648- 211 2.10 210 2.11 209 2.11 217 2.11 226 2.11  82 2.98  89 2.98  98 2.98
                            81 2.98  84 2.98 100 2.98 108 2.98  92 2.98
  84  0.750  0.000  0.648- 212 2.10 210 2.11 209 2.11 225 2.11 250 2.11  82 2.98  97 2.98 122 2.98
                            81 2.98  83 2.98 123 2.98 139 2.98  99 2.98
  85  0.625  0.250  0.352- 213 2.11 207 2.11 215 2.11 216 2.11 232 2.11  87 2.98  88 2.98 104 2.98
                            79 2.98  94 2.98 102 2.98  78 2.98  86 2.98
  86  0.750  0.375  0.352- 214 2.11 215 2.11 216 2.11 231 2.11 240 2.11  88 2.98 103 2.98 112 2.98
                            87 2.98 109 2.98 101 2.98 125 2.98  85 2.98
  87  0.625  0.375  0.451- 215 2.11 214 2.11 213 2.11 230 2.11 237 2.11 219 2.12 102 2.98 109 2.98
                            85 2.98  86 2.98 112 2.98 128 2.98 104 2.98  88 2.98 113 2.99 106 2.99
  88  0.750  0.250  0.451- 216 2.11 213 2.11 214 2.11 206 2.11 229 2.11 220 2.12  86 2.98 101 2.98
                            78 2.98  85 2.98  79 2.98 103 2.98  87 2.98  95 2.98  90 2.99 105 2.99
  89  0.625  0.250  0.550- 211 2.11 219 2.11 220 2.11 236 2.11 213 2.12 217 2.14  92 2.98 108 2.98
                            83 2.98  91 2.98 106 2.98  82 2.98  90 2.98  98 2.98  87 2.99  88 2.99
  90  0.750  0.375  0.550- 219 2.11 220 2.11 235 2.11 244 2.11 214 2.12 218 2.14 107 2.98 116 2.98
                            91 2.98  92 2.98 105 2.98 129 2.98  89 2.98 113 2.98  88 2.99  87 2.99
  91  0.625  0.375  0.648- 219 2.10 218 2.11 217 2.11 234 2.11 241 2.11  90 2.98 106 2.98 113 2.98
                            89 2.98  92 2.98 116 2.98 132 2.98 108 2.98
  92  0.750  0.250  0.648- 220 2.10 217 2.11 218 2.11 210 2.11 233 2.11  89 2.98  90 2.98 105 2.98
                            82 2.98  99 2.98  83 2.98 107 2.98  91 2.98
  93  0.875  0.000  0.352- 221 2.11 208 2.11 160 2.11 223 2.11 263 2.11  80 2.98  95 2.98 135 2.98
                            32 2.98  70 2.98 118 2.98  78 2.98  30 2.98
  94  0.500  0.125  0.352- 222 2.11 207 2.11 159 2.11 224 2.11 232 2.11  79 2.98  96 2.98 104 2.98
                            31 2.98  85 2.98  37 2.98  77 2.98  29 2.98
  95  0.875  0.125  0.451- 223 2.11 206 2.11 221 2.11 158 2.11 229 2.11 227 2.12  93 2.98 101 2.98
                            30 2.98  78 2.98  40 2.98  32 2.98  80 2.98  88 2.98  34 2.99 105 2.99
  96  0.500  0.000  0.451- 224 2.11 205 2.11 222 2.11 157 2.11 262 2.11 228 2.12  94 2.98 134 2.98
                            29 2.98  77 2.98 119 2.98  31 2.98  79 2.98  71 2.98  33 2.99 138 2.99
  97  0.875  0.000  0.550- 164 2.11 212 2.11 227 2.11 267 2.11 221 2.12 225 2.14  99 2.98 139 2.98
                            36 2.98  84 2.98 122 2.98  82 2.98  34 2.98  74 2.98 135 2.99  95 2.99
  98  0.500  0.125  0.550- 163 2.11 211 2.11 228 2.11 236 2.11 222 2.12 226 2.14 100 2.98 108 2.98
                            35 2.98  83 2.98  41 2.98  81 2.98  33 2.98  89 2.98 104 2.99  31 2.99
  99  0.875  0.125  0.648- 227 2.10 210 2.11 225 2.11 162 2.11 233 2.11  82 2.98  97 2.98 105 2.98
                            34 2.98  92 2.98  44 2.98  36 2.98  84 2.98
 100  0.500  0.000  0.648- 228 2.10 209 2.11 226 2.11 161 2.11 266 2.11  81 2.98  98 2.98 138 2.98
                            33 2.98  75 2.98 123 2.98  35 2.98  83 2.98
 101  0.875  0.250  0.352- 229 2.11 216 2.11 223 2.11 168 2.11 231 2.11  88 2.98  95 2.98 103 2.98
                            40 2.98  38 2.98  30 2.98  78 2.98  86 2.98
 102  0.500  0.375  0.352- 230 2.11 215 2.11 167 2.11 232 2.11 256 2.11  87 2.98 104 2.98 128 2.98
                            39 2.98  61 2.98 109 2.98  85 2.98  37 2.98
 103  0.875  0.375  0.451- 231 2.11 214 2.11 229 2.11 166 2.11 253 2.11 235 2.12 101 2.98 125 2.98
                            38 2.98  86 2.98 112 2.98  40 2.98  88 2.98  64 2.98  42 2.99 129 2.99
 104  0.500  0.250  0.451- 232 2.11 213 2.11 222 2.11 230 2.11 165 2.11 236 2.12  94 2.98 102 2.98
                            37 2.98  85 2.98  39 2.98  79 2.98  31 2.98  87 2.98  89 2.99 106 2.99
 105  0.875  0.250  0.550- 172 2.11 220 2.11 227 2.11 235 2.11 229 2.12 233 2.14  99 2.98 107 2.98
                            44 2.98  92 2.98  34 2.98  82 2.98  90 2.98  42 2.98 103 2.99  88 2.99
 106  0.500  0.375  0.550- 171 2.11 219 2.11 236 2.11 260 2.11 230 2.12 234 2.14 108 2.98 132 2.98
                            43 2.98  91 2.98 113 2.98  89 2.98  41 2.98  65 2.98 128 2.99 104 2.99
 107  0.875  0.375  0.648- 235 2.10 218 2.11 233 2.11 170 2.11 257 2.11  90 2.98 105 2.98 129 2.98
                            42 2.98  68 2.98 116 2.98  44 2.98  92 2.98
 108  0.500  0.250  0.648- 236 2.10 217 2.11 226 2.11 234 2.11 169 2.11  89 2.98  98 2.98 106 2.98
                            41 2.98  91 2.98  43 2.98  83 2.98  35 2.98
 109  0.625  0.500  0.352- 237 2.11 215 2.11 239 2.11 240 2.11 256 2.11 111 2.98 112 2.98 128 2.98
                            87 2.98 102 2.98 126 2.98 110 2.98  86 2.98
 110  0.750  0.625  0.352- 238 2.11 239 2.11 240 2.11 248 2.11 255 2.11 112 2.98 120 2.98 127 2.98
                           111 2.98 125 2.98 117 2.98 133 2.98 109 2.98
 111  0.625  0.625  0.451- 239 2.11 238 2.11 237 2.11 245 2.11 254 2.11 243 2.12 117 2.98 126 2.98
                           109 2.98 110 2.98 128 2.98 136 2.98 120 2.98 112 2.98 130 2.99 121 2.99
 112  0.750  0.500  0.451- 240 2.11 237 2.11 238 2.11 214 2.11 253 2.11 244 2.12 110 2.98 125 2.98
                            86 2.98 109 2.98  87 2.98 127 2.98 103 2.98 111 2.98 113 2.99 129 2.99
 113  0.625  0.500  0.550- 219 2.11 243 2.11 244 2.11 260 2.11 237 2.12 241 2.14 116 2.98 132 2.98
                            91 2.98 115 2.98 130 2.98 114 2.98  90 2.98 106 2.98  87 2.99 111 2.99
 114  0.750  0.625  0.550- 243 2.11 244 2.11 252 2.11 259 2.11 238 2.12 242 2.14 124 2.98 131 2.98
                           115 2.98 116 2.98 121 2.98 137 2.98 113 2.98 129 2.98 112 2.99 111 2.99
 115  0.625  0.625  0.648- 243 2.10 242 2.11 241 2.11 249 2.11 258 2.11 114 2.98 121 2.98 130 2.98
                           113 2.98 116 2.98 132 2.98 140 2.98 124 2.98
 116  0.750  0.500  0.648- 244 2.10 241 2.11 242 2.11 218 2.11 257 2.11 113 2.98 114 2.98 129 2.98
                            90 2.98 115 2.98  91 2.98 131 2.98 107 2.98
 117  0.625  0.750  0.352- 245 2.11 239 2.11 247 2.11 248 2.11 264 2.11 119 2.98 120 2.98 136 2.98
                           111 2.98 126 2.98 134 2.98 110 2.98 118 2.98
 118  0.750  0.875  0.352- 246 2.11 208 2.11 247 2.11 248 2.11 263 2.11 119 2.98 120 2.98 135 2.98
                            80 2.98  93 2.98 133 2.98 117 2.98  77 2.98
 119  0.625  0.875  0.451- 247 2.11 245 2.11 246 2.11 205 2.11 262 2.11 251 2.12 118 2.98 134 2.98
                            77 2.98 117 2.98  80 2.98 136 2.98  96 2.98 120 2.98 121 2.99 138 2.99
 120  0.750  0.750  0.451- 248 2.11 245 2.11 246 2.11 238 2.11 261 2.11 252 2.12 118 2.98 133 2.98
                           110 2.98 117 2.98 111 2.98 135 2.98 119 2.98 127 2.98 122 2.99 137 2.99
 121  0.625  0.750  0.550- 243 2.11 251 2.11 252 2.11 268 2.11 245 2.12 249 2.14 124 2.98 140 2.98
                           115 2.98 123 2.98 138 2.98 114 2.98 122 2.98 130 2.98 119 2.99 120 2.99
 122  0.750  0.875  0.550- 212 2.11 251 2.11 252 2.11 267 2.11 246 2.12 250 2.14 124 2.98 139 2.98
                            84 2.98 123 2.98 137 2.98 121 2.98  81 2.98  97 2.98  80 2.99 119 2.99
 123  0.625  0.875  0.648- 251 2.10 249 2.11 250 2.11 209 2.11 266 2.11 121 2.98 122 2.98 138 2.98
                            81 2.98 124 2.98  84 2.98 140 2.98 100 2.98
 124  0.750  0.750  0.648- 252 2.10 249 2.11 250 2.11 242 2.11 265 2.11 121 2.98 122 2.98 137 2.98
                           114 2.98 131 2.98 115 2.98 139 2.98 123 2.98
 125  0.875  0.500  0.352- 253 2.11 231 2.11 240 2.11 192 2.11 255 2.11 103 2.98 112 2.98 127 2.98
                            64 2.98 110 2.98  38 2.98  86 2.98  62 2.98
 126  0.500  0.625  0.352- 254 2.11 239 2.11 191 2.11 256 2.11 264 2.11 111 2.98 128 2.98 136 2.98
                            63 2.98 117 2.98  69 2.98 109 2.98  61 2.98
 127  0.875  0.625  0.451- 255 2.11 238 2.11 253 2.11 190 2.11 261 2.11 259 2.12 125 2.98 133 2.98
                            62 2.98 110 2.98  72 2.98  64 2.98 112 2.98 120 2.98  66 2.99 137 2.99
 128  0.500  0.500  0.451- 256 2.11 230 2.11 237 2.11 254 2.11 189 2.11 260 2.12 109 2.98 126 2.98
                            61 2.98 102 2.98 111 2.98  87 2.98  39 2.98  63 2.98  65 2.99 130 2.99
 129  0.875  0.500  0.550- 196 2.11 235 2.11 244 2.11 259 2.11 253 2.12 257 2.14 116 2.98 131 2.98
                            68 2.98 107 2.98  42 2.98  90 2.98  66 2.98 114 2.98 127 2.99 112 2.99
 130  0.500  0.625  0.550- 195 2.11 243 2.11 260 2.11 268 2.11 254 2.12 258 2.14 132 2.98 140 2.98
                            67 2.98 115 2.98  73 2.98 113 2.98  65 2.98 121 2.98 136 2.99  63 2.99
 131  0.875  0.625  0.648- 259 2.10 242 2.11 257 2.11 194 2.11 265 2.11 114 2.98 129 2.98 137 2.98
                            66 2.98 124 2.98  76 2.98  68 2.98 116 2.98
 132  0.500  0.500  0.648- 260 2.10 234 2.11 241 2.11 258 2.11 193 2.11 106 2.98 113 2.98 130 2.98
                            65 2.98  67 2.98 115 2.98  91 2.98  43 2.98
 133  0.875  0.750  0.352- 261 2.11 248 2.11 255 2.11 200 2.11 263 2.11 120 2.98 127 2.98 135 2.98
                            72 2.98  70 2.98  62 2.98 110 2.98 118 2.98
 134  0.500  0.875  0.352- 262 2.11 224 2.11 247 2.11 199 2.11 264 2.11  96 2.98 119 2.98 136 2.98
                            71 2.98 117 2.98  29 2.98  77 2.98  69 2.98
 135  0.875  0.875  0.451- 263 2.11 221 2.11 246 2.11 261 2.11 198 2.11 267 2.12 118 2.98 133 2.98
                            70 2.98  93 2.98 120 2.98  80 2.98  32 2.98  72 2.98  74 2.99 137 2.99
 136  0.500  0.750  0.451- 264 2.11 245 2.11 254 2.11 262 2.11 197 2.11 268 2.12 126 2.98 134 2.98
                            69 2.98 117 2.98  71 2.98 111 2.98  63 2.98 119 2.98 121 2.99 138 2.99
 137  0.875  0.750  0.550- 204 2.11 252 2.11 259 2.11 267 2.11 261 2.12 265 2.14 131 2.98 139 2.98
                            76 2.98 124 2.98  66 2.98 114 2.98 122 2.98  74 2.98 135 2.99 120 2.99
 138  0.500  0.875  0.550- 203 2.11 228 2.11 251 2.11 268 2.11 262 2.12 266 2.14 123 2.98 140 2.98
                            75 2.98 100 2.98  33 2.98  81 2.98  73 2.98 121 2.98 136 2.99 119 2.99
 139  0.875  0.875  0.648- 267 2.10 225 2.11 250 2.11 265 2.11 202 2.11  97 2.98 122 2.98 137 2.98
                            74 2.98  76 2.98 124 2.98  84 2.98  36 2.98
 140  0.500  0.750  0.648- 268 2.10 249 2.11 258 2.11 266 2.11 201 2.11 121 2.98 130 2.98 138 2.98
                            73 2.98 123 2.98  75 2.98 115 2.98  67 2.98
 141  0.125  0.000  0.451-  13 2.11  15 2.11  16 2.11  32 2.11  55 2.11  17 2.12
 142  0.250  0.125  0.451-  14 2.11  15 2.11  16 2.11  24 2.11  31 2.11  18 2.12
 143  0.125  0.125  0.352-  15 2.11  14 2.11  13 2.11  21 2.11  30 2.11
 144  0.250  0.000  0.352-  16 2.11  14 2.11  13 2.11  29 2.11  54 2.11
 145  0.125  0.000  0.650-  19 2.11  20 2.11  36 2.11  59 2.11  17 2.14
 146  0.250  0.125  0.650-  19 2.11  20 2.11  28 2.11  35 2.11  18 2.14
 147  0.125  0.125  0.550-  19 2.10  18 2.11  17 2.11  25 2.11  34 2.11  15 2.12
 148  0.250  0.000  0.550-  20 2.10  18 2.11  17 2.11  33 2.11  58 2.11  16 2.12
 149  0.125  0.250  0.451-  21 2.11  15 2.11  23 2.11  24 2.11  40 2.11  25 2.12
 150  0.250  0.375  0.451-  22 2.11  23 2.11  24 2.11  39 2.11  48 2.11  26 2.12
 151  0.125  0.375  0.352-  23 2.11  22 2.11  21 2.11  38 2.11  45 2.11
 152  0.250  0.250  0.352-  24 2.11  21 2.11  22 2.11  14 2.11  37 2.11
 153  0.125  0.250  0.650-  19 2.11  27 2.11  28 2.11  44 2.11  25 2.14
 154  0.250  0.375  0.650-  27 2.11  28 2.11  43 2.11  52 2.11  26 2.14
 155  0.125  0.375  0.550-  27 2.10  26 2.11  25 2.11  42 2.11  49 2.11  23 2.12
 156  0.250  0.250  0.550-  28 2.10  25 2.11  26 2.11  18 2.11  41 2.11  24 2.12
 157  0.375  0.000  0.451-  29 2.11  16 2.11  31 2.11  71 2.11  96 2.11  33 2.12
 158  0.000  0.125  0.451-  30 2.11  15 2.11  32 2.11  40 2.11  95 2.11  34 2.12
 159  0.375  0.125  0.352-  31 2.11  29 2.11  14 2.11  37 2.11  94 2.11
 160  0.000  0.000  0.352-  32 2.11  30 2.11  13 2.11  70 2.11  93 2.11
 161  0.375  0.000  0.650-  20 2.11  35 2.11  75 2.11 100 2.11  33 2.14
 162  0.000  0.125  0.650-  19 2.11  36 2.11  44 2.11  99 2.11  34 2.14
 163  0.375  0.125  0.550-  35 2.10  33 2.11  18 2.11  41 2.11  98 2.11  31 2.12
 164  0.000  0.000  0.550-  36 2.10  34 2.11  17 2.11  74 2.11  97 2.11  32 2.12
 165  0.375  0.250  0.451-  37 2.11  31 2.11  24 2.11  39 2.11 104 2.11  41 2.12
 166  0.000  0.375  0.451-  38 2.11  23 2.11  40 2.11  64 2.11 103 2.11  42 2.12
 167  0.375  0.375  0.352-  39 2.11  37 2.11  22 2.11  61 2.11 102 2.11
 168  0.000  0.250  0.352-  40 2.11  30 2.11  38 2.11  21 2.11 101 2.11
 169  0.375  0.250  0.650-  28 2.11  35 2.11  43 2.11 108 2.11  41 2.14
 170  0.000  0.375  0.650-  27 2.11  44 2.11  68 2.11 107 2.11  42 2.14
 171  0.375  0.375  0.550-  43 2.10  41 2.11  26 2.11  65 2.11 106 2.11  39 2.12
 172  0.000  0.250  0.550-  44 2.10  34 2.11  42 2.11  25 2.11 105 2.11  40 2.12
 173  0.125  0.500  0.451-  45 2.11  23 2.11  47 2.11  48 2.11  64 2.11  49 2.12
 174  0.250  0.625  0.451-  46 2.11  47 2.11  48 2.11  56 2.11  63 2.11  50 2.12
 175  0.125  0.625  0.352-  47 2.11  46 2.11  45 2.11  53 2.11  62 2.11
 176  0.250  0.500  0.352-  48 2.11  45 2.11  46 2.11  22 2.11  61 2.11
 177  0.125  0.500  0.650-  27 2.11  51 2.11  52 2.11  68 2.11  49 2.14
 178  0.250  0.625  0.650-  51 2.11  52 2.11  60 2.11  67 2.11  50 2.14
 179  0.125  0.625  0.550-  51 2.10  50 2.11  49 2.11  57 2.11  66 2.11  47 2.12
 180  0.250  0.500  0.550-  52 2.10  49 2.11  50 2.11  26 2.11  65 2.11  48 2.12
 181  0.125  0.750  0.451-  53 2.11  47 2.11  55 2.11  56 2.11  72 2.11  57 2.12
 182  0.250  0.875  0.451-  54 2.11  16 2.11  55 2.11  56 2.11  71 2.11  58 2.12
 183  0.125  0.875  0.352-  55 2.11  53 2.11  54 2.11  13 2.11  70 2.11
 184  0.250  0.750  0.352-  56 2.11  53 2.11  54 2.11  46 2.11  69 2.11
 185  0.125  0.750  0.650-  51 2.11  59 2.11  60 2.11  76 2.11  57 2.14
 186  0.250  0.875  0.650-  20 2.11  59 2.11  60 2.11  75 2.11  58 2.14
 187  0.125  0.875  0.550-  59 2.10  57 2.11  58 2.11  17 2.11  74 2.11  55 2.12
 188  0.250  0.750  0.550-  60 2.10  57 2.11  58 2.11  50 2.11  73 2.11  56 2.12
 189  0.375  0.500  0.451-  61 2.11  48 2.11  39 2.11  63 2.11 128 2.11  65 2.12
 190  0.000  0.625  0.451-  62 2.11  47 2.11  64 2.11  72 2.11 127 2.11  66 2.12
 191  0.375  0.625  0.352-  63 2.11  61 2.11  46 2.11  69 2.11 126 2.11
 192  0.000  0.500  0.352-  64 2.11  45 2.11  62 2.11  38 2.11 125 2.11
 193  0.375  0.500  0.650-  43 2.11  52 2.11  67 2.11 132 2.11  65 2.14
 194  0.000  0.625  0.650-  51 2.11  68 2.11  76 2.11 131 2.11  66 2.14
 195  0.375  0.625  0.550-  67 2.10  65 2.11  50 2.11  73 2.11 130 2.11  63 2.12
 196  0.000  0.500  0.550-  68 2.10  49 2.11  66 2.11  42 2.11 129 2.11  64 2.12
 197  0.375  0.750  0.451-  69 2.11  63 2.11  56 2.11  71 2.11 136 2.11  73 2.12
 198  0.000  0.875  0.451-  70 2.11  55 2.11  32 2.11  72 2.11 135 2.11  74 2.12
 199  0.375  0.875  0.352-  71 2.11  54 2.11  69 2.11  29 2.11 134 2.11
 200  0.000  0.750  0.352-  72 2.11  62 2.11  70 2.11  53 2.11 133 2.11
 201  0.375  0.750  0.650-  60 2.11  67 2.11  75 2.11 140 2.11  73 2.14
 202  0.000  0.875  0.650-  36 2.11  59 2.11  76 2.11 139 2.11  74 2.14
 203  0.375  0.875  0.550-  75 2.10  58 2.11  73 2.11  33 2.11 138 2.11  71 2.12
 204  0.000  0.750  0.550-  76 2.10  66 2.11  74 2.11  57 2.11 137 2.11  72 2.12
 205  0.625  0.000  0.451-  77 2.11  79 2.11  80 2.11  96 2.11 119 2.11  81 2.12
 206  0.750  0.125  0.451-  78 2.11  79 2.11  80 2.11  88 2.11  95 2.11  82 2.12
 207  0.625  0.125  0.352-  79 2.11  78 2.11  77 2.11  85 2.11  94 2.11
 208  0.750  0.000  0.352-  80 2.11  78 2.11  77 2.11  93 2.11 118 2.11
 209  0.625  0.000  0.650-  83 2.11  84 2.11 100 2.11 123 2.11  81 2.14
 210  0.750  0.125  0.650-  83 2.11  84 2.11  92 2.11  99 2.11  82 2.14
 211  0.625  0.125  0.550-  83 2.10  82 2.11  81 2.11  89 2.11  98 2.11  79 2.12
 212  0.750  0.000  0.550-  84 2.10  82 2.11  81 2.11  97 2.11 122 2.11  80 2.12
 213  0.625  0.250  0.451-  85 2.11  79 2.11  87 2.11  88 2.11 104 2.11  89 2.12
 214  0.750  0.375  0.451-  86 2.11  87 2.11  88 2.11 103 2.11 112 2.11  90 2.12
 215  0.625  0.375  0.352-  87 2.11  86 2.11  85 2.11 102 2.11 109 2.11
 216  0.750  0.250  0.352-  88 2.11  85 2.11  86 2.11  78 2.11 101 2.11
 217  0.625  0.250  0.650-  83 2.11  91 2.11  92 2.11 108 2.11  89 2.14
 218  0.750  0.375  0.650-  91 2.11  92 2.11 107 2.11 116 2.11  90 2.14
 219  0.625  0.375  0.550-  91 2.10  90 2.11  89 2.11 106 2.11 113 2.11  87 2.12
 220  0.750  0.250  0.550-  92 2.10  89 2.11  90 2.11  82 2.11 105 2.11  88 2.12
 221  0.875  0.000  0.451-  93 2.11  80 2.11  32 2.11  95 2.11 135 2.11  97 2.12
 222  0.500  0.125  0.451-  94 2.11  79 2.11  31 2.11  96 2.11 104 2.11  98 2.12
 223  0.875  0.125  0.352-  95 2.11  78 2.11  93 2.11  30 2.11 101 2.11
 224  0.500  0.000  0.352-  96 2.11  77 2.11  94 2.11  29 2.11 134 2.11
 225  0.875  0.000  0.650-  36 2.11  84 2.11  99 2.11 139 2.11  97 2.14
 226  0.500  0.125  0.650-  35 2.11  83 2.11 100 2.11 108 2.11  98 2.14
 227  0.875  0.125  0.550-  99 2.10  82 2.11  97 2.11  34 2.11 105 2.11  95 2.12
 228  0.500  0.000  0.550- 100 2.10  81 2.11  98 2.11  33 2.11 138 2.11  96 2.12
 229  0.875  0.250  0.451- 101 2.11  88 2.11  95 2.11  40 2.11 103 2.11 105 2.12
 230  0.500  0.375  0.451- 102 2.11  87 2.11  39 2.11 104 2.11 128 2.11 106 2.12
 231  0.875  0.375  0.352- 103 2.11  86 2.11 101 2.11  38 2.11 125 2.11
 232  0.500  0.250  0.352- 104 2.11  85 2.11  94 2.11 102 2.11  37 2.11
 233  0.875  0.250  0.650-  44 2.11  92 2.11  99 2.11 107 2.11 105 2.14
 234  0.500  0.375  0.650-  43 2.11  91 2.11 108 2.11 132 2.11 106 2.14
 235  0.875  0.375  0.550- 107 2.10  90 2.11 105 2.11  42 2.11 129 2.11 103 2.12
 236  0.500  0.250  0.550- 108 2.10  89 2.11  98 2.11 106 2.11  41 2.11 104 2.12
 237  0.625  0.500  0.451- 109 2.11  87 2.11 111 2.11 112 2.11 128 2.11 113 2.12
 238  0.750  0.625  0.451- 110 2.11 111 2.11 112 2.11 120 2.11 127 2.11 114 2.12
 239  0.625  0.625  0.352- 111 2.11 110 2.11 109 2.11 117 2.11 126 2.11
 240  0.750  0.500  0.352- 112 2.11 109 2.11 110 2.11  86 2.11 125 2.11
 241  0.625  0.500  0.650-  91 2.11 115 2.11 116 2.11 132 2.11 113 2.14
 242  0.750  0.625  0.650- 115 2.11 116 2.11 124 2.11 131 2.11 114 2.14
 243  0.625  0.625  0.550- 115 2.10 114 2.11 113 2.11 121 2.11 130 2.11 111 2.12
 244  0.750  0.500  0.550- 116 2.10 113 2.11 114 2.11  90 2.11 129 2.11 112 2.12
 245  0.625  0.750  0.451- 117 2.11 111 2.11 119 2.11 120 2.11 136 2.11 121 2.12
 246  0.750  0.875  0.451- 118 2.11  80 2.11 119 2.11 120 2.11 135 2.11 122 2.12
 247  0.625  0.875  0.352- 119 2.11 117 2.11 118 2.11  77 2.11 134 2.11
 248  0.750  0.750  0.352- 120 2.11 117 2.11 118 2.11 110 2.11 133 2.11
 249  0.625  0.750  0.650- 115 2.11 123 2.11 124 2.11 140 2.11 121 2.14
 250  0.750  0.875  0.650-  84 2.11 123 2.11 124 2.11 139 2.11 122 2.14
 251  0.625  0.875  0.550- 123 2.10 121 2.11 122 2.11  81 2.11 138 2.11 119 2.12
 252  0.750  0.750  0.550- 124 2.10 121 2.11 122 2.11 114 2.11 137 2.11 120 2.12
 253  0.875  0.500  0.451- 125 2.11 103 2.11 112 2.11  64 2.11 127 2.11 129 2.12
 254  0.500  0.625  0.451- 126 2.11 111 2.11  63 2.11 128 2.11 136 2.11 130 2.12
 255  0.875  0.625  0.352- 127 2.11 110 2.11 125 2.11  62 2.11 133 2.11
 256  0.500  0.500  0.352- 128 2.11 102 2.11 109 2.11 126 2.11  61 2.11
 257  0.875  0.500  0.650-  68 2.11 107 2.11 116 2.11 131 2.11 129 2.14
 258  0.500  0.625  0.650-  67 2.11 115 2.11 132 2.11 140 2.11 130 2.14
 259  0.875  0.625  0.550- 131 2.10 114 2.11 129 2.11  66 2.11 137 2.11 127 2.12
 260  0.500  0.500  0.550- 132 2.10 106 2.11 113 2.11 130 2.11  65 2.11 128 2.12
 261  0.875  0.750  0.451- 133 2.11 120 2.11 127 2.11  72 2.11 135 2.11 137 2.12
 262  0.500  0.875  0.451- 134 2.11  96 2.11 119 2.11  71 2.11 136 2.11 138 2.12
 263  0.875  0.875  0.352- 135 2.11  93 2.11 118 2.11 133 2.11  70 2.11
 264  0.500  0.750  0.352- 136 2.11 117 2.11 126 2.11 134 2.11  69 2.11
 265  0.875  0.750  0.650-  76 2.11 124 2.11 131 2.11 139 2.11 137 2.14
 266  0.500  0.875  0.650-  75 2.11 100 2.11 123 2.11 140 2.11 138 2.14
 267  0.875  0.875  0.550- 139 2.10  97 2.11 122 2.11 137 2.11  74 2.11 135 2.12
 268  0.500  0.750  0.550- 140 2.10 121 2.11 130 2.11 138 2.11  73 2.11 136 2.12


IMPORTANT INFORMATION: All symmetrisations will be switched off!
NOSYMM: (Re-)initialisation of all symmetry stuff for point group C_1.


----------------------------------------------------------------------------------------

                                     Primitive cell                                     

  volume of cell :    6078.6138

  direct lattice vectors                    reciprocal lattice vectors
    16.881164524  0.000000000  0.000000000     0.059237619  0.000000000  0.000000000
     0.000000000 16.881164524  0.000000000     0.000000000  0.059237619  0.000000000
     0.000000000  0.000000000 21.330436697     0.000000000  0.000000000  0.046881366

  length of vectors
    16.881164524 16.881164524 21.330436697     0.059237619  0.059237619  0.046881366

  position of ions in fractional coordinates (direct lattice)
     0.479853652  0.470736305  0.789385648
     0.562132554  0.460658368  0.787949067
     0.594604182  0.384263712  0.789378050
     0.544786626  0.318116415  0.792523312
     0.462435447  0.328174650  0.794139966
     0.430058747  0.404412239  0.792359838
     0.454471692  0.530129772  0.788104991
     0.601008732  0.512022033  0.785180121
     0.658783323  0.376426686  0.788018266
     0.570310231  0.258786023  0.793293615
     0.423547370  0.276668066  0.796157059
     0.365905725  0.412438844  0.793281624
     0.125000000  0.000000000  0.351610242
     0.250000000  0.125000000  0.351610242
     0.125000000  0.125000000  0.450536747
     0.250000000  0.000000000  0.450536747
     0.125000000  0.000000000  0.549966382
     0.250000000  0.125000000  0.549966382
     0.125000000  0.125000000  0.648348359
     0.250000000  0.000000000  0.648348359
     0.125000000  0.250000000  0.351610242
     0.250000000  0.375000000  0.351610242
     0.125000000  0.375000000  0.450536747
     0.250000000  0.250000000  0.450536747
     0.125000000  0.250000000  0.549966382
     0.250000000  0.375000000  0.549966382
     0.125000000  0.375000000  0.648348359
     0.250000000  0.250000000  0.648348359
     0.375000000  0.000000000  0.351610242
     0.000000000  0.125000000  0.351610242
     0.375000000  0.125000000  0.450536747
     0.000000000  0.000000000  0.450536747
     0.375000000  0.000000000  0.549966382
     0.000000000  0.125000000  0.549966382
     0.375000000  0.125000000  0.648348359
     0.000000000  0.000000000  0.648348359
     0.375000000  0.250000000  0.351610242
     0.000000000  0.375000000  0.351610242
     0.375000000  0.375000000  0.450536747
     0.000000000  0.250000000  0.450536747
     0.375000000  0.250000000  0.549966382
     0.000000000  0.375000000  0.549966382
     0.375000000  0.375000000  0.648348359
     0.000000000  0.250000000  0.648348359
     0.125000000  0.500000000  0.351610242
     0.250000000  0.625000000  0.351610242
     0.125000000  0.625000000  0.450536747
     0.250000000  0.500000000  0.450536747
     0.125000000  0.500000000  0.549966382
     0.250000000  0.625000000  0.549966382
     0.125000000  0.625000000  0.648348359
     0.250000000  0.500000000  0.648348359
     0.125000000  0.750000000  0.351610242
     0.250000000  0.875000000  0.351610242
     0.125000000  0.875000000  0.450536747
     0.250000000  0.750000000  0.450536747
     0.125000000  0.750000000  0.549966382
     0.250000000  0.875000000  0.549966382
     0.125000000  0.875000000  0.648348359
     0.250000000  0.750000000  0.648348359
     0.375000000  0.500000000  0.351610242
     0.000000000  0.625000000  0.351610242
     0.375000000  0.625000000  0.450536747
     0.000000000  0.500000000  0.450536747
     0.375000000  0.500000000  0.549966382
     0.000000000  0.625000000  0.549966382
     0.375000000  0.625000000  0.648348359
     0.000000000  0.500000000  0.648348359
     0.375000000  0.750000000  0.351610242
     0.000000000  0.875000000  0.351610242
     0.375000000  0.875000000  0.450536747
     0.000000000  0.750000000  0.450536747
     0.375000000  0.750000000  0.549966382
     0.000000000  0.875000000  0.549966382
     0.375000000  0.875000000  0.648348359
     0.000000000  0.750000000  0.648348359
     0.625000000  0.000000000  0.351610242
     0.750000000  0.125000000  0.351610242
     0.625000000  0.125000000  0.450536747
     0.750000000  0.000000000  0.450536747
     0.625000000  0.000000000  0.549966382
     0.750000000  0.125000000  0.549966382
     0.625000000  0.125000000  0.648348359
     0.750000000  0.000000000  0.648348359
     0.625000000  0.250000000  0.351610242
     0.750000000  0.375000000  0.351610242
     0.625000000  0.375000000  0.450536747
     0.750000000  0.250000000  0.450536747
     0.625000000  0.250000000  0.549966382
     0.750000000  0.375000000  0.549966382
     0.625000000  0.375000000  0.648348359
     0.750000000  0.250000000  0.648348359
     0.875000000  0.000000000  0.351610242
     0.500000000  0.125000000  0.351610242
     0.875000000  0.125000000  0.450536747
     0.500000000  0.000000000  0.450536747
     0.875000000  0.000000000  0.549966382
     0.500000000  0.125000000  0.549966382
     0.875000000  0.125000000  0.648348359
     0.500000000  0.000000000  0.648348359
     0.875000000  0.250000000  0.351610242
     0.500000000  0.375000000  0.351610242
     0.875000000  0.375000000  0.450536747
     0.500000000  0.250000000  0.450536747
     0.875000000  0.250000000  0.549966382
     0.500000000  0.375000000  0.549966382
     0.875000000  0.375000000  0.648348359
     0.500000000  0.250000000  0.648348359
     0.625000000  0.500000000  0.351610242
     0.750000000  0.625000000  0.351610242
     0.625000000  0.625000000  0.450536747
     0.750000000  0.500000000  0.450536747
     0.625000000  0.500000000  0.549966382
     0.750000000  0.625000000  0.549966382
     0.625000000  0.625000000  0.648348359
     0.750000000  0.500000000  0.648348359
     0.625000000  0.750000000  0.351610242
     0.750000000  0.875000000  0.351610242
     0.625000000  0.875000000  0.450536747
     0.750000000  0.750000000  0.450536747
     0.625000000  0.750000000  0.549966382
     0.750000000  0.875000000  0.549966382
     0.625000000  0.875000000  0.648348359
     0.750000000  0.750000000  0.648348359
     0.875000000  0.500000000  0.351610242
     0.500000000  0.625000000  0.351610242
     0.875000000  0.625000000  0.450536747
     0.500000000  0.500000000  0.450536747
     0.875000000  0.500000000  0.549966382
     0.500000000  0.625000000  0.549966382
     0.875000000  0.625000000  0.648348359
     0.500000000  0.500000000  0.648348359
     0.875000000  0.750000000  0.351610242
     0.500000000  0.875000000  0.351610242
     0.875000000  0.875000000  0.450536747
     0.500000000  0.750000000  0.450536747
     0.875000000  0.750000000  0.549966382
     0.500000000  0.875000000  0.549966382
     0.875000000  0.875000000  0.648348359
     0.500000000  0.750000000  0.648348359
     0.125000000  0.000000000  0.450536747
     0.250000000  0.125000000  0.450536747
     0.125000000  0.125000000  0.351610242
     0.250000000  0.000000000  0.351610242
     0.125000000  0.000000000  0.650177506
     0.250000000  0.125000000  0.650177506
     0.125000000  0.125000000  0.549707339
     0.250000000  0.000000000  0.549707339
     0.125000000  0.250000000  0.450536747
     0.250000000  0.375000000  0.450536747
     0.125000000  0.375000000  0.351610242
     0.250000000  0.250000000  0.351610242
     0.125000000  0.250000000  0.650177506
     0.250000000  0.375000000  0.650177506
     0.125000000  0.375000000  0.549707339
     0.250000000  0.250000000  0.549707339
     0.375000000  0.000000000  0.450536747
     0.000000000  0.125000000  0.450536747
     0.375000000  0.125000000  0.351610242
     0.000000000  0.000000000  0.351610242
     0.375000000  0.000000000  0.650177506
     0.000000000  0.125000000  0.650177506
     0.375000000  0.125000000  0.549707339
     0.000000000  0.000000000  0.549707339
     0.375000000  0.250000000  0.450536747
     0.000000000  0.375000000  0.450536747
     0.375000000  0.375000000  0.351610242
     0.000000000  0.250000000  0.351610242
     0.375000000  0.250000000  0.650177506
     0.000000000  0.375000000  0.650177506
     0.375000000  0.375000000  0.549707339
     0.000000000  0.250000000  0.549707339
     0.125000000  0.500000000  0.450536747
     0.250000000  0.625000000  0.450536747
     0.125000000  0.625000000  0.351610242
     0.250000000  0.500000000  0.351610242
     0.125000000  0.500000000  0.650177506
     0.250000000  0.625000000  0.650177506
     0.125000000  0.625000000  0.549707339
     0.250000000  0.500000000  0.549707339
     0.125000000  0.750000000  0.450536747
     0.250000000  0.875000000  0.450536747
     0.125000000  0.875000000  0.351610242
     0.250000000  0.750000000  0.351610242
     0.125000000  0.750000000  0.650177506
     0.250000000  0.875000000  0.650177506
     0.125000000  0.875000000  0.549707339
     0.250000000  0.750000000  0.549707339
     0.375000000  0.500000000  0.450536747
     0.000000000  0.625000000  0.450536747
     0.375000000  0.625000000  0.351610242
     0.000000000  0.500000000  0.351610242
     0.375000000  0.500000000  0.650177506
     0.000000000  0.625000000  0.650177506
     0.375000000  0.625000000  0.549707339
     0.000000000  0.500000000  0.549707339
     0.375000000  0.750000000  0.450536747
     0.000000000  0.875000000  0.450536747
     0.375000000  0.875000000  0.351610242
     0.000000000  0.750000000  0.351610242
     0.375000000  0.750000000  0.650177506
     0.000000000  0.875000000  0.650177506
     0.375000000  0.875000000  0.549707339
     0.000000000  0.750000000  0.549707339
     0.625000000  0.000000000  0.450536747
     0.750000000  0.125000000  0.450536747
     0.625000000  0.125000000  0.351610242
     0.750000000  0.000000000  0.351610242
     0.625000000  0.000000000  0.650177506
     0.750000000  0.125000000  0.650177506
     0.625000000  0.125000000  0.549707339
     0.750000000  0.000000000  0.549707339
     0.625000000  0.250000000  0.450536747
     0.750000000  0.375000000  0.450536747
     0.625000000  0.375000000  0.351610242
     0.750000000  0.250000000  0.351610242
     0.625000000  0.250000000  0.650177506
     0.750000000  0.375000000  0.650177506
     0.625000000  0.375000000  0.549707339
     0.750000000  0.250000000  0.549707339
     0.875000000  0.000000000  0.450536747
     0.500000000  0.125000000  0.450536747
     0.875000000  0.125000000  0.351610242
     0.500000000  0.000000000  0.351610242
     0.875000000  0.000000000  0.650177506
     0.500000000  0.125000000  0.650177506
     0.875000000  0.125000000  0.549707339
     0.500000000  0.000000000  0.549707339
     0.875000000  0.250000000  0.450536747
     0.500000000  0.375000000  0.450536747
     0.875000000  0.375000000  0.351610242
     0.500000000  0.250000000  0.351610242
     0.875000000  0.250000000  0.650177506
     0.500000000  0.375000000  0.650177506
     0.875000000  0.375000000  0.549707339
     0.500000000  0.250000000  0.549707339
     0.625000000  0.500000000  0.450536747
     0.750000000  0.625000000  0.450536747
     0.625000000  0.625000000  0.351610242
     0.750000000  0.500000000  0.351610242
     0.625000000  0.500000000  0.650177506
     0.750000000  0.625000000  0.650177506
     0.625000000  0.625000000  0.549707339
     0.750000000  0.500000000  0.549707339
     0.625000000  0.750000000  0.450536747
     0.750000000  0.875000000  0.450536747
     0.625000000  0.875000000  0.351610242
     0.750000000  0.750000000  0.351610242
     0.625000000  0.750000000  0.650177506
     0.750000000  0.875000000  0.650177506
     0.625000000  0.875000000  0.549707339
     0.750000000  0.750000000  0.549707339
     0.875000000  0.500000000  0.450536747
     0.500000000  0.625000000  0.450536747
     0.875000000  0.625000000  0.351610242
     0.500000000  0.500000000  0.351610242
     0.875000000  0.500000000  0.650177506
     0.500000000  0.625000000  0.650177506
     0.875000000  0.625000000  0.549707339
     0.500000000  0.500000000  0.549707339
     0.875000000  0.750000000  0.450536747
     0.500000000  0.875000000  0.450536747
     0.875000000  0.875000000  0.351610242
     0.500000000  0.750000000  0.351610242
     0.875000000  0.750000000  0.650177506
     0.500000000  0.875000000  0.650177506
     0.875000000  0.875000000  0.549707339
     0.500000000  0.750000000  0.549707339

  ion indices of the primitive-cell ions
   primitive index   ion index
                 1           1
                 2           2
                 3           3
                 4           4
                 5           5
                 6           6
                 7           7
                 8           8
                 9           9
                10          10
                11          11
                12          12
                13          13
                14          14
                15          15
                16          16
                17          17
                18          18
                19          19
                20          20
                21          21
                22          22
                23          23
                24          24
                25          25
                26          26
                27          27
                28          28
                29          29
                30          30
                31          31
                32          32
                33          33
                34          34
                35          35
                36          36
                37          37
                38          38
                39          39
                40          40
                41          41
                42          42
                43          43
                44          44
                45          45
                46          46
                47          47
                48          48
                49          49
                50          50
                51          51
                52          52
                53          53
                54          54
                55          55
                56          56
                57          57
                58          58
                59          59
                60          60
                61          61
                62          62
                63          63
                64          64
                65          65
                66          66
                67          67
                68          68
                69          69
                70          70
                71          71
                72          72
                73          73
                74          74
                75          75
                76          76
                77          77
                78          78
                79          79
                80          80
                81          81
                82          82
                83          83
                84          84
                85          85
                86          86
                87          87
                88          88
                89          89
                90          90
                91          91
                92          92
                93          93
                94          94
                95          95
                96          96
                97          97
                98          98
                99          99
               100         100
               101         101
               102         102
               103         103
               104         104
               105         105
               106         106
               107         107
               108         108
               109         109
               110         110
               111         111
               112         112
               113         113
               114         114
               115         115
               116         116
               117         117
               118         118
               119         119
               120         120
               121         121
               122         122
               123         123
               124         124
               125         125
               126         126
               127         127
               128         128
               129         129
               130         130
               131         131
               132         132
               133         133
               134         134
               135         135
               136         136
               137         137
               138         138
               139         139
               140         140
               141         141
               142         142
               143         143
               144         144
               145         145
               146         146
               147         147
               148         148
               149         149
               150         150
               151         151
               152         152
               153         153
               154         154
               155         155
               156         156
               157         157
               158         158
               159         159
               160         160
               161         161
               162         162
               163         163
               164         164
               165         165
               166         166
               167         167
               168         168
               169         169
               170         170
               171         171
               172         172
               173         173
               174         174
               175         175
               176         176
               177         177
               178         178
               179         179
               180         180
               181         181
               182         182
               183         183
               184         184
               185         185
               186         186
               187         187
               188         188
               189         189
               190         190
               191         191
               192         192
               193         193
               194         194
               195         195
               196         196
               197         197
               198         198
               199         199
               200         200
               201         201
               202         202
               203         203
               204         204
               205         205
               206         206
               207         207
               208         208
               209         209
               210         210
               211         211
               212         212
               213         213
               214         214
               215         215
               216         216
               217         217
               218         218
               219         219
               220         220
               221         221
               222         222
               223         223
               224         224
               225         225
               226         226
               227         227
               228         228
               229         229
               230         230
               231         231
               232         232
               233         233
               234         234
               235         235
               236         236
               237         237
               238         238
               239         239
               240         240
               241         241
               242         242
               243         243
               244         244
               245         245
               246         246
               247         247
               248         248
               249         249
               250         250
               251         251
               252         252
               253         253
               254         254
               255         255
               256         256
               257         257
               258         258
               259         259
               260         260
               261         261
               262         262
               263         263
               264         264
               265         265
               266         266
               267         267
               268         268

----------------------------------------------------------------------------------------



 KPOINTS: pymatgen v2020.8.13 with grid density = 

Automatic generation of k-mesh.
 Grid dimensions read from file:
 generate k-points for:    1    1    1

 Generating k-lattice:

[...]
      6.33044      8.44058      7.50000         0.002463     -0.002095      0.362300
      0.00000     10.55073      7.50000        -0.000136     -0.001013      0.357889
      6.33044     10.55073      9.61015         0.006120     -0.007973      0.016657
      0.00000      8.44058      9.61015        -0.000159     -0.000668      0.015479
      6.33264      8.43873     11.72793         0.000037     -0.000443      0.000334
     -0.00012     10.55042     11.72682         0.000512     -0.000477     -0.000425
      6.33048     10.54911     13.81592         0.000494      0.000010      0.000297
     -0.00023      8.44003     13.82009         0.000427      0.000972      0.000269
      6.33044     12.66087      7.50000         0.001311     -0.002689      0.359067
      0.00000     14.77102      7.50000        -0.000056     -0.000405      0.357846
      6.33044     14.77102      9.61015        -0.000716     -0.000971      0.012927
      0.00000     12.66087      9.61015        -0.000002     -0.000972      0.015133
      6.33052     12.66050     11.72635         0.000446      0.000307      0.000068
      0.00002     14.77099     11.72690        -0.000227     -0.000015     -0.001457
      6.33034     14.77068     13.81986         0.000484      0.000259     -0.000125
     -0.00004     12.66070     13.81997        -0.000157     -0.001140     -0.000747
     10.55073      0.00000      7.50000        -0.001035      0.002096      0.358049
     12.66087      2.11015      7.50000        -0.002477      0.002706      0.359039
     10.55073      2.11015      9.61015        -0.004961      0.009454      0.016951
     12.66087      0.00000      9.61015        -0.001152      0.001126      0.014787
     10.55038      0.00007     11.72645        -0.000278      0.000071     -0.000199
     12.66050      2.11026     11.72639        -0.000372      0.000318     -0.000118
     10.55002      2.11105     13.81705        -0.000164      0.001027      0.000178
     12.66062     -0.00029     13.81977        -0.000636      0.000969      0.000031
     10.55073      4.22029      7.50000        -0.001918      0.002574      0.363122
     12.66087      6.33044      7.50000        -0.003635      0.000023      0.363067
     10.55073      6.33044      9.61015         0.004743     -0.000802      0.023124
     12.66087      4.22029      9.61015        -0.008556      0.006786      0.018232
     10.54912      4.22248     11.72770        -0.000580      0.000651      0.000378
     12.65781      6.33024     11.72756        -0.000375      0.000240      0.000329
     10.54077      6.33124     13.83138        -0.000500      0.000077     -0.000367
     12.65911      4.22052     13.81738        -0.000515      0.000502      0.000250
     14.77102      0.00000      7.50000        -0.001030      0.000729      0.357911
      8.44058      2.11015      7.50000         0.000164      0.003584      0.361683
     14.77102      2.11015      9.61015        -0.002200      0.001572      0.013611
      8.44058      0.00000      9.61015        -0.000234      0.007476      0.017696
     14.77106     -0.00022     11.72687        -0.000417      0.000912     -0.000793
      8.44057      2.11206     11.72690         0.000207      0.000219      0.000367
     14.77070      2.10994     13.81988        -0.000787      0.000952      0.000134
      8.44045      0.00023     13.82035         0.000067      0.001510      0.001095
     14.77102      4.22029      7.50000        -0.002694      0.001421      0.359000
      8.44058      6.33044      7.50000         0.000325      0.000283      0.360972
     14.77102      6.33044      9.61015        -0.010993     -0.001185      0.016466
      8.44058      4.22029      9.61015         0.000461     -0.002146      0.021682
     14.77050      4.22030     11.72660         0.000247      0.000682     -0.000156
      8.44121      6.33150     11.72528         0.000165      0.000144      0.000187
     14.77018      6.33001     13.82025         0.000092      0.000979      0.000271
      8.44115      4.22977     13.82316         0.000262      0.000226     -0.000219
     10.55073      8.44058      7.50000        -0.002133     -0.002258      0.362335
     12.66087     10.55073      7.50000        -0.002694     -0.002636      0.359038
     10.55073     10.55073      9.61015        -0.006772     -0.008023      0.016022
     12.66087      8.44058      9.61015        -0.008445     -0.007399      0.017925
     10.54856      8.43831     11.72791        -0.000909     -0.000492      0.000041
     12.66066     10.55047     11.72577         0.000081     -0.000048     -0.000201
     10.55018     10.54966     13.81379        -0.000158      0.000601      0.000295
     12.65962      8.44007     13.81482         0.000327      0.000223     -0.000082
     10.55073     12.66087      7.50000        -0.001194     -0.002680      0.359120
     12.66087     14.77102      7.50000        -0.001051     -0.000474      0.358637
     10.55073     14.77102      9.61015         0.000201     -0.001046      0.011947
     12.66087     12.66087      9.61015        -0.001370     -0.001793      0.013766
     10.55031     12.66064     11.72594         0.000440      0.000435      0.000313
     12.66086     14.77080     11.72664        -0.000779      0.000177     -0.000329
     10.55045     14.77065     13.81954         0.000024      0.000081      0.000314
     12.66074     12.66068     13.81952        -0.000539      0.000040     -0.000129
     14.77102      8.44058      7.50000        -0.002676     -0.001382      0.358257
      8.44058     10.55073      7.50000         0.000109     -0.003578      0.362315
     14.77102     10.55073      9.61015        -0.001994     -0.001091      0.012910
      8.44058      8.44058      9.61015        -0.000106      0.004032      0.026275
     14.77080      8.44004     11.72624         0.001195      0.000499     -0.000218
      8.44039     10.54742     11.72744         0.000232     -0.000042      0.000307
     14.77080     10.55051     13.81979         0.000364     -0.000294     -0.000347
      8.44091      8.43036     13.83263        -0.000478      0.000503     -0.000535
     14.77102     12.66087      7.50000        -0.001091     -0.001111      0.358722
      8.44058     14.77102      7.50000         0.000097     -0.000609      0.357126
     14.77102     14.77102      9.61015        -0.001040     -0.000999      0.013382
      8.44058     12.66087      9.61015        -0.000357     -0.010787      0.017349
     14.77101     12.66082     11.72675        -0.000623     -0.001160     -0.001006
      8.44038     14.77085     11.72688        -0.000069      0.000504      0.001152
     14.77100     14.77073     13.82003        -0.001302      0.000258     -0.000830
      8.44036     12.65995     13.82004         0.000261     -0.000540      0.000536
      2.11015      0.00000      9.61015        -0.000520     -0.000996      0.040352
      4.22029      2.11015      9.61015        -0.003117     -0.004909      0.039561
      2.11015      2.11015      7.50000        -0.004740     -0.004904     -0.410205
      4.22029      0.00000      7.50000        -0.001501     -0.001414     -0.411016
      2.11053     -0.00024     13.86190        -0.001344     -0.000319      0.000331
      4.22022      2.10980     13.86257        -0.000908     -0.000192     -0.000049
      2.10999      2.10995     11.72078         0.000336     -0.000609      0.000827
      4.22019     -0.00013     11.72103        -0.000210      0.000151      0.000539
      2.11015      4.22029      9.61015        -0.005159     -0.001757      0.039822
      4.22029      6.33044      9.61015        -0.015107      0.000415      0.029102
      2.11015      6.33044      7.50000        -0.006899      0.002997     -0.411233
      4.22029      4.22029      7.50000        -0.003954     -0.002784     -0.414605
      2.11014      4.22008     13.86199        -0.000212     -0.000073      0.000436
      4.22118      6.33047     13.86797        -0.000342      0.000393     -0.000025
      2.11054      6.33008     11.72157         0.000604      0.000420      0.000028
      4.21972      4.21986     11.72158        -0.000147      0.000040      0.000135
      6.33044      0.00000      9.61015        -0.001993     -0.003573      0.040181
      0.00000      2.11015      9.61015         0.000077     -0.000790      0.040632
      6.33044      2.11015      7.50000         0.000783     -0.007349     -0.412223
      0.00000      0.00000      7.50000         0.000074     -0.000742     -0.414102
      6.33009     -0.00020     13.86243        -0.000197      0.000087     -0.000207
     -0.00014      2.11028     13.86181         0.000512     -0.000874      0.000596
      6.33007      2.10939     11.72105        -0.000471      0.000030      0.000063
     -0.00003     -0.00010     11.72188         0.000382     -0.001013      0.000772
      6.33044      4.22029      9.61015        -0.006146     -0.007891      0.030099
      0.00000      6.33044      9.61015        -0.000083     -0.001156      0.043812
      6.33044      6.33044      7.50000         0.001194      0.002783     -0.413983
      0.00000      4.22029      7.50000         0.000242     -0.001120     -0.410901
      6.32921      4.21878     13.86412        -0.000744     -0.000300     -0.000659
     -0.00025      6.32975     13.86244        -0.000233      0.000008      0.000128
      6.32571      6.33003     11.71821         0.000225     -0.000195     -0.001116
      0.00001      4.22022     11.72106        -0.000949     -0.000299      0.000489
      2.11015      8.44058      9.61015        -0.004960      0.000282      0.038841
      4.22029     10.55073      9.61015        -0.004417      0.001514      0.037274
      2.11015     10.55073      7.50000        -0.004871     -0.001875     -0.410172
      4.22029      8.44058      7.50000        -0.004197      0.002228     -0.413182
      2.11032      8.44020     13.86230         0.000259      0.000460      0.000251
      4.21950     10.55116     13.86245         0.000004      0.001138     -0.000424
      2.10977     10.55059     11.72070         0.000688      0.000811      0.000507
      4.21898      8.44086     11.72061         0.000063      0.000636     -0.000601
      2.11015     12.66087      9.61015        -0.003341      0.000692      0.039063
      4.22029     14.77102      9.61015        -0.001051      0.002313      0.039368
      2.11015     14.77102      7.50000        -0.004030      0.003390     -0.410123
      4.22029     12.66087      7.50000        -0.001676      0.001627     -0.412518
      2.10986     12.66074     13.86140        -0.000278      0.001662     -0.000326
      4.22030     14.77089     13.86133        -0.001304     -0.000379      0.000462
      2.11005     14.77098     11.72061        -0.000941      0.000599      0.001189
      4.22002     12.66091     11.72069        -0.000172      0.000286      0.000929
      6.33044      8.44058      9.61015        -0.008426      0.006266      0.031129
      0.00000     10.55073      9.61015        -0.000163      0.000765      0.040441
      6.33044     10.55073      7.50000         0.000352      0.000652     -0.412463
      0.00000      8.44058      7.50000         0.000240      0.000718     -0.414211
      6.32643      8.44338     13.85971        -0.000287      0.000729      0.000052
     -0.00022     10.55067     13.86177         0.000148      0.001389      0.000575
      6.32981     10.55203     11.72037        -0.000152     -0.000071     -0.000136
     -0.00005      8.44020     11.72197        -0.000305      0.000051     -0.000475
      6.33044     12.66087      9.61015         0.000264      0.005306      0.037361
      0.00000     14.77102      9.61015         0.000009     -0.000582      0.040287
      6.33044     14.77102      7.50000         0.002328      0.003615     -0.410119
      0.00000     12.66087      7.50000         0.000069      0.000758     -0.410908
      6.33017     12.66049     13.86194        -0.000374      0.000867     -0.000434
      0.00004     14.77047     13.86170        -0.000218      0.000431      0.000689
      6.33046     14.77099     11.72073        -0.000064      0.000019      0.000295
     -0.00005     12.66074     11.72092         0.000324      0.001380      0.000360
     10.55073      0.00000      9.61015         0.001528     -0.004956      0.039051
     12.66087      2.11015      9.61015         0.003841     -0.006295      0.038114
     10.55073      2.11015      7.50000        -0.000982     -0.007562     -0.412268
     12.66087      0.00000      7.50000         0.001521     -0.001545     -0.410954
     10.55079     -0.00035     13.86203         0.000830     -0.000536      0.000791
     12.66100      2.10927     13.86253         0.001230     -0.000081     -0.000278
     10.55107      2.10891     11.72042         0.000724      0.000141     -0.000306
     12.66097     -0.00043     11.72095        -0.000068      0.000578      0.000490
     10.55073      4.22029      9.61015         0.005043     -0.008009      0.029543
     12.66087      6.33044      9.61015         0.014529      0.000509      0.028338
     10.55073      6.33044      7.50000        -0.001610      0.002845     -0.414215
     12.66087      4.22029      7.50000         0.004051     -0.003076     -0.414759
     10.55268      4.21737     13.86141         0.001029     -0.000102     -0.000278
     12.66012      6.33035     13.86926         0.000639      0.000501      0.000100
     10.55543      6.32983     11.71878         0.000271      0.000203     -0.000469
     12.66179      4.21970     11.72082         0.000548     -0.000503      0.000150
     14.77102      0.00000      9.61015         0.000543     -0.001339      0.040226
      8.44058      2.11015      9.61015        -0.000888     -0.015408      0.029027
     14.77102      2.11015      7.50000         0.004945     -0.005046     -0.410196
      8.44058      0.00000      7.50000        -0.000097     -0.003507     -0.415173
     14.77064     -0.00046     13.86189         0.001496     -0.000765      0.000270
      8.44070      2.11146     13.86685        -0.000119     -0.000636      0.000135
     14.77114      2.10978     11.72074        -0.000219     -0.000043      0.000639
      8.44039      0.00020     11.72243         0.000806     -0.000112      0.000224
     14.77102      4.22029      9.61015         0.006705     -0.002174      0.038733
      8.44058      6.33044      9.61015         0.000078     -0.000374      0.028695
     14.77102      6.33044      7.50000         0.007300      0.003003     -0.411339
      8.44058      4.22029      7.50000        -0.000304     -0.002385     -0.414746
     14.77062      4.21994     13.86203         0.000900     -0.000464      0.000134
      8.44016      6.32996     13.81643         0.000075      0.000425      0.000220
     14.77039      6.33008     11.72160        -0.000032     -0.000130      0.000476
      8.44037      4.21565     11.71758        -0.000108      0.000162     -0.000781
     10.55073      8.44058      9.61015         0.007193      0.005595      0.031040
     12.66087     10.55073      9.61015         0.004960      0.002209      0.035749
     10.55073     10.55073      7.50000        -0.000568      0.000754     -0.412434
     12.66087      8.44058      7.50000         0.004205      0.002530     -0.413267
     10.55554      8.44513     13.85490         0.000738      0.000398     -0.000172
     12.66137     10.55137     13.86277         0.000230      0.000929     -0.000717
     10.55102     10.55249     11.71937         0.000636      0.000454      0.000022
     12.66260      8.44092     11.71995         0.000305      0.000459     -0.000028
     10.55073     12.66087      9.61015        -0.000847      0.006929      0.035429
     12.66087     14.77102      9.61015         0.000892      0.002039      0.039177
     10.55073     14.77102      7.50000        -0.002404      0.003642     -0.410167
     12.66087     12.66087      7.50000         0.001702      0.001712     -0.412447
     10.55066     12.66061     13.86143         0.000571      0.000486      0.000114
     12.66069     14.77081     13.86126         0.000794     -0.000117      0.000598
     10.55043     14.77088     11.72060         0.000649      0.000814      0.000180
     12.66106     12.66094     11.72064         0.000163      0.000115      0.000970
     14.77102      8.44058      9.61015         0.006341      0.000654      0.037583
      8.44058     10.55073      9.61015        -0.001495      0.014698      0.028546
     14.77102     10.55073      7.50000         0.005047     -0.001744     -0.410153
      8.44058      8.44058      7.50000        -0.000219      0.001526     -0.418251
     14.77046      8.44038     13.86220         0.000070      0.000342     -0.000419
      8.44043     10.55010     13.86904         0.000032      0.000484     -0.000145
     14.77121     10.55070     11.72069        -0.000226      0.000454      0.000520
      8.44018      8.44495     11.71978         0.000351      0.000378     -0.000472
     14.77102     12.66087      9.61015         0.003309      0.000810      0.038874
      8.44058     14.77102      9.61015        -0.000402     -0.000655      0.042647
     14.77102     14.77102      7.50000         0.004095      0.003382     -0.410063
      8.44058     12.66087      7.50000        -0.000107      0.003967     -0.412192
     14.77110     12.66087     13.86137         0.001068      0.000796      0.000053
      8.44035     14.77031     13.86224         0.000570      0.000397     -0.000023
     14.77110     14.77091     11.72064         0.001116      0.000442      0.000435
      8.44039     12.66032     11.72166        -0.000610     -0.000202     -0.000149
 -----------------------------------------------------------------------------------
    total drift:                               -0.000958      0.021949     -0.025043


--------------------------------------------------------------------------------------------------------



  FREE ENERGIE OF THE ION-ELECTRON SYSTEM (eV)
  ---------------------------------------------------
  free  energy   TOTEN  =     -1256.24960018 eV

  energy  without entropy=    -1256.24960018  energy(sigma->0) =    -1256.24960018

 d Force = 0.4766209E-05[ 0.456E-06, 0.908E-05]  d Energy = 0.5023707E-05-0.257E-06
 d Force =-0.5061504E+00[-0.506E+00,-0.506E+00]  d Ewald  =-0.5061503E+00-0.109E-06


--------------------------------------------------------------------------------------------------------


    POTLOK:  cpu time      1.8159: real time      1.8160


--------------------------------------------------------------------------------------------------------




--------------------------------------------------------------------------------------------------------


  
 reached required accuracy - stopping structural energy minimisation
     LOOP+:  cpu time     52.6519: real time     52.7055
    4ORBIT:  cpu time      0.0000: real time      0.0000

 total amount of memory used by VASP MPI-rank0    99795. kBytes
=======================================================================

   base      :      30000. kBytes
   nonlr-proj:      27601. kBytes
   fftplans  :      12135. kBytes
   grid      :      18768. kBytes
   one-center:        275. kBytes
   wavefun   :      11016. kBytes

  
  
 General timing and accounting informations for this job:
 ========================================================
  
                  Total CPU time used (sec):    13604.016
                            User time (sec):    13441.101
                          System time (sec):      162.915
                         Elapsed time (sec):    13633.613
  
                   Maximum memory used (kb):      346088.
                   Average memory used (kb):          N/A
  
                          Minor page faults:     24547039
                          Major page faults:           52
                 Voluntary context switches:        95878
