 vasp.6.3.0 20Jan22 (build Apr  1 2022 16:44:48) complex                         
 executed on        HPECrayEX_GCC date 2022.11.13  00:36:35
 running  512 mpi-ranks, with    1 threads/rank
 distrk:  each k-point on  512 cores,    1 groups
 distr:  one band on NCORE=   8 cores,   64 groups


--------------------------------------------------------------------------------------------------------


 INCAR:
   SYSTEM = MgO-rocksalt
   ISMEAR = 0
   SIGMA = 0.05
   EDIFF = 1E-6
   ALGO = ALL
   ISTART = 0
   IBRION = -1
   NSW = 0
   ISYM = 0
   DIPOL = 0.5 0.5 0.5
   IDIPOL = 3
   LDIPOL = .TRUE.
   GGA = RE
   IVDW = 13
   VDW_S8 = 1.7468
   VDW_A1 = 0.5363
   VDW_A2 = 3.0726
   ENCUT = 600
   PREC = Accurate
   LASPH = .TRUE.
   LREAL = .FALSE.
   ISPIN = 1
   NELM = 200
   NELMIN = 8
   NCORE = 8
   KPAR = 1
   LWAVE = .FALSE.
   LCHARG = .FALSE.

 POTCAR:    PAW_PBE Mg_pv 13Apr2007               
 POTCAR:    PAW_PBE O 08Apr2002                   
 POTCAR:    PAW_PBE Mg_pv 13Apr2007               
   SHA256 =  f474ac0dd33840b9ae76c01d57fea79fdf77cdfbb07d5ade72c65f83c709b62b Mg_pv/POTCAR          
   COPYR  = (c) Copyright 13Apr2007 Georg Kresse                                                    
   COPYR  = This file is part of the software VASP. Any use, copying, and all other rights are regul
   COPYR  = If you do not have a valid VASP license, you may not use, copy or distribute this file. 
   VRHFIN =Mg: p6s2                                                                                 
   LEXCH  = PE                                                                                      
   EATOM  =  1056.7344 eV,   77.6678 Ry                                                             
                                                                                                    
   TITEL  = PAW_PBE Mg_pv 13Apr2007                                                                 
   LULTRA =        F    use ultrasoft PP ?                                                          
   IUNSCR =        1    unscreen: 0-lin 1-nonlin 2-no                                               
   RPACOR =    1.500    partial core radius                                                         
   POMASS =   24.305; ZVAL   =    8.000    mass and valenz                                          
   RCORE  =    2.000    outmost cutoff radius                                                       
   RWIGS  =    2.000; RWIGS  =    1.058    wigner-seitz radius (au A)                               
   ENMAX  =  403.929; ENMIN  =  302.947 eV                                                          
   RCLOC  =    1.506    cutoff for local pot                                                        
   LCOR   =        T    correct aug charges                                                         
   LPAW   =        T    paw PP                                                                      
   EAUG   =  758.780                                                                                
   DEXC   =    0.000                                                                                
   RMAX   =    2.045    core radius for proj-oper                                                   
   RAUG   =    1.300    factor for augmentation sphere                                              
   RDEP   =    2.025    radius for radial grids                                                     
   RDEPT  =    1.557    core radius for aug-charge                                                  
                                                                                                    
   Atomic configuration                                                                             
    5 entries                                                                                       
     n  l   j            E        occ.                                                              
     1  0  0.50     -1259.6230   2.0000                                                             
     2  0  0.50       -79.8442   2.0000                                                             
     2  1  1.50       -46.6121   6.0000                                                             
     3  0  0.50        -4.7055   2.0000                                                             
     3  2  1.50        -1.3606   0.0000                                                             
   Description                                                                                      
     l       E           TYP  RCUT    TYP  RCUT                                                     
     1    -46.6121073     23  1.600                                                                 
     1      2.7211652     23  1.600                                                                 
     0     -4.7054661     23  2.000                                                                 
     0     61.2262170     23  2.000                                                                 
     2     -1.3605826     23  2.000                                                                 
  local pseudopotential read in
  partial core-charges read in
  partial kinetic energy density read in
  atomic valenz-charges read in
  non local Contribution for L=           1  read in
    real space projection operators read in
  non local Contribution for L=           1  read in
    real space projection operators read in
  non local Contribution for L=           0  read in
    real space projection operators read in
  non local Contribution for L=           0  read in
    real space projection operators read in
  non local Contribution for L=           2  read in
    real space projection operators read in
    PAW grid and wavefunctions read in

   number of l-projection  operators is LMAX  =           5
   number of lm-projection operators is LMMAX =          13

 POTCAR:    PAW_PBE O 08Apr2002                   
   SHA256 =  818f92134a0a090dccd8ba1447fa70422a3b330e708bb4f08108d8ae51209ddf O/POTCAR              
   COPYR  = (c) Copyright 08Apr2002 Georg Kresse                                                    
   COPYR  = This file is part of the software VASP. Any use, copying, and all other rights are regul
   COPYR  = If you do not have a valid VASP license, you may not use, copy or distribute this file. 
   VRHFIN =O: s2p4                                                                                  
   LEXCH  = PE                                                                                      
   EATOM  =   432.3788 eV,   31.7789 Ry                                                             
                                                                                                    
   TITEL  = PAW_PBE O 08Apr2002                                                                     
   LULTRA =        F    use ultrasoft PP ?                                                          
   IUNSCR =        1    unscreen: 0-lin 1-nonlin 2-no                                               
   RPACOR =    1.200    partial core radius                                                         
   POMASS =   16.000; ZVAL   =    6.000    mass and valenz                                          
   RCORE  =    1.520    outmost cutoff radius                                                       
   RWIGS  =    1.550; RWIGS  =    0.820    wigner-seitz radius (au A)                               
   ENMAX  =  400.000; ENMIN  =  300.000 eV                                                          
   ICORE  =        2    local potential                                                             
   LCOR   =        T    correct aug charges                                                         
   LPAW   =        T    paw PP                                                                      
   EAUG   =  605.392                                                                                
   DEXC   =    0.000                                                                                
   RMAX   =    1.553    core radius for proj-oper                                                   
   RAUG   =    1.300    factor for augmentation sphere                                              
   RDEP   =    1.550    radius for radial grids                                                     
   RDEPT  =    1.329    core radius for aug-charge                                                  
                                                                                                    
   Atomic configuration                                                                             
    4 entries                                                                                       
     n  l   j            E        occ.                                                              
     1  0  0.50      -514.6923   2.0000                                                             
     2  0  0.50       -23.9615   2.0000                                                             
     2  1  0.50        -9.0305   4.0000                                                             
     3  2  1.50        -9.5241   0.0000                                                             
   Description                                                                                      
     l       E           TYP  RCUT    TYP  RCUT                                                     
     0    -23.9615318     23  1.200                                                                 
     0     -9.5240782     23  1.200                                                                 
     1     -9.0304911     23  1.520                                                                 
     1      8.1634956     23  1.520                                                                 
     2     -9.5240782      7  1.500                                                                 
  local pseudopotential read in
  partial core-charges read in
  partial kinetic energy density read in
  kinetic energy density of atom read in
  atomic valenz-charges read in
  non local Contribution for L=           0  read in
    real space projection operators read in
  non local Contribution for L=           0  read in
    real space projection operators read in
  non local Contribution for L=           1  read in
    real space projection operators read in
  non local Contribution for L=           1  read in
    real space projection operators read in
    PAW grid and wavefunctions read in

   number of l-projection  operators is LMAX  =           4
   number of lm-projection operators is LMMAX =           8

 -----------------------------------------------------------------------------
|                                                                             |
|               ----> ADVICE to this user running VASP <----                  |
|                                                                             |
|     You have a (more or less) 'large supercell' and for larger cells it     |
|     might be more efficient to use real-space projection operators.         |
|     Therefore, try LREAL= Auto in the INCAR file.                           |
|     Mind: For very accurate calculation, you might also keep the            |
|     reciprocal projection scheme (i.e. LREAL=.FALSE.).                      |
|                                                                             |
 -----------------------------------------------------------------------------

 -----------------------------------------------------------------------------
|                                                                             |
|               ----> ADVICE to this user running VASP <----                  |
|                                                                             |
|     You enforced a specific xc type in the INCAR file but a different       |
|     type was found in the POTCAR file.                                      |
|     I HOPE YOU KNOW WHAT YOU ARE DOING!                                     |
|                                                                             |
 -----------------------------------------------------------------------------

  PAW_PBE Mg_pv 13Apr2007               :
 energy of atom  1       EATOM=-1056.7344
 kinetic energy error for atom=    0.0221 (will be added to EATOM!!)
  PAW_PBE O 08Apr2002                   :
 energy of atom  2       EATOM= -432.3788
 kinetic energy error for atom=    0.0168 (will be added to EATOM!!)


 POSCAR: Mg  O
  positions in direct lattice
  No initial velocities read in
 -----------------------------------------------------------------------------
|                                                                             |
|           W    W    AA    RRRRR   N    N  II  N    N   GGGG   !!!           |
|           W    W   A  A   R    R  NN   N  II  NN   N  G    G  !!!           |
|           W    W  A    A  R    R  N N  N  II  N N  N  G       !!!           |
|           W WW W  AAAAAA  RRRRR   N  N N  II  N  N N  G  GGG   !            |
|           WW  WW  A    A  R   R   N   NN  II  N   NN  G    G                |
|           W    W  A    A  R    R  N    N  II  N    N   GGGG   !!!           |
|                                                                             |
|     Specifying the vdW parameters                                           |
|     VDW_S8 = 1.747                                                          |
|     VDW_A1 = 0.536                                                          |
|     VDW_A2 = 3.073                                                          |
|     in the INCAR file will overwrite the defaults for revpbe. Please        |
|     make sure that is what you intended.                                    |
|                                                                             |
 -----------------------------------------------------------------------------

 exchange correlation table for  LEXCH =       40
   RHO(1)=    0.500       N(1)  =     2000
   RHO(2)=  100.500       N(2)  =     4000



--------------------------------------------------------------------------------------------------------


 ion  position               nearest neighbor table
   1  0.250  0.000  0.352-  33 2.11  35 2.11  36 2.11  43 2.11  52 2.11
   2  0.500  0.250  0.352-  34 2.11  35 2.11  36 2.11  44 2.11  51 2.11
   3  0.250  0.250  0.451-  35 2.11  34 2.11  33 2.11  41 2.11  50 2.11  39 2.12
   4  0.500  0.000  0.451-  40 2.11  36 2.11  33 2.11  34 2.11  42 2.11  49 2.11
   5  0.250  0.000  0.550-  40 2.11  56 2.11  33 2.11  39 2.11  47 2.12  37 2.14
   6  0.500  0.251  0.550-  38 2.10  48 2.10  55 2.11  39 2.12  40 2.12  34 2.13
   7  0.250  0.247  0.648-  37 2.09  39 2.09  38 2.11  54 2.11  45 2.14
   8  0.501  0.000  0.648-  38 2.09  40 2.10  46 2.10  53 2.11  37 2.12
   9  0.250  0.500  0.352-  41 2.11  35 2.11  43 2.11  44 2.11  60 2.11
  10  0.500  0.750  0.352-  42 2.11  36 2.11  43 2.11  44 2.11  59 2.11
  11  0.250  0.750  0.451-  43 2.11  41 2.11  42 2.11  33 2.11  58 2.11  47 2.12
  12  0.500  0.500  0.451-  44 2.11  41 2.11  42 2.11  34 2.11  57 2.11  48 2.13
  13  0.251  0.500  0.550-  48 2.10  39 2.10  47 2.11  64 2.12  41 2.13  45 2.19
  14  0.500  0.749  0.550-  48 2.10  63 2.11  47 2.12  40 2.12  46 2.12  42 2.13
  15  0.249  0.753  0.647-  47 2.08  37 2.08  62 2.11  46 2.11  45 2.14
  16  0.507  0.499  0.654-  61 2.07  38 2.12  46 2.14  48 2.20  45 2.22
  17  0.750  0.000  0.352-  49 2.11  36 2.11  51 2.11  52 2.11  59 2.11
  18  0.000  0.250  0.352-  50 2.11  35 2.11  51 2.11  52 2.11  60 2.11
  19  0.750  0.250  0.451-  51 2.11  49 2.11  50 2.11  34 2.11  57 2.11  55 2.11
  20  0.000  0.000  0.451-  52 2.11  49 2.11  50 2.11  33 2.11  58 2.11  56 2.11
  21  0.750  0.000  0.550-  40 2.11  55 2.11  63 2.11  56 2.11  49 2.11  53 2.14
  22  1.000  0.250  0.550-  55 2.10  39 2.11  64 2.11  56 2.11  50 2.12  54 2.14
  23  0.750  0.249  0.648-  53 2.10  55 2.10  38 2.11  54 2.11  61 2.12
  24  1.000  0.000  0.648-  56 2.10  54 2.10  53 2.10  62 2.11  37 2.11
  25  0.750  0.500  0.352-  57 2.11  51 2.11  44 2.11  59 2.11  60 2.11
  26  0.000  0.750  0.352-  58 2.11  52 2.11  43 2.11  59 2.11  60 2.11
  27  0.750  0.750  0.451-  59 2.11  49 2.11  57 2.11  58 2.11  42 2.11  63 2.11
  28  0.000  0.500  0.451-  60 2.11  50 2.11  57 2.11  58 2.11  41 2.11  64 2.12
  29  0.749  0.500  0.550-  48 2.11  55 2.11  63 2.11  64 2.12  57 2.12  61 2.13
  30  1.000  0.750  0.550-  63 2.10  64 2.11  47 2.11  56 2.11  58 2.12  62 2.14
  31  0.750  0.751  0.648-  63 2.10  53 2.10  62 2.11  46 2.11  61 2.12
  32  0.998  0.500  0.648-  61 2.07  45 2.09  64 2.10  54 2.12  62 2.12
  33  0.250  0.000  0.451-   1 2.11   3 2.11   4 2.11  11 2.11  20 2.11   5 2.11
  34  0.500  0.250  0.451-   2 2.11   3 2.11   4 2.11  12 2.11  19 2.11   6 2.13
  35  0.250  0.250  0.352-   3 2.11   2 2.11   1 2.11   9 2.11  18 2.11
  36  0.500  0.000  0.352-   4 2.11   2 2.11   1 2.11  10 2.11  17 2.11
  37  0.250  1.000  0.650-  15 2.08   7 2.09  24 2.11   8 2.12   5 2.14
  38  0.500  0.248  0.649-   8 2.09   6 2.10   7 2.11  23 2.11  16 2.12
  39  0.250  0.251  0.550-   7 2.09  13 2.10  22 2.11   5 2.11   6 2.12   3 2.12
  40  0.500  1.000  0.549-   8 2.10   4 2.11   5 2.11  21 2.11  14 2.12   6 2.12
  41  0.250  0.500  0.451-   9 2.11   3 2.11  11 2.11  12 2.11  28 2.11  13 2.13
  42  0.500  0.750  0.451-  10 2.11   4 2.11  11 2.11  12 2.11  27 2.11  14 2.13
  43  0.250  0.750  0.352-  11 2.11   9 2.11  10 2.11   1 2.11  26 2.11
  44  0.500  0.500  0.352-  12 2.11   9 2.11  10 2.11   2 2.11  25 2.11
  45  0.245  0.500  0.653-  32 2.09  15 2.14   7 2.14  13 2.19  16 2.22
  46  0.500  0.752  0.650-   8 2.10  15 2.11  31 2.11  14 2.12  16 2.14
  47  0.250  0.749  0.550-  15 2.08  13 2.11  30 2.11  14 2.12  11 2.12   5 2.12
  48  0.500  0.500  0.551-  13 2.10  14 2.10   6 2.10  29 2.11  12 2.13  16 2.20
  49  0.750  0.000  0.451-  17 2.11   4 2.11  19 2.11  20 2.11  27 2.11  21 2.11
  50  0.000  0.250  0.451-  18 2.11   3 2.11  19 2.11  20 2.11  28 2.11  22 2.12
  51  0.750  0.250  0.352-  19 2.11  17 2.11  18 2.11   2 2.11  25 2.11
  52  0.000  0.000  0.352-  20 2.11  17 2.11  18 2.11   1 2.11  26 2.11
  53  0.750  1.000  0.650-  31 2.10  23 2.10  24 2.10   8 2.11  21 2.14
  54  0.000  0.249  0.650-  24 2.10  23 2.11   7 2.11  32 2.12  22 2.14
  55  0.750  0.250  0.550-  23 2.10  22 2.10  29 2.11  21 2.11   6 2.11  19 2.11
  56  0.000  1.000  0.549-  24 2.10   5 2.11  20 2.11  30 2.11  22 2.11  21 2.11
  57  0.750  0.500  0.451-  25 2.11  19 2.11  12 2.11  27 2.11  28 2.11  29 2.12
  58  0.000  0.750  0.451-  26 2.11  20 2.11  11 2.11  27 2.11  28 2.11  30 2.12
  59  0.750  0.750  0.352-  27 2.11  17 2.11  25 2.11  26 2.11  10 2.11
  60  0.000  0.500  0.352-  28 2.11  18 2.11  25 2.11  26 2.11   9 2.11
  61  0.752  0.500  0.650-  32 2.07  16 2.07  31 2.12  23 2.12  29 2.13
  62  0.000  0.751  0.650-  24 2.11  15 2.11  31 2.11  32 2.12  30 2.14
  63  0.750  0.750  0.550-  31 2.10  30 2.10  14 2.11  29 2.11  21 2.11  27 2.11
  64  0.001  0.500  0.550-  32 2.10  30 2.11  22 2.11  13 2.12  28 2.12  29 2.12


IMPORTANT INFORMATION: All symmetrisations will be switched off!
NOSYMM: (Re-)initialisation of all symmetry stuff for point group C_1.


----------------------------------------------------------------------------------------

                                     Primitive cell                                     

  volume of cell :    1519.6535

  direct lattice vectors                    reciprocal lattice vectors
     8.440582262  0.000000000  0.000000000     0.118475239  0.000000000  0.000000000
     0.000000000  8.440582262  0.000000000     0.000000000  0.118475239  0.000000000
     0.000000000  0.000000000 21.330436697     0.000000000  0.000000000  0.046881366

  length of vectors
     8.440582262  8.440582262 21.330436697     0.118475239  0.118475239  0.046881366

  position of ions in fractional coordinates (direct lattice)
     0.250000000  0.000000000  0.351610242
     0.500000000  0.250000000  0.351610242
     0.250000000  0.250000000  0.450536747
     0.500000000  0.000000000  0.450536747
     0.250275984  0.000181833  0.549547927
     0.500233635  0.250994585  0.550252766
     0.250197088  0.247127418  0.647900728
     0.500547696  0.000338013  0.647714875
     0.250000000  0.500000000  0.351610242
     0.500000000  0.750000000  0.351610242
     0.250000000  0.750000000  0.450536747
     0.500000000  0.500000000  0.450536747
     0.251119012  0.499775446  0.550246716
     0.500293751  0.748806223  0.550300309
     0.249456974  0.752821283  0.647063874
     0.507049029  0.498975491  0.653798276
     0.750000000  0.000000000  0.351610242
     0.000000000  0.250000000  0.351610242
     0.750000000  0.250000000  0.450536747
     0.000000000  0.000000000  0.450536747
     0.749760343  0.000045148  0.549670036
     0.999836682  0.250122241  0.549854123
     0.749933221  0.248831170  0.648198037
     0.999510315  0.000068415  0.648051762
     0.750000000  0.500000000  0.351610242
     0.000000000  0.750000000  0.351610242
     0.750000000  0.750000000  0.450536747
     0.000000000  0.500000000  0.450536747
     0.749106760  0.499837223  0.550130778
     0.999676900  0.749774997  0.549740567
     0.750283905  0.750979646  0.647954870
     0.997514673  0.499754738  0.648064495
     0.250000000  0.000000000  0.450536747
     0.500000000  0.250000000  0.450536747
     0.250000000  0.250000000  0.351610242
     0.500000000  0.000000000  0.351610242
     0.249648063  0.999729563  0.649820843
     0.500010990  0.247998300  0.648792780
     0.249610070  0.250592327  0.549817055
     0.499851933  0.999676256  0.549284267
     0.250000000  0.500000000  0.450536747
     0.500000000  0.750000000  0.450536747
     0.250000000  0.750000000  0.351610242
     0.500000000  0.500000000  0.351610242
     0.244629436  0.500291533  0.652656692
     0.499812112  0.751634208  0.649718712
     0.249707355  0.749334355  0.549713906
     0.499535807  0.500088811  0.550598365
     0.750000000  0.000000000  0.450536747
     0.000000000  0.250000000  0.450536747
     0.750000000  0.250000000  0.351610242
     0.000000000  0.000000000  0.351610242
     0.750378106  0.999781164  0.649935477
     0.000018145  0.249168220  0.650067892
     0.750470891  0.250005605  0.549569804
     0.000213649  0.999879192  0.549499120
     0.750000000  0.500000000  0.450536747
     0.000000000  0.750000000  0.450536747
     0.750000000  0.750000000  0.351610242
     0.000000000  0.500000000  0.351610242
     0.752267862  0.500069222  0.650138416
     0.000009285  0.750673450  0.650046177
     0.750288400  0.749869226  0.549601406
     0.000531656  0.500013413  0.549755455

  ion indices of the primitive-cell ions
   primitive index   ion index
                 1           1
                 2           2
                 3           3
                 4           4
                 5           5
                 6           6
                 7           7
                 8           8
                 9           9
                10          10
                11          11
                12          12
                13          13
                14          14
                15          15
                16          16
                17          17
                18          18
                19          19
                20          20
                21          21
                22          22
                23          23
                24          24
                25          25
                26          26
                27          27
                28          28
                29          29
                30          30
                31          31
                32          32
                33          33
                34          34
                35          35
                36          36
                37          37
                38          38
                39          39
                40          40
                41          41
                42          42
                43          43
                44          44
                45          45
                46          46
                47          47
                48          48
                49          49
                50          50
                51          51
                52          52
                53          53
                54          54
                55          55
                56          56
                57          57
                58          58
                59          59
                60          60
                61          61
                62          62
                63          63
                64          64

----------------------------------------------------------------------------------------



 KPOINTS: pymatgen v2020.8.13 with grid density = 

Automatic generation of k-mesh.
 Grid dimensions read from file:
 generate k-points for:    2    2    1

 Generating k-lattice:

  Cartesian coordinates                     Fractional coordinates (reciprocal lattice)
     0.059237619  0.000000000  0.000000000     0.500000000  0.000000000  0.000000000
     0.000000000  0.059237619  0.000000000     0.000000000  0.500000000  0.000000000
     0.000000000  0.000000000  0.046881366     0.000000000  0.000000000  1.000000000

  Length of vectors
     0.059237619  0.059237619  0.046881366

  Shift w.r.t. Gamma in fractional coordinates (k-lattice)
     0.000000000  0.000000000  0.000000000

 
 Subroutine IBZKPT returns following result:
 ===========================================
 
 Found      4 irreducible k-points:
 
 Following reciprocal coordinates:
            Coordinates               Weight
  0.000000  0.000000  0.000000      1.000000
  0.500000  0.000000  0.000000      1.000000
  0.000000  0.500000  0.000000      1.000000
  0.500000  0.500000  0.000000      1.000000
 
 Following cartesian coordinates:
            Coordinates               Weight
  0.000000  0.000000  0.000000      1.000000
  0.059238  0.000000  0.000000      1.000000
  0.000000  0.059238  0.000000      1.000000
  0.059238  0.059238  0.000000      1.000000
 


--------------------------------------------------------------------------------------------------------




 Dimension of arrays:
   k-points           NKPTS =      4   k-points in BZ     NKDIM =      4   number of bands    NBANDS=    320
   number of dos      NEDOS =    301   number of ions     NIONS =     64
   non local maximal  LDIM  =      5   non local SUM 2l+1 LMDIM =     13
   total plane-waves  NPLWV = 882000
   max r-space proj   IRMAX =      1   max aug-charges    IRDMAX=  11637
   dimension x,y,z NGX =    70 NGY =   70 NGZ =  180
   dimension x,y,z NGXF=   140 NGYF=  140 NGZF=  360
   support grid    NGXF=   140 NGYF=  140 NGZF=  360
   ions per type =              32  32
   NGX,Y,Z   is equivalent  to a cutoff of  13.79, 13.79, 14.03 a.u.
   NGXF,Y,Z  is equivalent  to a cutoff of  27.57, 27.57, 28.06 a.u.

 SYSTEM =  MgO-rocksalt                            
 POSCAR =  Mg  O                                   

--------------------------------------------------------------------------------------------------------


  energy-cutoff  :      600.00
  volume of cell :     1519.65
      direct lattice vectors                 reciprocal lattice vectors
     8.440582262  0.000000000  0.000000000     0.118475239  0.000000000  0.000000000
     0.000000000  8.440582262  0.000000000     0.000000000  0.118475239  0.000000000
     0.000000000  0.000000000 21.330436697     0.000000000  0.000000000  0.046881366

  length of vectors
     8.440582262  8.440582262 21.330436697     0.118475239  0.118475239  0.046881366



 k-points in units of 2pi/SCALE and weight: pymatgen v2020.8.13 with grid density = 
   0.00000000  0.00000000  0.00000000       0.250
   0.05923762  0.00000000  0.00000000       0.250
   0.00000000  0.05923762  0.00000000       0.250
   0.05923762  0.05923762  0.00000000       0.250

 k-points in reciprocal lattice and weights: pymatgen v2020.8.13 with grid density = 
   0.00000000  0.00000000  0.00000000       0.250
   0.50000000  0.00000000  0.00000000       0.250
   0.00000000  0.50000000  0.00000000       0.250
   0.50000000  0.50000000  0.00000000       0.250

 position of ions in fractional coordinates (direct lattice) 
   0.25000000  0.00000000  0.35161024
   0.50000000  0.25000000  0.35161024
   0.25000000  0.25000000  0.45053675
   0.50000000  0.00000000  0.45053675
   0.25027598  0.00018183  0.54954793
   0.50023363  0.25099459  0.55025277
   0.25019709  0.24712742  0.64790073
   0.50054770  0.00033801  0.64771487
   0.25000000  0.50000000  0.35161024
   0.50000000  0.75000000  0.35161024
   0.25000000  0.75000000  0.45053675
   0.50000000  0.50000000  0.45053675
   0.25111901  0.49977545  0.55024672
   0.50029375  0.74880622  0.55030031
   0.24945697  0.75282128  0.64706387
   0.50704903  0.49897549  0.65379828
   0.75000000  0.00000000  0.35161024
   0.00000000  0.25000000  0.35161024
   0.75000000  0.25000000  0.45053675
   0.00000000  0.00000000  0.45053675
   0.74976034  0.00004515  0.54967004
   0.99983668  0.25012224  0.54985412
   0.74993322  0.24883117  0.64819804
   0.99951032  0.00006841  0.64805176
   0.75000000  0.50000000  0.35161024
   0.00000000  0.75000000  0.35161024
   0.75000000  0.75000000  0.45053675
   0.00000000  0.50000000  0.45053675
   0.74910676  0.49983722  0.55013078
   0.99967690  0.74977500  0.54974057
   0.75028391  0.75097965  0.64795487
   0.99751467  0.49975474  0.64806449
   0.25000000  0.00000000  0.45053675
   0.50000000  0.25000000  0.45053675
   0.25000000  0.25000000  0.35161024
   0.50000000  0.00000000  0.35161024
   0.24964806  0.99972956  0.64982084
   0.50001099  0.24799830  0.64879278
   0.24961007  0.25059233  0.54981705
   0.49985193  0.99967626  0.54928427
   0.25000000  0.50000000  0.45053675
   0.50000000  0.75000000  0.45053675
   0.25000000  0.75000000  0.35161024
   0.50000000  0.50000000  0.35161024
   0.24462944  0.50029153  0.65265669
   0.49981211  0.75163421  0.64971871
   0.24970736  0.74933435  0.54971391
   0.49953581  0.50008881  0.55059837
   0.75000000  0.00000000  0.45053675
   0.00000000  0.25000000  0.45053675
   0.75000000  0.25000000  0.35161024
   0.00000000  0.00000000  0.35161024
   0.75037811  0.99978116  0.64993548
   0.00001814  0.24916822  0.65006789
   0.75047089  0.25000560  0.54956980
   0.00021365  0.99987919  0.54949912
   0.75000000  0.50000000  0.45053675
   0.00000000  0.75000000  0.45053675
   0.75000000  0.75000000  0.35161024
   0.00000000  0.50000000  0.35161024
   0.75226786  0.50006922  0.65013842
   0.00000929  0.75067345  0.65004618
   0.75028840  0.74986923  0.54960141
   0.00053166  0.50001341  0.54975546

 position of ions in cartesian coordinates  (Angst):
   2.11014557  0.00000000  7.50000000
   4.22029113  2.11014557  7.50000000
   2.11014557  2.11014557  9.61014557
   4.22029113  0.00000000  9.61014557
   2.11247503  0.00153477 11.72209726
   4.22226315  2.11854044 11.73713178
   2.11180911  2.08589930 13.82000546
   4.22491400  0.00285303 13.81604113
   2.11014557  4.22029113  7.50000000
   4.22029113  6.33043670  7.50000000
   2.11014557  6.33043670  9.61014557
   4.22029113  4.22029113  9.61014557
   2.11959068  4.21839576 11.73700275
   4.22277056  6.32036053 11.73814591
   2.10556211  6.35424997 13.80215501
   4.27978904  4.21164368 13.94580273
   6.33043670  0.00000000  7.50000000
   0.00000000  2.11014557  7.50000000
   6.33043670  2.11014557  9.61014557
   0.00000000  0.00000000  9.61014557
   6.32841385  0.00038107 11.72470191
   8.43920376  2.11117735 11.72862856
   6.32987304  2.10027996 13.82634719
   8.43644904  0.00057746 13.82322708
   6.33043670  4.22029113  7.50000000
   0.00000000  6.33043670  7.50000000
   6.33043670  6.33043670  9.61014557
   0.00000000  4.22029113  9.61014557
   6.32289723  4.21891720 11.73452975
   8.43785511  6.32853754 11.72620636
   6.33283302  6.33870548 13.82116034
   8.41960466  4.21822097 13.82349868
   2.11014557  0.00000000  9.61014557
   4.22029113  2.11014557  9.61014557
   2.11014557  2.11014557  7.50000000
   4.22029113  0.00000000  7.50000000
   2.10717501  8.43829962 13.86096235
   4.22038389  2.09325005 13.83903332
   2.10685433  2.11514515 11.72783788
   4.21904136  8.43784967 11.71647329
   2.11014557  4.22029113  9.61014557
   4.22029113  6.33043670  9.61014557
   2.11014557  6.33043670  7.50000000
   4.22029113  4.22029113  7.50000000
   2.06481488  4.22275184 13.92145226
   4.21870525  6.34423036 13.85878387
   2.10767548  6.32481826 11.72563767
   4.21637307  4.22104075 11.74450358
   6.33043670  0.00000000  9.61014557
   0.00000000  2.11014557  9.61014557
   6.33043670  2.11014557  7.50000000
   0.00000000  0.00000000  7.50000000
   6.33362813  8.43873516 13.86340755
   0.00015315  2.10312485 13.86623202
   6.33441129  2.11019287 11.72256390
   0.00180332  8.43956258 11.72105620
   6.33043670  4.22029113  9.61014557
   0.00000000  6.33043670  9.61014557
   6.33043670  6.33043670  7.50000000
   0.00000000  4.22029113  7.50000000
   6.34957877  4.22087541 13.86773633
   0.00007837  6.33612100 13.86576882
   6.33287096  6.32933289 11.72323801
   0.00448748  4.22040435 11.72652394



--------------------------------------------------------------------------------------------------------

--------------------------------------- Iteration      FINAL  ---------------------------------------


--------------------OUTCAR has been truncated-------------------------


--------------------OUTCAR has been truncated-------------------------


--------------------OUTCAR has been truncated-------------------------


--------------------OUTCAR has been truncated-------------------------


--------------------OUTCAR has been truncated-------------------------


--------------------OUTCAR has been truncated-------------------------


--------------------OUTCAR has been truncated-------------------------


--------------------OUTCAR has been truncated-------------------------


--------------------OUTCAR has been truncated-------------------------


--------------------OUTCAR has been truncated-------------------------



  FORCE on cell =-STRESS in cart. coord.  units (eV):
  Direction    XX          YY          ZZ          XY          YZ          ZX
  --------------------------------------------------------------------------------------
  Alpha Z   875.35513   875.35513   875.35513
  Ewald  161459.18902161454.63832************     0.36190     0.11617    -1.97850
  Hartree171548.01971171545.63659************     0.22975     0.04411    -0.74173
  E(xc)   -2465.49423 -2465.50372 -2473.74066     0.00052    -0.00069     0.00009
  Local  ************************343256.56252    -0.59277    -0.14416     2.54219
  n-local -2795.13656 -2795.21513 -2815.76817     0.00258    -0.00814    -0.00062
  augment  1046.59477  1046.58570  1037.07596     0.00185    -0.00299     0.02241
  Kinetic  7310.36132  7310.41102  7350.22647    -0.00205     0.06068     0.12128
  Fock        0.00000     0.00000     0.00000     0.00000     0.00000     0.00000
  vdW       -21.52945   -21.52820   -16.19542    -0.00032     0.00024     0.00092
  -------------------------------------------------------------------------------------
  Total     -25.69960   -25.85010     0.01144     0.00146     0.06522    -0.03396
  in kB     -27.09520   -27.25388     0.01206     0.00154     0.06876    -0.03581
  external pressure =      -18.11 kB  Pullay stress =        0.00 kB


 VOLUME and BASIS-vectors are now :
 -----------------------------------------------------------------------------
  energy-cutoff  :      600.00
  volume of cell :     1519.65
      direct lattice vectors                 reciprocal lattice vectors
     8.440582262  0.000000000  0.000000000     0.118475239  0.000000000  0.000000000
     0.000000000  8.440582262  0.000000000     0.000000000  0.118475239  0.000000000
     0.000000000  0.000000000 21.330436697     0.000000000  0.000000000  0.046881366

  length of vectors
     8.440582262  8.440582262 21.330436697     0.118475239  0.118475239  0.046881366


 FORCES acting on ions:
    Electron-Ion                     Ewald-Force                    Non-Local-Force
 -----------------------------------------------------------------------------------------------
   -.200E+00 -.794E-02 0.207E+04   0.202E+00 0.796E-02 -.206E+04   -.949E-03 -.564E-04 -.714E+01
   0.136E+00 -.425E+00 0.207E+04   -.138E+00 0.435E+00 -.206E+04   0.130E-02 -.716E-02 -.716E+01
   -.117E+01 -.180E+01 0.684E+03   0.117E+01 0.190E+01 -.684E+03   0.112E-02 -.663E-01 0.515E+00
   0.326E+00 -.756E-02 0.686E+03   -.317E+00 -.199E-01 -.687E+03   -.681E-02 0.198E-01 0.338E+00
   -.688E+00 0.433E-01 -.683E+03   0.646E+00 -.453E-02 0.683E+03   0.103E-01 -.459E-01 -.121E+00
   0.264E+01 -.545E+01 -.689E+03   -.271E+01 0.587E+01 0.689E+03   0.271E-01 -.383E+00 -.677E+00
   -.364E+01 -.136E+02 -.205E+04   0.309E+01 0.138E+02 0.204E+04   0.407E+00 0.172E+00 0.634E+01
   0.181E+01 0.199E+01 -.205E+04   -.170E+01 -.214E+01 0.205E+04   -.133E+00 0.648E-01 0.637E+01
   -.278E+00 0.824E-02 0.207E+04   0.284E+00 -.833E-02 -.206E+04   -.489E-02 0.124E-03 -.719E+01
   0.129E+00 0.424E+00 0.207E+04   -.131E+00 -.435E+00 -.206E+04   0.914E-03 0.763E-02 -.718E+01
   -.131E+01 0.178E+01 0.684E+03   0.134E+01 -.188E+01 -.685E+03   -.205E-01 0.673E-01 0.486E+00
   0.692E+00 -.239E-01 0.680E+03   -.736E+00 0.413E-01 -.681E+03   0.324E-01 -.133E-01 0.666E+00
   -.560E+01 -.489E-01 -.706E+03   0.579E+01 0.121E-01 0.706E+03   -.218E+00 0.429E-01 -.823E-01
   0.251E+01 0.557E+01 -.693E+03   -.254E+01 -.597E+01 0.694E+03   -.846E-02 0.374E+00 -.528E+00
   -.609E+01 0.136E+02 -.204E+04   0.568E+01 -.138E+02 0.204E+04   0.373E+00 -.145E+00 0.613E+01
   0.267E+02 -.255E+01 -.210E+04   -.264E+02 0.271E+01 0.209E+04   -.109E+01 -.416E-01 0.724E+01
   0.200E+00 -.155E-02 0.207E+04   -.201E+00 0.860E-03 -.206E+04   0.855E-03 0.497E-03 -.715E+01
   -.135E+00 -.348E+00 0.207E+04   0.138E+00 0.352E+00 -.206E+04   -.144E-02 -.338E-02 -.716E+01
   0.117E+01 -.151E+01 0.686E+03   -.116E+01 0.153E+01 -.686E+03   -.306E-02 -.178E-01 0.480E+00
   -.307E+00 -.126E+00 0.687E+03   0.300E+00 0.134E+00 -.687E+03   0.527E-02 -.529E-02 0.394E+00
   0.526E+00 0.216E+00 -.685E+03   -.490E+00 -.213E+00 0.685E+03   -.302E-02 -.122E-01 -.112E+00
   -.211E+01 -.224E+01 -.687E+03   0.217E+01 0.232E+01 0.688E+03   -.187E-01 -.693E-01 -.331E+00
   0.872E+00 -.222E+01 -.206E+04   -.281E+00 0.148E+01 0.205E+04   -.423E+00 0.643E+00 0.659E+01
   -.154E+01 0.129E+00 -.205E+04   0.143E+01 -.144E+00 0.205E+04   0.132E+00 -.222E-02 0.634E+01
   0.278E+00 0.119E-02 0.207E+04   -.284E+00 -.740E-03 -.206E+04   0.461E-02 -.299E-03 -.715E+01
   -.129E+00 0.347E+00 0.207E+04   0.130E+00 -.352E+00 -.206E+04   -.834E-03 0.357E-02 -.716E+01
   0.130E+01 0.149E+01 0.686E+03   -.133E+01 -.152E+01 -.686E+03   0.217E-01 0.207E-01 0.489E+00
   -.668E+00 0.119E+00 0.684E+03   0.718E+00 -.131E+00 -.685E+03   -.357E-01 0.810E-02 0.429E+00
   0.357E+01 -.233E+00 -.690E+03   -.378E+01 0.231E+00 0.690E+03   0.224E+00 0.101E-01 -.565E-01
   -.193E+01 0.226E+01 -.686E+03   0.195E+01 -.233E+01 0.686E+03   0.171E-01 0.671E-01 -.315E+00
   0.290E+01 0.229E+01 -.205E+04   -.245E+01 -.158E+01 0.205E+04   -.365E+00 -.624E+00 0.647E+01
   -.697E+01 -.121E+00 -.205E+04   0.805E+01 0.141E+00 0.204E+04   -.705E+00 -.639E-04 0.597E+01
   -.448E+00 -.303E-02 0.515E+03   0.449E+00 -.719E-02 -.515E+03   -.323E-02 0.131E-01 0.253E-01
   0.556E+00 -.145E+01 0.512E+03   -.566E+00 0.140E+01 -.512E+03   0.118E-01 0.605E-01 -.125E+00
   -.180E+00 -.304E+00 0.155E+04   0.181E+00 0.315E+00 -.156E+04   -.139E-02 -.160E-01 0.341E+01
   0.789E-01 0.166E-02 0.155E+04   -.783E-01 -.388E-02 -.156E+04   -.871E-03 0.311E-02 0.341E+01
   -.131E+01 -.279E-02 -.156E+04   0.124E+01 -.770E-01 0.156E+04   0.142E+00 0.129E+00 -.487E+01
   0.469E+01 -.742E+01 -.155E+04   -.512E+01 0.747E+01 0.155E+04   0.547E+00 0.139E+00 -.366E+01
   -.189E+01 -.427E+01 -.513E+03   0.185E+01 0.436E+01 0.512E+03   0.830E-01 -.165E+00 0.350E+00
   0.458E+00 0.362E+00 -.506E+03   -.479E+00 -.388E+00 0.506E+03   0.391E-01 0.485E-01 0.487E+00
   -.919E+00 0.688E-02 0.511E+03   0.862E+00 0.460E-02 -.511E+03   0.751E-01 -.149E-01 -.184E+00
   0.515E+00 0.144E+01 0.512E+03   -.530E+00 -.138E+01 -.511E+03   0.179E-01 -.773E-01 -.166E+00
   -.192E+00 0.304E+00 0.155E+04   0.197E+00 -.315E+00 -.156E+04   -.633E-02 0.160E-01 0.341E+01
   0.110E+00 -.116E-02 0.155E+04   -.116E+00 0.385E-02 -.156E+04   0.871E-02 -.379E-02 0.340E+01
   -.170E+02 -.126E-01 -.157E+04   0.174E+02 0.136E+00 0.158E+04   0.142E+00 -.185E+00 -.501E+01
   0.472E+01 0.795E+01 -.155E+04   -.521E+01 -.809E+01 0.156E+04   0.621E+00 -.354E-01 -.417E+01
   -.249E+01 0.425E+01 -.510E+03   0.247E+01 -.434E+01 0.509E+03   0.541E-01 0.160E+00 0.553E+00
   0.426E+01 -.422E+00 -.534E+03   -.447E+01 0.439E+00 0.535E+03   0.302E+00 -.358E-01 -.889E+00
   0.441E+00 0.272E-01 0.515E+03   -.444E+00 -.280E-01 -.515E+03   0.685E-02 0.532E-03 -.100E-01
   -.538E+00 -.101E+01 0.514E+03   0.545E+00 0.102E+01 -.514E+03   -.693E-02 -.131E-01 -.932E-01
   0.179E+00 -.273E+00 0.155E+04   -.180E+00 0.277E+00 -.156E+04   0.155E-02 -.642E-02 0.341E+01
   -.786E-01 -.114E-01 0.155E+04   0.779E-01 0.124E-01 -.156E+04   0.102E-02 -.147E-02 0.341E+01
   0.108E+01 0.204E+00 -.156E+04   -.987E+00 -.280E+00 0.156E+04   -.167E+00 0.113E+00 -.475E+01
   -.246E+01 -.245E+01 -.156E+04   0.285E+01 0.285E+01 0.156E+04   -.521E+00 -.457E+00 -.489E+01
   0.151E+01 -.182E+01 -.510E+03   -.147E+01 0.178E+01 0.509E+03   -.801E-01 0.457E-01 0.410E+00
   -.353E+00 -.173E+00 -.509E+03   0.374E+00 0.163E+00 0.509E+03   -.422E-01 0.172E-01 0.186E+00
   0.922E+00 -.375E-01 0.512E+03   -.873E+00 0.438E-01 -.512E+03   -.642E-01 -.780E-02 -.817E-01
   -.509E+00 0.997E+00 0.514E+03   0.526E+00 -.100E+01 -.514E+03   -.212E-01 0.581E-02 -.640E-01
   0.192E+00 0.273E+00 0.155E+04   -.197E+00 -.277E+00 -.156E+04   0.617E-02 0.622E-02 0.341E+01
   -.110E+00 0.118E-01 0.155E+04   0.116E+00 -.126E-01 -.156E+04   -.835E-02 0.120E-02 0.340E+01
   0.101E+01 -.300E+00 -.156E+04   -.282E+00 0.397E+00 0.156E+04   -.969E+00 -.141E+00 -.387E+01
   -.207E+01 0.248E+01 -.156E+04   0.245E+01 -.290E+01 0.157E+04   -.513E+00 0.475E+00 -.503E+01
   0.209E+01 0.182E+01 -.510E+03   -.207E+01 -.179E+01 0.509E+03   -.471E-01 -.454E-01 0.443E+00
   -.274E+01 0.174E+00 -.511E+03   0.296E+01 -.167E+00 0.511E+03   -.326E+00 -.138E-01 0.287E+00
 -----------------------------------------------------------------------------------------------
   0.249E+01 -.794E-01 0.121E+02   0.171E-12 -.118E-12 0.227E-12   -.249E+01 0.788E-01 -.121E+02


 POSITION                                       TOTAL-FORCE (eV/Angst)
 -----------------------------------------------------------------------------------
      2.11015      0.00000      7.50000         0.000368     -0.000034      0.334341
      4.22029      2.11015      7.50000        -0.000533      0.002268      0.338981
      2.11015      2.11015      9.61015         0.001472      0.024846      0.068681
      4.22029      0.00000      9.61015         0.002802     -0.007560      0.055265
      2.11248      0.00153     11.72210        -0.031632     -0.006509     -0.038661
      4.22226      2.11854     11.73713        -0.037720      0.030207     -0.137650
      2.11181      2.08590     13.82001        -0.138436      0.342759      0.047684
      4.22491      0.00285     13.81604        -0.023154     -0.091028     -0.005492
      2.11015      4.22029      7.50000         0.001374      0.000055      0.344518
      4.22029      6.33044      7.50000        -0.000439     -0.002375      0.342252
      2.11015      6.33044      9.61015         0.009207     -0.024895      0.070371
      4.22029      4.22029      9.61015        -0.011562      0.004156      0.092951
      2.11959      4.21840     11.73700        -0.021994      0.005556      0.183099
      4.22277      6.32036     11.73815        -0.035982     -0.027800     -0.076067
      2.10556      6.35425     13.80216        -0.040470     -0.354905      0.215234
      4.27979      4.21164     13.94580        -0.700882      0.118615     -0.752339
      6.33044      0.00000      7.50000        -0.000328     -0.000182      0.336858
      0.00000      2.11015      7.50000         0.000568      0.001293      0.340316
      6.33044      2.11015      9.61015        -0.000733      0.007230      0.045761
      0.00000      0.00000      9.61015        -0.002109      0.002043      0.052293
      6.32841      0.00038     11.72470         0.032276     -0.007899     -0.044058
      8.43920      2.11118     11.72863         0.036074      0.010720     -0.007289
      6.32987      2.10028     13.82635         0.165753     -0.092347     -0.110764
      8.43645      0.00058     13.82323         0.019012     -0.017130     -0.017278
      6.33044      4.22029      7.50000        -0.001311      0.000157      0.337496
      0.00000      6.33044      7.50000         0.000411     -0.001330      0.338706
      6.33044      6.33044      9.61015        -0.010284     -0.008598      0.047720
      0.00000      4.22029      9.61015         0.014225     -0.003503      0.090755
      6.32290      4.21892     11.73453         0.015815      0.007811     -0.120794
      8.43786      6.32854     11.72621         0.034914     -0.010498      0.005285
      6.33283      6.33871     13.82116         0.087484      0.084977     -0.038710
      8.41960      4.21822     13.82350         0.372591      0.019822      0.097093
      2.11015      0.00000      9.61015        -0.002337      0.002895      0.052453
      4.22029      2.11015      9.61015         0.001847      0.014692      0.083848
      2.11015      2.11015      7.50000        -0.000399     -0.004647     -0.502321
      4.22029      0.00000      7.50000        -0.000252      0.000901     -0.500906
      2.10718      8.43830     13.86096         0.069512      0.048710      0.079346
      4.22038      2.09325     13.83903         0.115812      0.191049      0.447032
      2.10685      2.11515     11.72784         0.045308     -0.074518     -0.058685
      4.21904      8.43785     11.71647         0.018045      0.022671      0.049304
      2.11015      4.22029      9.61015         0.017519     -0.003429      0.063718
      4.22029      6.33044      9.61015         0.003417     -0.019071      0.075432
      2.11015      6.33044      7.50000        -0.001837      0.004665     -0.502437
      4.22029      4.22029      7.50000         0.002528     -0.001096     -0.505721
      2.06481      4.22275     13.92145         0.534001     -0.061844     -0.099189
      4.21871      6.34423     13.85878         0.132368     -0.176502      0.273099
      2.10768      6.32482     11.72564         0.031900      0.073593     -0.078206
      4.21637      4.22104     11.74450         0.096073     -0.018928      0.007956
      6.33044      0.00000      9.61015         0.003300     -0.000258      0.053758
      0.00000      2.11015      9.61015        -0.000520     -0.003487      0.049357
      6.33044      2.11015      7.50000         0.000450     -0.001840     -0.501064
      0.00000      0.00000      7.50000         0.000302     -0.000425     -0.500135
      6.33363      8.43874     13.86341        -0.074429      0.036904      0.100277
      0.00015      2.10312     13.86623        -0.127551     -0.057385      0.068179
      6.33441      2.11019     11.72256        -0.046507      0.009987      0.029745
      0.00180      8.43956     11.72106        -0.020485      0.007589     -0.025089
      6.33044      4.22029      9.61015        -0.015402     -0.001533      0.083666
      0.00000      6.33044      9.61015        -0.004084      0.001717      0.046019
      6.33044      6.33044      7.50000         0.001795      0.001789     -0.501457
      0.00000      4.22029      7.50000        -0.002417      0.000357     -0.502945
      6.34958      4.22088     13.86774        -0.241154     -0.043625      0.284794
      0.00008      6.33612     13.86577        -0.137519      0.061170      0.034250
      6.33287      6.32933     11.72324        -0.032102     -0.009463      0.009080
      0.00449      4.22040     11.72652        -0.103961     -0.006555     -0.049718
 -----------------------------------------------------------------------------------
    total drift:                               -0.000069     -0.000600      0.020724


--------------------------------------------------------------------------------------------------------



  FREE ENERGIE OF THE ION-ELECTRON SYSTEM (eV)
  ---------------------------------------------------
  free  energy   TOTEN  =      -371.17474324 eV

  energy  without entropy=     -371.17474324  energy(sigma->0) =     -371.17474324



--------------------------------------------------------------------------------------------------------


    POTLOK:  cpu time      0.1947: real time      0.1949


--------------------------------------------------------------------------------------------------------


     LOOP+:  cpu time     69.5397: real time     69.6986
    4ORBIT:  cpu time      0.0000: real time      0.0000

 total amount of memory used by VASP MPI-rank0    60508. kBytes
=======================================================================

   base      :      30000. kBytes
   nonl-proj :      11878. kBytes
   fftplans  :       4923. kBytes
   grid      :       7379. kBytes
   one-center:         64. kBytes
   wavefun   :       6264. kBytes

  
  
 General timing and accounting informations for this job:
 ========================================================
  
                  Total CPU time used (sec):      102.197
                            User time (sec):      101.101
                          System time (sec):        1.096
                         Elapsed time (sec):      111.909
  
                   Maximum memory used (kb):      158940.
                   Average memory used (kb):          N/A
  
                          Minor page faults:        33545
                          Major page faults:            0
                 Voluntary context switches:        12434
