 vasp.6.4.2 20Jul23 (build Feb 22 2024 13:53:45) complex                         
 executed on              LinuxNV date 2024.08.27  14:52:58
 running    4 mpi-ranks, with    1 threads/rank, on    1 nodes
 distrk:  each k-point on    4 cores,    1 groups
 distr:  one band on NCORE=   1 cores,    4 groups
 OpenACC runtime initialized ...    4 GPUs detected


--------------------------------------------------------------------------------------------------------


 INCAR:
   SYSTEM = Oxide-Surface
   ISMEAR = 0
   SIGMA = 0.05
   EDIFF = 1E-5
   ALGO = Normal
   IBRION = -1
   NSW = 0
   ISYM = 0
   DIPOL = 0.5 0.5 0.5
   IDIPOL = 3
   LDIPOL = .TRUE.
   ISTART = 0
   LHFCALC = .FALSE.
   GGA = PE
   HFRCUT = -1
   ENCUT = 520
   PREC = Normal
   PRECFOCK = Normal
   LASPH = .TRUE.
   LREAL = Auto
   ISPIN = 1
   NELM = 200
   NELMIN = 8
   NCORE = 1
   KPAR = 1
   LWAVE = .TRUE.
   LCHARG = .FALSE.

 POTCAR:    PAW_PBE C 08Apr2002                   
 POTCAR:    PAW_PBE H 15Jun2001                   
 POTCAR:    PAW_PBE Mg_pv 13Apr2007               
 POTCAR:    PAW_PBE O 08Apr2002                   
 POTCAR:    PAW_PBE C 08Apr2002                   
   SHA256 =  253f7b50bb8d59471dbedb8285d89021f4a42ed1a2c5d38a03a736e69125dd95 C/POTCAR              
   COPYR  = (c) Copyright 08Apr2002 Georg Kresse                                                    
   COPYR  = This file is part of the software VASP. Any use, copying, and all other rights are regul
   COPYR  = If you do not have a valid VASP license, you may not use, copy or distribute this file. 
   VRHFIN =C: s2p2                                                                                  
   LEXCH  = PE                                                                                      
   EATOM  =   147.1560 eV,   10.8157 Ry                                                             
                                                                                                    
   TITEL  = PAW_PBE C 08Apr2002                                                                     
   LULTRA =        F    use ultrasoft PP ?                                                          
   IUNSCR =        1    unscreen: 0-lin 1-nonlin 2-no                                               
   RPACOR =    1.200    partial core radius                                                         
   POMASS =   12.011; ZVAL   =    4.000    mass and valenz                                          
   RCORE  =    1.500    outmost cutoff radius                                                       
   RWIGS  =    1.630; RWIGS  =    0.863    wigner-seitz radius (au A)                               
   ENMAX  =  400.000; ENMIN  =  300.000 eV                                                          
   ICORE  =        2    local potential                                                             
   LCOR   =        T    correct aug charges                                                         
   LPAW   =        T    paw PP                                                                      
   EAUG   =  644.873                                                                                
   DEXC   =    0.000                                                                                
   RMAX   =    1.529    core radius for proj-oper                                                   
   RAUG   =    1.300    factor for augmentation sphere                                              
   RDEP   =    1.501    radius for radial grids                                                     
   RDEPT  =    1.300    core radius for aug-charge                                                  
                                                                                                    
   Atomic configuration                                                                             
    4 entries                                                                                       
     n  l   j            E        occ.                                                              
     1  0  0.50      -273.3789   2.0000                                                             
     2  0  0.50       -13.7508   2.0000                                                             
     2  1  0.50        -5.2854   2.0000                                                             
     3  2  1.50        -5.4423   0.0000                                                             
   Description                                                                                      
     l       E           TYP  RCUT    TYP  RCUT                                                     
     0    -13.7508458     23  1.200                                                                 
     0     -8.2022199     23  1.200                                                                 
     1     -5.2854383     23  1.500                                                                 
     1     34.0145650     23  1.500                                                                 
     2     -5.4423304      7  1.500                                                                 
  local pseudopotential read in
  partial core-charges read in
  partial kinetic energy density read in
  atomic valenz-charges read in
  non local Contribution for L=            0  read in
    real space projection operators read in
  non local Contribution for L=            0  read in
    real space projection operators read in
  non local Contribution for L=            1  read in
    real space projection operators read in
  non local Contribution for L=            1  read in
    real space projection operators read in
    PAW grid and wavefunctions read in
 
   number of l-projection  operators is LMAX  =            4
   number of lm-projection operators is LMMAX =            8
 
 POTCAR:    PAW_PBE H 15Jun2001                   
   SHA256 =  030f79b5d3ab3cf0e668861823c8fb652ff669f3e15e46930bd03bfd63a607b6 H/POTCAR              
   COPYR  = (c) Copyright 15Jun2001 Georg Kresse                                                    
   COPYR  = This file is part of the software VASP. Any use, copying, and all other rights are regul
   COPYR  = If you do not have a valid VASP license, you may not use, copy or distribute this file. 
   VRHFIN =H: ultrasoft test                                                                        
   LEXCH  = PE                                                                                      
   EATOM  =    12.4884 eV,    0.9179 Ry                                                             
                                                                                                    
   TITEL  = PAW_PBE H 15Jun2001                                                                     
   LULTRA =        F    use ultrasoft PP ?                                                          
   IUNSCR =        0    unscreen: 0-lin 1-nonlin 2-no                                               
   RPACOR =    0.000    partial core radius                                                         
   POMASS =    1.000; ZVAL   =    1.000    mass and valenz                                          
   RCORE  =    1.100    outmost cutoff radius                                                       
   RWIGS  =    0.700; RWIGS  =    0.370    wigner-seitz radius (au A)                               
   ENMAX  =  250.000; ENMIN  =  200.000 eV                                                          
   RCLOC  =    0.701    cutoff for local pot                                                        
   LCOR   =        T    correct aug charges                                                         
   LPAW   =        T    paw PP                                                                      
   EAUG   =  400.000                                                                                
   RMAX   =    1.123    core radius for proj-oper                                                   
   RAUG   =    1.200    factor for augmentation sphere                                              
   RDEP   =    1.112    radius for radial grids                                                     
   RDEPT  =    0.926    core radius for aug-charge                                                  
                                                                                                    
   Atomic configuration                                                                             
    2 entries                                                                                       
     n  l   j            E        occ.                                                              
     1  0  0.50        -6.4927   1.0000                                                             
     2  1  0.50        -3.4015   0.0000                                                             
   Description                                                                                      
     l       E           TYP  RCUT    TYP  RCUT                                                     
     0     -6.4927494     23  1.100                                                                 
     0      6.8029130     23  1.100                                                                 
     1     -4.0817478     23  1.100                                                                 
  local pseudopotential read in
  atomic valenz-charges read in
  non local Contribution for L=            0  read in
    real space projection operators read in
  non local Contribution for L=            0  read in
    real space projection operators read in
  non local Contribution for L=            1  read in
    real space projection operators read in
    PAW grid and wavefunctions read in
 
   number of l-projection  operators is LMAX  =            3
   number of lm-projection operators is LMMAX =            5
 
 POTCAR:    PAW_PBE Mg_pv 13Apr2007               
   SHA256 =  f474ac0dd33840b9ae76c01d57fea79fdf77cdfbb07d5ade72c65f83c709b62b Mg_pv/POTCAR          
   COPYR  = (c) Copyright 13Apr2007 Georg Kresse                                                    
   COPYR  = This file is part of the software VASP. Any use, copying, and all other rights are regul
   COPYR  = If you do not have a valid VASP license, you may not use, copy or distribute this file. 
   VRHFIN =Mg: p6s2                                                                                 
   LEXCH  = PE                                                                                      
   EATOM  =  1056.7344 eV,   77.6678 Ry                                                             
                                                                                                    
   TITEL  = PAW_PBE Mg_pv 13Apr2007                                                                 
   LULTRA =        F    use ultrasoft PP ?                                                          
   IUNSCR =        1    unscreen: 0-lin 1-nonlin 2-no                                               
   RPACOR =    1.500    partial core radius                                                         
   POMASS =   24.305; ZVAL   =    8.000    mass and valenz                                          
   RCORE  =    2.000    outmost cutoff radius                                                       
   RWIGS  =    2.000; RWIGS  =    1.058    wigner-seitz radius (au A)                               
   ENMAX  =  403.929; ENMIN  =  302.947 eV                                                          
   RCLOC  =    1.506    cutoff for local pot                                                        
   LCOR   =        T    correct aug charges                                                         
   LPAW   =        T    paw PP                                                                      
   EAUG   =  758.780                                                                                
   DEXC   =    0.000                                                                                
   RMAX   =    2.045    core radius for proj-oper                                                   
   RAUG   =    1.300    factor for augmentation sphere                                              
   RDEP   =    2.025    radius for radial grids                                                     
   RDEPT  =    1.557    core radius for aug-charge                                                  
                                                                                                    
   Atomic configuration                                                                             
    5 entries                                                                                       
     n  l   j            E        occ.                                                              
     1  0  0.50     -1259.6230   2.0000                                                             
     2  0  0.50       -79.8442   2.0000                                                             
     2  1  1.50       -46.6121   6.0000                                                             
     3  0  0.50        -4.7055   2.0000                                                             
     3  2  1.50        -1.3606   0.0000                                                             
   Description                                                                                      
     l       E           TYP  RCUT    TYP  RCUT                                                     
     1    -46.6121073     23  1.600                                                                 
     1      2.7211652     23  1.600                                                                 
     0     -4.7054661     23  2.000                                                                 
     0     61.2262170     23  2.000                                                                 
     2     -1.3605826     23  2.000                                                                 
  local pseudopotential read in
  partial core-charges read in
  partial kinetic energy density read in
  atomic valenz-charges read in
  non local Contribution for L=            1  read in
    real space projection operators read in
  non local Contribution for L=            1  read in
    real space projection operators read in
  non local Contribution for L=            0  read in
    real space projection operators read in
  non local Contribution for L=            0  read in
    real space projection operators read in
  non local Contribution for L=            2  read in
    real space projection operators read in
    PAW grid and wavefunctions read in
 
   number of l-projection  operators is LMAX  =            5
   number of lm-projection operators is LMMAX =           13
 
 POTCAR:    PAW_PBE O 08Apr2002                   
   SHA256 =  818f92134a0a090dccd8ba1447fa70422a3b330e708bb4f08108d8ae51209ddf O/POTCAR              
   COPYR  = (c) Copyright 08Apr2002 Georg Kresse                                                    
   COPYR  = This file is part of the software VASP. Any use, copying, and all other rights are regul
   COPYR  = If you do not have a valid VASP license, you may not use, copy or distribute this file. 
   VRHFIN =O: s2p4                                                                                  
   LEXCH  = PE                                                                                      
   EATOM  =   432.3788 eV,   31.7789 Ry                                                             
                                                                                                    
   TITEL  = PAW_PBE O 08Apr2002                                                                     
   LULTRA =        F    use ultrasoft PP ?                                                          
   IUNSCR =        1    unscreen: 0-lin 1-nonlin 2-no                                               
   RPACOR =    1.200    partial core radius                                                         
   POMASS =   16.000; ZVAL   =    6.000    mass and valenz                                          
   RCORE  =    1.520    outmost cutoff radius                                                       
   RWIGS  =    1.550; RWIGS  =    0.820    wigner-seitz radius (au A)                               
   ENMAX  =  400.000; ENMIN  =  300.000 eV                                                          
   ICORE  =        2    local potential                                                             
   LCOR   =        T    correct aug charges                                                         
   LPAW   =        T    paw PP                                                                      
   EAUG   =  605.392                                                                                
   DEXC   =    0.000                                                                                
   RMAX   =    1.553    core radius for proj-oper                                                   
   RAUG   =    1.300    factor for augmentation sphere                                              
   RDEP   =    1.550    radius for radial grids                                                     
   RDEPT  =    1.329    core radius for aug-charge                                                  
                                                                                                    
   Atomic configuration                                                                             
    4 entries                                                                                       
     n  l   j            E        occ.                                                              
     1  0  0.50      -514.6923   2.0000                                                             
     2  0  0.50       -23.9615   2.0000                                                             
     2  1  0.50        -9.0305   4.0000                                                             
     3  2  1.50        -9.5241   0.0000                                                             
   Description                                                                                      
     l       E           TYP  RCUT    TYP  RCUT                                                     
     0    -23.9615318     23  1.200                                                                 
     0     -9.5240782     23  1.200                                                                 
     1     -9.0304911     23  1.520                                                                 
     1      8.1634956     23  1.520                                                                 
     2     -9.5240782      7  1.500                                                                 
  local pseudopotential read in
  partial core-charges read in
  partial kinetic energy density read in
  kinetic energy density of atom read in
  atomic valenz-charges read in
  non local Contribution for L=            0  read in
    real space projection operators read in
  non local Contribution for L=            0  read in
    real space projection operators read in
  non local Contribution for L=            1  read in
    real space projection operators read in
  non local Contribution for L=            1  read in
    real space projection operators read in
    PAW grid and wavefunctions read in
 
   number of l-projection  operators is LMAX  =            4
   number of lm-projection operators is LMMAX =            8
 
 Optimization of the real space projectors (new method)

 maximal supplied QI-value         = 25.13
 optimisation between [QCUT,QGAM] = [ 11.56, 23.12] = [ 37.43,149.72] Ry 
 Optimized for a Real-space Cutoff    1.04 Angstroem

   l    n(q)    QCUT    max X(q) W(low)/X(q) W(high)/X(q)  e(spline) 
   0      7    11.561   115.676    0.20E-03    0.60E-03    0.21E-06
   0      7    11.561    87.132    0.20E-03    0.59E-03    0.21E-06
   1      7    11.561     4.429    0.23E-03    0.35E-03    0.15E-06
   1      7    11.561     2.733    0.18E-03    0.25E-03    0.12E-06
 Optimization of the real space projectors (new method)

 maximal supplied QI-value         = 34.20
 optimisation between [QCUT,QGAM] = [ 11.63, 23.26] = [ 37.87,151.49] Ry 
 Optimized for a Real-space Cutoff    1.14 Angstroem

   l    n(q)    QCUT    max X(q) W(low)/X(q) W(high)/X(q)  e(spline) 
   0      8    11.629    19.460    0.27E-03    0.65E-03    0.17E-06
   0      8    11.629    12.209    0.25E-03    0.62E-03    0.16E-06
   1      7    11.629     4.655    0.29E-03    0.85E-04    0.19E-06
 Optimization of the real space projectors (new method)

 maximal supplied QI-value         = 18.90
 optimisation between [QCUT,QGAM] = [ 11.53, 23.24] = [ 37.21,151.29] Ry 
 Optimized for a Real-space Cutoff    1.21 Angstroem

   l    n(q)    QCUT    max X(q) W(low)/X(q) W(high)/X(q)  e(spline) 
   1      8    11.527     2.974    0.16E-03    0.13E-03    0.98E-07
   1      8    11.527     4.279    0.42E-03    0.30E-03    0.22E-06
   0      8    11.527    16.381    0.13E-03    0.20E-03    0.72E-07
   0      8    11.527     5.611    0.88E-04    0.13E-03    0.50E-07
   2      7    11.527     4.652    0.25E-03    0.73E-04    0.51E-07
 Optimization of the real space projectors (new method)

 maximal supplied QI-value         = 24.76
 optimisation between [QCUT,QGAM] = [ 11.64, 23.27] = [ 37.91,151.63] Ry 
 Optimized for a Real-space Cutoff    1.04 Angstroem

   l    n(q)    QCUT    max X(q) W(low)/X(q) W(high)/X(q)  e(spline) 
   0      7    11.635    20.381    0.14E-03    0.49E-03    0.18E-06
   0      7    11.635    15.268    0.16E-03    0.52E-03    0.19E-06
   1      7    11.635     5.964    0.30E-03    0.44E-03    0.22E-06
   1      7    11.635     5.382    0.27E-03    0.34E-03    0.19E-06
  PAW_PBE C 08Apr2002                   :
 energy of atom  1       EATOM= -147.1560
 kinetic energy error for atom=    0.0071 (will be added to EATOM!!)
  PAW_PBE H 15Jun2001                   :
 energy of atom  2       EATOM=  -12.4884
 kinetic energy error for atom=    0.0014 (will be added to EATOM!!)
  PAW_PBE Mg_pv 13Apr2007               :
 energy of atom  3       EATOM=-1056.7344
 kinetic energy error for atom=    0.0340 (will be added to EATOM!!)
  PAW_PBE O 08Apr2002                   :
 energy of atom  4       EATOM= -432.3788
 kinetic energy error for atom=    0.0208 (will be added to EATOM!!)
 
 
 POSCAR:  C  H Mg  O
  positions in direct lattice
  No initial velocities read in
 exchange correlation table for  LEXCH =        8
   RHO(1)=    0.500       N(1)  =     2000
   RHO(2)=  100.500       N(2)  =     4000
 


--------------------------------------------------------------------------------------------------------


 ion  position               nearest neighbor table
   1  0.625  0.500  0.760-   3 1.10   2 1.10   4 1.10   5 1.10
   2  0.625  0.606  0.797-   1 1.10
   3  0.625  0.394  0.797-   1 1.10
   4  0.732  0.500  0.723-   1 1.10
   5  0.518  0.500  0.723-   1 1.10
   6  0.125  0.750  0.203-  38 2.11  40 2.11  41 2.11  48 2.11  57 2.11
   7  0.375  0.000  0.203-  39 2.11  40 2.11  41 2.11  49 2.11  56 2.11
   8  0.125  0.000  0.327-  40 2.11  39 2.11  38 2.11  46 2.11  55 2.11  44 2.12
   9  0.375  0.750  0.327-  41 2.11  39 2.11  38 2.11  47 2.11  54 2.11  45 2.12
  10  0.125  0.750  0.452-  61 2.11  45 2.11  44 2.11  52 2.11  38 2.12  42 2.15
  11  0.375  1.000  0.452-  53 2.11  45 2.11  44 2.11  60 2.11  39 2.12  43 2.15
  12  0.125  1.000  0.576-  44 2.11  59 2.11  43 2.11  42 2.11  50 2.11
  13  0.375  0.750  0.576-  45 2.11  58 2.11  43 2.11  51 2.11  42 2.11
  14  0.125  0.250  0.203-  46 2.11  40 2.11  48 2.11  49 2.11  65 2.11
  15  0.375  0.500  0.203-  47 2.11  41 2.11  48 2.11  49 2.11  64 2.11
  16  0.125  0.500  0.327-  48 2.11  46 2.11  47 2.11  38 2.11  63 2.11  52 2.12
  17  0.375  0.250  0.327-  49 2.11  46 2.11  47 2.11  39 2.11  62 2.11  53 2.12
  18  0.125  0.250  0.452-  53 2.11  69 2.11  44 2.11  52 2.11  46 2.12  50 2.15
  19  0.375  0.500  0.452-  68 2.11  45 2.11  53 2.11  52 2.11  47 2.12  51 2.15
  20  0.125  0.500  0.576-  52 2.11  67 2.11  51 2.11  42 2.11  50 2.11
  21  0.375  0.250  0.576-  53 2.11  66 2.11  43 2.11  51 2.11  50 2.11
  22  0.625  0.750  0.203-  54 2.11  41 2.11  56 2.11  57 2.11  64 2.11
  23  0.875  0.000  0.203-  55 2.11  40 2.11  56 2.11  57 2.11  65 2.11
  24  0.625  0.000  0.327-  56 2.11  54 2.11  55 2.11  39 2.11  62 2.11  60 2.12
  25  0.875  0.750  0.327-  57 2.11  54 2.11  55 2.11  38 2.11  63 2.11  61 2.12
  26  0.625  0.750  0.452-  68 2.11  45 2.11  61 2.11  60 2.11  54 2.13  58 2.15
  27  0.875  0.000  0.452-  69 2.11  61 2.11  44 2.11  60 2.11  55 2.12  59 2.15
  28  0.625  1.000  0.576-  66 2.11  58 2.11  60 2.11  43 2.11  59 2.11
  29  0.875  0.750  0.576-  61 2.11  58 2.11  59 2.11  67 2.11  42 2.11
  30  0.625  0.250  0.203-  62 2.11  56 2.11  49 2.11  64 2.11  65 2.11
  31  0.875  0.500  0.203-  63 2.11  57 2.11  48 2.11  64 2.11  65 2.11
  32  0.625  0.500  0.327-  64 2.11  54 2.11  62 2.11  63 2.11  47 2.11  68 2.12
  33  0.875  0.250  0.327-  65 2.11  55 2.11  62 2.11  63 2.11  46 2.11  69 2.12
  34  0.625  0.250  0.452-  68 2.11  53 2.11  69 2.11  60 2.11  62 2.13  66 2.15
  35  0.875  0.500  0.452-  68 2.11  61 2.11  69 2.11  52 2.11  63 2.12  67 2.15
  36  0.625  0.500  0.576-  66 2.11  58 2.11  51 2.11  67 2.11  68 2.12
  37  0.875  0.250  0.576-  69 2.11  66 2.11  59 2.11  67 2.11  50 2.11
  38  0.125  0.750  0.327-   6 2.11   8 2.11   9 2.11  16 2.11  25 2.11  10 2.12
  39  0.375  0.000  0.327-   7 2.11   8 2.11   9 2.11  17 2.11  24 2.11  11 2.12
  40  0.125  0.000  0.203-   8 2.11   7 2.11   6 2.11  14 2.11  23 2.11
  41  0.375  0.750  0.203-   9 2.11   7 2.11   6 2.11  15 2.11  22 2.11
  42  0.125  0.750  0.578-  12 2.11  20 2.11  29 2.11  13 2.11  10 2.15
  43  0.375  0.000  0.579-  21 2.11  13 2.11  12 2.11  28 2.11  11 2.15
  44  0.125  1.000  0.452-  10 2.11  18 2.11  12 2.11  11 2.11  27 2.11   8 2.12
  45  0.375  0.750  0.452-  13 2.11  10 2.11  11 2.11  19 2.11  26 2.11   9 2.12
  46  0.125  0.250  0.327-  14 2.11   8 2.11  16 2.11  17 2.11  33 2.11  18 2.12
  47  0.375  0.500  0.327-  15 2.11   9 2.11  16 2.11  17 2.11  32 2.11  19 2.12
  48  0.125  0.500  0.203-  16 2.11  14 2.11  15 2.11   6 2.11  31 2.11
  49  0.375  0.250  0.203-  17 2.11  14 2.11  15 2.11   7 2.11  30 2.11
  50  0.125  0.250  0.578-  12 2.11  20 2.11  21 2.11  37 2.11  18 2.15
  51  0.375  0.500  0.578-  20 2.11  21 2.11  13 2.11  36 2.11  19 2.15
  52  0.125  0.500  0.452-  20 2.11  10 2.11  18 2.11  19 2.11  35 2.11  16 2.12
  53  0.375  0.250  0.452-  21 2.11  18 2.11  11 2.11  19 2.11  34 2.11  17 2.12
  54  0.625  0.750  0.327-  22 2.11   9 2.11  24 2.11  25 2.11  32 2.11  26 2.13
  55  0.875  0.000  0.327-  23 2.11   8 2.11  24 2.11  25 2.11  33 2.11  27 2.12
  56  0.625  0.000  0.203-  24 2.11  22 2.11  23 2.11   7 2.11  30 2.11
  57  0.875  0.750  0.203-  25 2.11  22 2.11  23 2.11   6 2.11  31 2.11
  58  0.625  0.750  0.578-  28 2.11  13 2.11  29 2.11  36 2.11  26 2.15
  59  0.875  0.000  0.579-  37 2.11  29 2.11  12 2.11  28 2.11  27 2.15
  60  0.625  1.000  0.452-  28 2.11  27 2.11  11 2.11  26 2.11  34 2.11  24 2.12
  61  0.875  0.750  0.452-  29 2.11  10 2.11  27 2.11  35 2.11  26 2.11  25 2.12
  62  0.625  0.250  0.327-  30 2.11  24 2.11  17 2.11  32 2.11  33 2.11  34 2.13
  63  0.875  0.500  0.327-  31 2.11  25 2.11  16 2.11  32 2.11  33 2.11  35 2.12
  64  0.625  0.500  0.203-  32 2.11  22 2.11  30 2.11  31 2.11  15 2.11
  65  0.875  0.250  0.203-  33 2.11  23 2.11  30 2.11  31 2.11  14 2.11
  66  0.625  0.250  0.578-  28 2.11  21 2.11  37 2.11  36 2.11  34 2.15
  67  0.875  0.500  0.578-  20 2.11  29 2.11  37 2.11  36 2.11  35 2.15
  68  0.625  0.500  0.452-  35 2.11  19 2.11  34 2.11  26 2.11  36 2.12  32 2.12
  69  0.875  0.250  0.452-  37 2.11  18 2.11  27 2.11  35 2.11  34 2.11  33 2.12
 

IMPORTANT INFORMATION: All symmetrisations will be switched off!
NOSYMM: (Re-)initialisation of all symmetry stuff for point group C_1.


----------------------------------------------------------------------------------------

                                     Primitive cell                                     

  volume of cell :    1211.2538

  direct lattice vectors                    reciprocal lattice vectors
     8.440984654  0.000000000  0.000000000     0.118469591  0.000000000  0.000000000
     0.000000000  8.440984654  0.000000000     0.000000000  0.118469591  0.000000000
     0.000000000  0.000000000 17.000000000     0.000000000  0.000000000  0.058823529

  length of vectors
     8.440984654  8.440984654 17.000000000     0.118469591  0.118469591  0.058823529

  position of ions in fractional coordinates (direct lattice)
     0.624874723  0.499997702  0.760129327
     0.624874667  0.606400246  0.797180401
     0.624874661  0.393601766  0.797179749
     0.731963124  0.500000082  0.723349296
     0.517786221  0.500000086  0.723349275
     0.124874701  0.750000001  0.202819599
     0.374874701  0.000000001  0.202819599
     0.124874701  0.000000001  0.326951726
     0.374874701  0.750000001  0.326951726
     0.124874704  0.750032169  0.451932988
     0.374867470  0.999999999  0.451925450
     0.124874712  0.999999992  0.575783509
     0.374991216  0.750097341  0.575612586
     0.124874701  0.250000001  0.202819599
     0.374874701  0.500000001  0.202819599
     0.124874701  0.500000001  0.326951726
     0.374874701  0.250000001  0.326951726
     0.124874708  0.249967823  0.451932992
     0.374983146  0.500000002  0.451948183
     0.124874712  0.499999995  0.575568334
     0.374991205  0.249902632  0.575612581
     0.624874701  0.750000001  0.202819599
     0.874874701  0.000000001  0.202819599
     0.624874701  0.000000001  0.326951726
     0.874874701  0.750000001  0.326951726
     0.624874696  0.749901113  0.451984522
     0.874881955  0.000000006  0.451925445
     0.624874708  0.999999999  0.575658965
     0.874758227  0.750097345  0.575612601
     0.624874701  0.250000001  0.202819599
     0.874874701  0.500000001  0.202819599
     0.624874701  0.500000001  0.326951726
     0.874874701  0.250000001  0.326951726
     0.624874702  0.250098875  0.451984502
     0.874766288  0.499999992  0.451948190
     0.624874715  0.499999989  0.576325730
     0.874758224  0.249902626  0.575612601
     0.124874701  0.750000001  0.326951726
     0.374874701  0.000000001  0.326951726
     0.124874701  0.000000001  0.202819599
     0.374874701  0.750000001  0.202819599
     0.124874712  0.750041777  0.578461591
     0.374814565  0.000000004  0.578506137
     0.124874716  0.999999982  0.451658755
     0.374798799  0.750012793  0.451587177
     0.124874701  0.250000001  0.326951726
     0.374874701  0.500000001  0.326951726
     0.124874701  0.500000001  0.202819599
     0.374874701  0.250000001  0.202819599
     0.124874718  0.249958210  0.578461567
     0.374624152  0.499999983  0.578487550
     0.124874718  0.500000004  0.451540272
     0.374798803  0.249987199  0.451587172
     0.624874701  0.750000001  0.326951726
     0.874874701  0.000000001  0.326951726
     0.624874701  0.000000001  0.202819599
     0.874874701  0.750000001  0.202819599
     0.624874705  0.750141603  0.578186521
     0.874934875  0.000000005  0.578506145
     0.624874715  0.999999988  0.451528368
     0.874950615  0.750012792  0.451587179
     0.624874701  0.250000001  0.326951726
     0.874874701  0.500000001  0.326951726
     0.624874701  0.500000001  0.202819599
     0.874874701  0.250000001  0.202819599
     0.624874705  0.249858389  0.578186513
     0.875125299  0.499999988  0.578487554
     0.624874718  0.499999993  0.451751169
     0.874950602  0.249987190  0.451587179

  ion indices of the primitive-cell ions
   primitive index   ion index
                 1           1
                 2           2
                 3           3
                 4           4
                 5           5
                 6           6
                 7           7
                 8           8
                 9           9
                10          10
                11          11
                12          12
                13          13
                14          14
                15          15
                16          16
                17          17
                18          18
                19          19
                20          20
                21          21
                22          22
                23          23
                24          24
                25          25
                26          26
                27          27
                28          28
                29          29
                30          30
                31          31
                32          32
                33          33
                34          34
                35          35
                36          36
                37          37
                38          38
                39          39
                40          40
                41          41
                42          42
                43          43
                44          44
                45          45
                46          46
                47          47
                48          48
                49          49
                50          50
                51          51
                52          52
                53          53
                54          54
                55          55
                56          56
                57          57
                58          58
                59          59
                60          60
                61          61
                62          62
                63          63
                64          64
                65          65
                66          66
                67          67
                68          68
                69          69

----------------------------------------------------------------------------------------

 
 
 KPOINTS: pymatgen v2020.8.13 with grid density = 

Automatic generation of k-mesh.
 Grid dimensions read from file:
 generate k-points for:    2    2    1

 Generating k-lattice:

  Cartesian coordinates                     Fractional coordinates (reciprocal lattice)
     0.059234796  0.000000000  0.000000000     0.500000000  0.000000000  0.000000000
     0.000000000  0.059234796  0.000000000     0.000000000  0.500000000  0.000000000
     0.000000000  0.000000000  0.058823529     0.000000000  0.000000000  1.000000000

  Length of vectors
     0.059234796  0.059234796  0.058823529

  Shift w.r.t. Gamma in fractional coordinates (k-lattice)
     0.000000000  0.000000000  0.000000000

 
 Subroutine IBZKPT returns following result:
 ===========================================
 
 Found      4 irreducible k-points:
 
 Following reciprocal coordinates:
            Coordinates               Weight
  0.000000  0.000000  0.000000      1.000000
  0.500000  0.000000  0.000000      1.000000
  0.000000  0.500000  0.000000      1.000000
  0.500000  0.500000  0.000000      1.000000
 
 Following cartesian coordinates:
            Coordinates               Weight
  0.000000  0.000000  0.000000      1.000000
  0.059235  0.000000  0.000000      1.000000
  0.000000  0.059235  0.000000      1.000000
  0.059235  0.059235  0.000000      1.000000
 


--------------------------------------------------------------------------------------------------------




 Dimension of arrays:
   k-points           NKPTS =      4   k-points in BZ     NKDIM =      4   number of bands    NBANDS=    276
   number of dos      NEDOS =    301   number of ions     NIONS =     69
   non local maximal  LDIM  =      5   non local SUM 2l+1 LMDIM =     13
   total plane-waves  NPLWV = 221184
   max r-space proj   IRMAX =   1407   max aug-charges    IRDMAX=   3798
   dimension x,y,z NGX =    48 NGY =   48 NGZ =   96
   dimension x,y,z NGXF=    96 NGYF=   96 NGZF=  192
   support grid    NGXF=    96 NGYF=   96 NGZF=  192
   ions per type =               1   4  32  32
   NGX,Y,Z   is equivalent  to a cutoff of   9.45,  9.45,  9.39 a.u.
   NGXF,Y,Z  is equivalent  to a cutoff of  18.91, 18.91, 18.78 a.u.

 SYSTEM =  Oxide-Surface                           
 POSCAR =   C  H Mg  O                             

--------------------------------------------------------------------------------------------------------


  energy-cutoff  :      520.00
  volume of cell :     1211.25
      direct lattice vectors                 reciprocal lattice vectors
     8.440984654  0.000000000  0.000000000     0.118469591  0.000000000  0.000000000
     0.000000000  8.440984654  0.000000000     0.000000000  0.118469591  0.000000000
     0.000000000  0.000000000 17.000000000     0.000000000  0.000000000  0.058823529

  length of vectors
     8.440984654  8.440984654 17.000000000     0.118469591  0.118469591  0.058823529


 
 k-points in units of 2pi/SCALE and weight: pymatgen v2020.8.13 with grid density = 
   0.00000000  0.00000000  0.00000000       0.250
   0.05923480  0.00000000  0.00000000       0.250
   0.00000000  0.05923480  0.00000000       0.250
   0.05923480  0.05923480  0.00000000       0.250
 
 k-points in reciprocal lattice and weights: pymatgen v2020.8.13 with grid density = 
   0.00000000  0.00000000  0.00000000       0.250
   0.50000000  0.00000000  0.00000000       0.250
   0.00000000  0.50000000  0.00000000       0.250
   0.50000000  0.50000000  0.00000000       0.250
 
 position of ions in fractional coordinates (direct lattice) 
   0.62487472  0.49999770  0.76012933
   0.62487467  0.60640025  0.79718040
   0.62487466  0.39360177  0.79717975
   0.73196312  0.50000008  0.72334930
   0.51778622  0.50000009  0.72334927
   0.12487470  0.75000000  0.20281960
   0.37487470  0.00000000  0.20281960
   0.12487470  0.00000000  0.32695173
   0.37487470  0.75000000  0.32695173
   0.12487470  0.75003217  0.45193299
   0.37486747  1.00000000  0.45192545
   0.12487471  0.99999999  0.57578351
   0.37499122  0.75009734  0.57561259
   0.12487470  0.25000000  0.20281960
   0.37487470  0.50000000  0.20281960
   0.12487470  0.50000000  0.32695173
   0.37487470  0.25000000  0.32695173
   0.12487471  0.24996782  0.45193299
   0.37498315  0.50000000  0.45194818
   0.12487471  0.50000000  0.57556833
   0.37499120  0.24990263  0.57561258
   0.62487470  0.75000000  0.20281960
   0.87487470  0.00000000  0.20281960
   0.62487470  0.00000000  0.32695173
   0.87487470  0.75000000  0.32695173
   0.62487470  0.74990111  0.45198452
   0.87488196  0.00000001  0.45192545
   0.62487471  1.00000000  0.57565897
   0.87475823  0.75009735  0.57561260
   0.62487470  0.25000000  0.20281960
   0.87487470  0.50000000  0.20281960
   0.62487470  0.50000000  0.32695173
   0.87487470  0.25000000  0.32695173
   0.62487470  0.25009888  0.45198450
   0.87476629  0.49999999  0.45194819
   0.62487472  0.49999999  0.57632573
   0.87475822  0.24990263  0.57561260
   0.12487470  0.75000000  0.32695173
   0.37487470  0.00000000  0.32695173
   0.12487470  0.00000000  0.20281960
   0.37487470  0.75000000  0.20281960
   0.12487471  0.75004178  0.57846159
   0.37481457  0.00000000  0.57850614
   0.12487472  0.99999998  0.45165875
   0.37479880  0.75001279  0.45158718
   0.12487470  0.25000000  0.32695173
   0.37487470  0.50000000  0.32695173
   0.12487470  0.50000000  0.20281960
   0.37487470  0.25000000  0.20281960
   0.12487472  0.24995821  0.57846157
   0.37462415  0.49999998  0.57848755
   0.12487472  0.50000000  0.45154027
   0.37479880  0.24998720  0.45158717
   0.62487470  0.75000000  0.32695173
   0.87487470  0.00000000  0.32695173
   0.62487470  0.00000000  0.20281960
   0.87487470  0.75000000  0.20281960
   0.62487470  0.75014160  0.57818652
   0.87493488  0.00000001  0.57850614
   0.62487471  0.99999999  0.45152837
   0.87495062  0.75001279  0.45158718
   0.62487470  0.25000000  0.32695173
   0.87487470  0.50000000  0.32695173
   0.62487470  0.50000000  0.20281960
   0.87487470  0.25000000  0.20281960
   0.62487471  0.24985839  0.57818651
   0.87512530  0.49999999  0.57848755
   0.62487472  0.49999999  0.45175117
   0.87495060  0.24998719  0.45158718
 
 position of ions in cartesian coordinates  (Angst):
   5.27455795  4.22047293 12.92219855
   5.27455748  5.11861517 13.55206682
   5.27455742  3.32238647 13.55205573
   6.17848950  4.22049302 12.29693803
   4.37062555  4.22049306 12.29693767
   1.05406544  6.33073850  3.44793318
   3.16431160  0.00000001  3.44793318
   1.05406544  0.00000001  5.55817934
   3.16431160  6.33073850  5.55817934
   1.05406546  6.33101003  7.68286079
   3.16425056  8.44098464  7.68273265
   1.05406552  8.44098459  9.78831965
   3.16529510  6.33156014  9.78541395
   1.05406544  2.11024617  3.44793318
   3.16431160  4.22049234  3.44793318
   1.05406544  4.22049234  5.55817934
   3.16431160  2.11024617  5.55817934
   1.05406549  2.10997456  7.68286087
   3.16522698  4.22049234  7.68311910
   1.05406553  4.22049229  9.78466168
   3.16529501  2.10942428  9.78541388
   5.27455776  6.33073850  3.44793318
   7.38480393  0.00000001  3.44793318
   5.27455776  0.00000001  5.55817934
   7.38480393  6.33073850  5.55817934
   5.27455772  6.32990379  7.68373688
   7.38486516  0.00000005  7.68273257
   5.27455782  8.44098464  9.78620241
   7.38382077  6.33156018  9.78541422
   5.27455776  2.11024617  3.44793318
   7.38480393  4.22049234  3.44793318
   5.27455776  4.22049234  5.55817934
   7.38480393  2.11024617  5.55817934
   5.27455777  2.11108077  7.68373654
   7.38388881  4.22049226  7.68311923
   5.27455788  4.22049224  9.79753741
   7.38382075  2.10942423  9.78541422
   1.05406544  6.33073850  5.55817934
   3.16431160  0.00000001  5.55817934
   1.05406544  0.00000001  3.44793318
   3.16431160  6.33073850  3.44793318
   1.05406553  6.33109113  9.83384705
   3.16380399  0.00000003  9.83460433
   1.05406556  8.44098450  7.67819883
   3.16367091  6.33084648  7.67698200
   1.05406544  2.11024617  5.55817934
   3.16431160  4.22049234  5.55817934
   1.05406544  4.22049234  3.44793318
   3.16431160  2.11024617  3.44793318
   1.05406558  2.10989342  9.83384663
   3.16219672  4.22049218  9.83428835
   1.05406558  4.22049236  7.67618462
   3.16367095  2.11013811  7.67698193
   5.27455776  6.33073850  5.55817934
   7.38480393  0.00000001  5.55817934
   5.27455776  0.00000001  3.44793318
   7.38480393  6.33073850  3.44793318
   5.27455779  6.33193376  9.82917086
   7.38531186  0.00000004  9.83460446
   5.27455788  8.44098456  7.67598226
   7.38544471  6.33084646  7.67698204
   5.27455776  2.11024617  5.55817934
   7.38480393  4.22049234  5.55817934
   5.27455776  4.22049234  3.44793318
   7.38480393  2.11024617  3.44793318
   5.27455780  2.10905083  9.82917072
   7.38691922  4.22049223  9.83428842
   5.27455790  4.22049227  7.67976987
   7.38544461  2.11013803  7.67698204
 


--------------------------------------------------------------------------------------------------------

--------------------------------------- Iteration      FINAL  ---------------------------------------


--------------------OUTCAR has been truncated-------------------------


--------------------OUTCAR has been truncated-------------------------


--------------------OUTCAR has been truncated-------------------------


--------------------OUTCAR has been truncated-------------------------


--------------------OUTCAR has been truncated-------------------------


--------------------OUTCAR has been truncated-------------------------


--------------------OUTCAR has been truncated-------------------------


--------------------OUTCAR has been truncated-------------------------


--------------------OUTCAR has been truncated-------------------------


--------------------OUTCAR has been truncated-------------------------


    MIXING:  cpu time      0.0126: real time      0.0127
    OFIELD:  cpu time      0.0000: real time      0.0000

  FORCE on cell =-STRESS in cart. coord.  units (eV):
  Direction    XX          YY          ZZ          XY          YZ          ZX
  --------------------------------------------------------------------------------------
  Alpha Z  1129.24226  1129.24226  1129.24226
  Ewald   82751.87706 82749.40113************    -0.00000    -0.00268    -0.00001
  Hartree 93552.24701 93550.94186-86964.68709    -0.00000    -0.00011    -0.00004
  E(xc)   -2483.89217 -2483.90991 -2488.97185    -0.00000    -0.00000     0.00001
  Local  ************************186023.66351    -0.00000     0.00185     0.00011
  n-local -2825.30236 -2825.29499 -2846.23906    -0.00000     0.00008    -0.01533
  augment  1047.67639  1047.67882  1038.23019     0.00000     0.00001     0.00011
  Kinetic  7402.51283  7402.57586  7444.16269     0.00000     0.00011    -0.00006
  Fock        0.00000     0.00000     0.00000     0.00000     0.00000     0.00000
  -------------------------------------------------------------------------------------
  Total     -15.81890   -15.82882     7.44599    -0.00000    -0.00075    -0.01521
  in kB     -20.92434   -20.93746     9.84913    -0.00000    -0.00099    -0.02012
  external pressure =      -10.67 kB  Pullay stress =        0.00 kB


 VOLUME and BASIS-vectors are now :
 -----------------------------------------------------------------------------
  energy-cutoff  :      520.00
  volume of cell :     1211.25
      direct lattice vectors                 reciprocal lattice vectors
     8.440984654  0.000000000  0.000000000     0.118469591  0.000000000  0.000000000
     0.000000000  8.440984654  0.000000000     0.000000000  0.118469591  0.000000000
     0.000000000  0.000000000 17.000000000     0.000000000  0.000000000  0.058823529

  length of vectors
     8.440984654  8.440984654 17.000000000     0.118469591  0.118469591  0.058823529


 FORCES acting on ions
    electron-ion (+dipol)            ewald-force                    non-local-force                 convergence-correction
 -----------------------------------------------------------------------------------------------
   0.173E-05 -.830E-03 -.589E+03   -.191E-04 0.142E-02 0.589E+03   -.211E-02 0.837E-03 -.717E-01   0.687E-05 -.405E-05 -.754E-03
   0.195E-04 -.429E+02 -.136E+03   -.216E-04 0.474E+02 0.139E+03   -.178E-04 -.451E+01 -.316E+01   0.101E-05 0.379E-04 -.215E-04
   0.223E-04 0.429E+02 -.136E+03   -.245E-04 -.474E+02 0.139E+03   -.176E-04 0.451E+01 -.316E+01   0.898E-06 -.377E-04 -.224E-04
   -.431E+02 -.828E-03 -.159E+03   0.477E+02 0.885E-03 0.156E+03   -.457E+01 -.120E-03 0.305E+01   -.431E-04 -.929E-06 -.141E-03
   0.431E+02 -.830E-03 -.159E+03   -.477E+02 0.887E-03 0.156E+03   0.457E+01 -.120E-03 0.305E+01   0.437E-04 -.530E-06 -.141E-03
   0.139E-03 -.623E+00 0.171E+04   -.250E-05 0.623E+00 -.171E+04   0.129E-03 0.540E-04 -.705E+01   -.637E-04 0.652E-04 -.763E-03
   0.646E+00 -.518E-04 0.171E+04   -.648E+00 -.532E-05 -.171E+04   0.130E-02 -.506E-05 -.705E+01   -.822E-04 0.585E-04 -.741E-03
   0.828E-04 -.147E-04 0.577E+03   -.610E-05 0.568E-06 -.578E+03   -.163E-03 -.172E-05 0.532E+00   -.956E-05 0.161E-04 -.106E-02
   0.676E+00 -.718E+00 0.578E+03   -.675E+00 0.718E+00 -.579E+03   -.593E-03 -.335E-03 0.512E+00   -.314E-04 0.171E-05 -.951E-03
   0.814E-04 -.234E+01 -.547E+03   -.193E-04 0.234E+01 0.547E+03   -.135E-03 -.667E-02 -.218E+00   -.665E-05 -.792E-04 -.164E-04
   0.232E+01 0.275E-04 -.547E+03   -.231E+01 -.402E-04 0.548E+03   -.575E-02 -.900E-05 -.203E+00   0.313E-04 0.231E-04 -.482E-04
   0.391E-04 0.563E-04 -.168E+04   0.194E-04 -.665E-04 0.167E+04   -.563E-03 -.865E-06 0.598E+01   0.754E-05 0.110E-04 -.499E-03
   0.147E+02 -.148E+02 -.166E+04   -.146E+02 0.149E+02 0.165E+04   -.287E-01 -.595E-01 0.601E+01   0.600E-04 -.127E-03 -.351E-03
   0.850E-04 0.623E+00 0.171E+04   -.233E-05 -.623E+00 -.171E+04   0.125E-03 -.516E-04 -.705E+01   -.104E-04 -.681E-04 -.751E-03
   0.814E+00 0.516E-04 0.171E+04   -.814E+00 0.526E-05 -.170E+04   -.253E-04 0.253E-05 -.705E+01   -.220E-04 -.554E-04 -.721E-03
   0.946E-04 0.995E-05 0.578E+03   -.154E-04 -.370E-06 -.579E+03   -.159E-03 -.270E-06 0.496E+00   -.166E-04 -.917E-05 -.938E-03
   0.676E+00 0.718E+00 0.578E+03   -.675E+00 -.718E+00 -.579E+03   -.593E-03 0.335E-03 0.512E+00   -.297E-04 -.294E-05 -.101E-02
   0.996E-04 0.234E+01 -.547E+03   -.348E-04 -.234E+01 0.547E+03   -.151E-03 0.667E-02 -.218E+00   0.920E-05 0.719E-04 -.116E-04
   0.391E+01 -.608E-05 -.541E+03   -.388E+01 0.168E-04 0.541E+03   -.249E-01 0.581E-05 -.208E+00   0.355E-04 -.185E-04 0.732E-04
   0.345E-04 -.488E-04 -.166E+04   0.334E-04 0.567E-04 0.166E+04   -.528E-03 -.817E-06 0.597E+01   -.449E-05 -.782E-05 -.420E-03
   0.147E+02 0.148E+02 -.166E+04   -.146E+02 -.149E+02 0.165E+04   -.288E-01 0.595E-01 0.601E+01   0.695E-04 0.123E-03 -.375E-03
   0.890E-05 -.791E+00 0.171E+04   0.273E-05 0.789E+00 -.170E+04   0.120E-03 0.134E-02 -.705E+01   0.613E-04 0.908E-05 -.702E-03
   -.646E+00 0.708E-06 0.171E+04   0.648E+00 -.566E-05 -.171E+04   -.106E-02 -.241E-06 -.705E+01   0.826E-04 0.616E-05 -.732E-03
   0.498E-04 0.127E-04 0.578E+03   0.536E-05 -.270E-04 -.579E+03   -.164E-03 -.843E-06 0.479E+00   0.139E-04 0.149E-04 -.971E-03
   -.676E+00 -.718E+00 0.578E+03   0.675E+00 0.718E+00 -.579E+03   0.267E-03 -.332E-03 0.512E+00   0.301E-04 -.460E-05 -.102E-02
   -.525E-07 -.397E+01 -.540E+03   0.685E-04 0.396E+01 0.541E+03   -.164E-03 0.170E-01 -.350E+00   0.140E-04 -.780E-04 0.706E-04
   -.232E+01 0.654E-04 -.547E+03   0.231E+01 -.770E-04 0.548E+03   0.546E-02 -.768E-06 -.203E+00   -.373E-04 0.104E-04 -.642E-04
   0.269E-04 0.136E-03 -.166E+04   0.492E-04 -.141E-03 0.166E+04   -.421E-03 -.861E-05 0.599E+01   -.907E-05 0.151E-04 -.412E-03
   -.147E+02 -.148E+02 -.166E+04   0.146E+02 0.149E+02 0.165E+04   0.278E-01 -.595E-01 0.601E+01   -.574E-04 -.130E-03 -.363E-03
   0.620E-04 0.791E+00 0.171E+04   0.234E-05 -.789E+00 -.170E+04   0.124E-03 -.135E-02 -.705E+01   0.841E-05 -.860E-05 -.689E-03
   -.814E+00 -.236E-05 0.171E+04   0.814E+00 0.551E-05 -.170E+04   0.267E-03 -.129E-06 -.705E+01   0.237E-04 -.319E-05 -.706E-03
   0.387E-04 -.149E-04 0.579E+03   0.163E-04 0.276E-04 -.579E+03   -.165E-03 0.196E-05 0.539E+00   0.161E-04 -.163E-04 -.944E-03
   -.676E+00 0.718E+00 0.578E+03   0.675E+00 -.718E+00 -.579E+03   0.267E-03 0.334E-03 0.512E+00   0.285E-04 -.104E-05 -.102E-02
   0.406E-04 0.397E+01 -.540E+03   0.282E-04 -.396E+01 0.541E+03   -.153E-03 -.170E-01 -.350E+00   -.598E-06 0.750E-04 0.863E-04
   -.391E+01 -.156E-04 -.541E+03   0.388E+01 0.287E-04 0.541E+03   0.246E-01 -.477E-05 -.208E+00   -.385E-04 -.651E-05 0.626E-04
   0.163E-04 -.241E-03 -.161E+04   0.463E-04 0.238E-03 0.160E+04   -.607E-03 0.156E-04 0.584E+01   -.744E-06 -.179E-04 0.815E-04
   -.147E+02 0.148E+02 -.166E+04   0.146E+02 -.149E+02 0.165E+04   0.278E-01 0.595E-01 0.601E+01   -.620E-04 0.131E-03 -.364E-03
   0.257E-04 -.516E+00 0.433E+03   -.831E-05 0.511E+00 -.433E+03   0.197E-02 0.777E-02 -.118E+00   -.151E-04 -.124E-05 -.117E-02
   0.512E+00 -.204E-05 0.433E+03   -.504E+00 -.969E-05 -.433E+03   -.872E-02 -.400E-05 -.115E+00   -.258E-04 0.154E-04 -.117E-02
   0.154E-04 0.607E-05 0.129E+04   -.130E-05 -.274E-05 -.129E+04   -.120E-02 -.248E-05 0.347E+01   -.275E-05 0.166E-05 -.786E-03
   0.547E+00 -.529E+00 0.129E+04   -.547E+00 0.529E+00 -.129E+04   -.855E-03 0.622E-03 0.347E+01   -.460E-04 0.951E-05 -.750E-03
   -.783E-05 -.613E+01 -.127E+04   0.279E-04 0.612E+01 0.127E+04   -.123E-02 0.228E-02 -.503E+01   -.938E-05 -.832E-04 -.261E-03
   0.588E+01 0.100E-03 -.127E+04   -.588E+01 -.109E-03 0.128E+04   -.428E-02 -.435E-05 -.504E+01   0.726E-04 0.104E-04 -.288E-03
   0.267E-04 -.102E-04 -.407E+03   -.150E-04 -.197E-05 0.407E+03   -.123E-02 -.554E-05 0.223E+00   -.748E-05 0.159E-04 -.438E-03
   0.231E+01 -.232E+01 -.403E+03   -.229E+01 0.231E+01 0.402E+03   -.134E-01 -.155E-02 0.265E+00   0.212E-04 -.371E-04 -.381E-03
   0.236E-04 0.516E+00 0.433E+03   -.942E-05 -.511E+00 -.433E+03   0.197E-02 -.776E-02 -.118E+00   -.786E-05 -.756E-05 -.116E-02
   0.560E+00 0.312E-05 0.434E+03   -.568E+00 0.795E-05 -.433E+03   0.127E-01 0.374E-05 -.115E+00   -.800E-05 -.149E-04 -.116E-02
   0.169E-04 -.469E-05 0.129E+04   -.224E-05 0.268E-05 -.129E+04   -.120E-02 0.304E-05 0.348E+01   -.328E-05 -.130E-05 -.752E-03
   0.547E+00 0.529E+00 0.129E+04   -.547E+00 -.529E+00 -.129E+04   -.857E-03 -.622E-03 0.347E+01   -.393E-04 -.113E-04 -.747E-03
   0.163E-04 0.613E+01 -.127E+04   -.102E-05 -.612E+01 0.127E+04   -.123E-02 -.228E-02 -.503E+01   -.379E-05 0.810E-04 -.278E-03
   0.189E+02 -.957E-04 -.125E+04   -.188E+02 0.934E-04 0.125E+04   -.703E-01 0.128E-04 -.497E+01   0.158E-03 -.721E-05 -.133E-03
   0.323E-04 0.234E-05 -.403E+03   -.964E-05 0.219E-05 0.403E+03   0.369E-02 0.290E-06 0.283E+00   -.143E-04 -.462E-05 -.406E-03
   0.231E+01 0.232E+01 -.403E+03   -.229E+01 -.231E+01 0.402E+03   -.134E-01 0.155E-02 0.265E+00   0.171E-04 0.327E-04 -.378E-03
   -.181E-04 -.568E+00 0.433E+03   0.130E-04 0.579E+00 -.433E+03   0.196E-02 -.141E-01 -.128E+00   0.181E-04 -.904E-05 -.114E-02
   -.512E+00 0.756E-05 0.433E+03   0.504E+00 -.141E-04 -.433E+03   0.127E-01 -.390E-05 -.115E+00   0.226E-04 0.886E-05 -.117E-02
   0.158E-04 0.287E-05 0.129E+04   0.137E-05 -.552E-05 -.129E+04   -.121E-02 -.513E-05 0.347E+01   0.458E-05 0.716E-05 -.716E-03
   -.547E+00 -.529E+00 0.129E+04   0.547E+00 0.529E+00 -.129E+04   -.156E-02 0.622E-03 0.347E+01   0.457E-04 0.111E-04 -.748E-03
   -.440E-04 -.187E+02 -.125E+04   0.541E-04 0.186E+02 0.125E+04   -.119E-02 0.837E-01 -.509E+01   0.619E-05 -.174E-03 -.119E-03
   -.588E+01 0.120E-03 -.127E+04   0.588E+01 -.118E-03 0.128E+04   0.180E-02 0.708E-07 -.504E+01   -.695E-04 -.339E-05 -.299E-03
   -.226E-04 0.273E-04 -.403E+03   0.246E-04 -.343E-04 0.403E+03   0.368E-02 -.531E-05 0.239E+00   0.995E-05 0.107E-04 -.389E-03
   -.231E+01 -.232E+01 -.403E+03   0.229E+01 0.231E+01 0.402E+03   0.151E-01 0.252E-03 0.263E+00   -.247E-04 -.404E-04 -.390E-03
   -.717E-05 0.568E+00 0.433E+03   0.802E-05 -.579E+00 -.433E+03   0.197E-02 0.141E-01 -.128E+00   0.618E-05 0.134E-04 -.115E-02
   -.560E+00 -.750E-05 0.434E+03   0.568E+00 0.107E-04 -.433E+03   -.879E-02 -.133E-05 -.115E+00   0.838E-05 -.198E-05 -.115E-02
   0.144E-04 0.840E-06 0.129E+04   0.235E-05 0.548E-05 -.129E+04   -.121E-02 0.548E-05 0.347E+01   0.570E-05 -.117E-04 -.695E-03
   -.547E+00 0.529E+00 0.129E+04   0.547E+00 -.529E+00 -.129E+04   -.156E-02 -.619E-03 0.347E+01   0.382E-04 -.148E-04 -.737E-03
   -.135E-04 0.187E+02 -.125E+04   0.290E-04 -.186E+02 0.125E+04   -.118E-02 -.837E-01 -.509E+01   -.473E-05 0.179E-03 -.128E-03
   -.189E+02 -.899E-04 -.125E+04   0.188E+02 0.859E-04 0.125E+04   0.679E-01 0.901E-05 -.497E+01   -.153E-03 -.329E-05 -.135E-03
   -.372E-04 -.359E-04 -.399E+03   0.316E-04 0.363E-04 0.399E+03   -.125E-02 0.578E-05 0.105E+00   0.147E-04 -.433E-05 -.300E-03
   -.231E+01 0.232E+01 -.403E+03   0.229E+01 -.231E+01 0.402E+03   0.151E-01 -.250E-03 0.263E+00   -.200E-04 0.326E-04 -.383E-03
 -----------------------------------------------------------------------------------------------
   0.255E-02 -.120E-02 0.183E+02   -.153E-12 0.711E-13 0.136E-11   -.307E-02 0.116E-02 -.183E+02   0.138E-04 -.835E-05 -.372E-01
 
 
 POSITION                                       TOTAL-FORCE (eV/Angst)
 -----------------------------------------------------------------------------------
      5.27456      4.22047     12.92220        -0.002118      0.001427      0.070074
      5.27456      5.11862     13.55207        -0.000012     -0.025934     -0.013528
      5.27456      3.32239     13.55206        -0.000012      0.024601     -0.012687
      6.17849      4.22049     12.29694        -0.005521     -0.000063      0.023779
      4.37063      4.22049     12.29694         0.005572     -0.000063      0.023795
      1.05407      6.33074      3.44793         0.000209     -0.000093      0.304241
      3.16431      0.00000      3.44793        -0.000149     -0.000003      0.304877
      1.05407      0.00000      5.55818        -0.000089      0.000001      0.041634
      3.16431      6.33074      5.55818         0.000447      0.000103      0.041613
      1.05407      6.33101      7.68286        -0.000072     -0.001521      0.051232
      3.16425      8.44098      7.68273         0.003321      0.000002      0.051822
      1.05407      8.44098      9.78832        -0.000490      0.000001      0.034959
      3.16530      6.33156      9.78541        -0.005712      0.009058      0.032444
      1.05407      2.11025      3.44793         0.000205      0.000095      0.304240
      3.16431      4.22049      3.44793         0.000129      0.000005      0.304308
      1.05407      4.22049      5.55818        -0.000089      0.000001      0.042535
      3.16431      2.11025      5.55818         0.000448     -0.000102      0.041625
      1.05407      2.10997      7.68286        -0.000069      0.001522      0.051232
      3.16523      4.22049      7.68312        -0.000643     -0.000001      0.052835
      1.05407      4.22049      9.78466        -0.000457     -0.000000      0.034967
      3.16530      2.10942      9.78541        -0.005709     -0.009055      0.032449
      5.27456      6.33074      3.44793         0.000201     -0.000419      0.305834
      7.38480      0.00000      3.44793         0.000557      0.000002      0.304877
      5.27456      0.00000      5.55818        -0.000088      0.000000      0.045755
      7.38480      6.33074      5.55818        -0.000626      0.000102      0.041629
      5.27456      6.32990      7.68374        -0.000074      0.003101      0.053088
      7.38487      0.00000      7.68273        -0.003464     -0.000001      0.051832
      5.27456      8.44098      9.78620        -0.000346      0.000002      0.030229
      7.38382      6.33156      9.78541         0.004932      0.009119      0.032248
      5.27456      2.11025      3.44793         0.000205      0.000418      0.305837
      7.38480      4.22049      3.44793         0.000276      0.000000      0.304311
      5.27456      4.22049      5.55818        -0.000087     -0.000001      0.047346
      7.38480      2.11025      5.55818        -0.000626     -0.000101      0.041625
      5.27456      2.11108      7.68374        -0.000078     -0.003100      0.053086
      7.38389      4.22049      7.68312         0.000440      0.000002      0.052823
      5.27456      4.22049      9.79754        -0.000538     -0.000004      0.050902
      7.38382      2.10942      9.78541         0.004931     -0.009117      0.032259
      1.05407      6.33074      5.55818         0.001983      0.002180      0.054611
      3.16431      0.00000      5.55818        -0.001133      0.000000      0.055071
      1.05407      0.00000      3.44793        -0.001182      0.000003     -0.559491
      3.16431      6.33074      3.44793        -0.001067      0.000150     -0.559637
      1.05407      6.33109      9.83385        -0.001213     -0.004560      0.054919
      3.16380      0.00000      9.83460         0.001694     -0.000002      0.051322
      1.05407      8.44098      7.67820        -0.001223     -0.000001     -0.000186
      3.16367      6.33085      7.67698         0.002316     -0.003432      0.008155
      1.05407      2.11025      5.55818         0.001983     -0.002178      0.054611
      3.16431      4.22049      5.55818         0.004851      0.000001      0.057109
      1.05407      4.22049      3.44793        -0.001183      0.000000     -0.558840
      3.16431      2.11025      3.44793        -0.001067     -0.000150     -0.559641
      1.05407      2.10989      9.83385        -0.001213      0.004561      0.054923
      3.16220      4.22049      9.83429        -0.017276      0.000004      0.052895
      1.05407      4.22049      7.67618         0.003709      0.000001      0.015552
      3.16367      2.11014      7.67698         0.002315      0.003434      0.008153
      5.27456      6.33074      5.55818         0.001983     -0.003848      0.056503
      7.38480      0.00000      5.55818         0.005099     -0.000001      0.055066
      5.27456      0.00000      3.44793        -0.001181      0.000000     -0.560497
      7.38480      6.33074      3.44793        -0.001297      0.000150     -0.559640
      5.27456      6.33193      9.82917        -0.001163      0.017080      0.043826
      7.38531      0.00000      9.83460        -0.004141     -0.000001      0.051336
      5.27456      8.44098      7.67598         0.003699     -0.000001      0.010144
      7.38544      6.33085      7.67698        -0.000593     -0.001628      0.005667
      5.27456      2.11025      5.55818         0.001981      0.003849      0.056504
      7.38480      4.22049      5.55818        -0.000887      0.000001      0.057106
      5.27456      4.22049      3.44793        -0.001180      0.000001     -0.559427
      7.38480      2.11025      3.44793        -0.001296     -0.000148     -0.559643
      5.27456      2.10905      9.82917        -0.001164     -0.017082      0.043827
      7.38692      4.22049      9.83429         0.014867      0.000002      0.052910
      5.27456      4.22049      7.67977        -0.001229      0.000002     -0.001001
      7.38544      2.11014      7.67698        -0.000592      0.001630      0.005666
 -----------------------------------------------------------------------------------
    total drift:                               -0.000505     -0.000043      0.003470


--------------------------------------------------------------------------------------------------------



  FREE ENERGIE OF THE ION-ELECTRON SYSTEM (eV)
  ---------------------------------------------------
  free  energy   TOTEN  =      -396.12474530 eV

  energy  without entropy=     -396.12474530  energy(sigma->0) =     -396.12474530
 


--------------------------------------------------------------------------------------------------------


    POTLOK:  cpu time      1.1167: real time      1.1188


--------------------------------------------------------------------------------------------------------


 writing wavefunctions
     LOOP+:  cpu time     54.0720: real time     54.2974
    4ORBIT:  cpu time      0.0000: real time      0.0000

 total amount of memory used by VASP MPI-rank0   243339. kBytes
=======================================================================

   base      :      30000. kBytes
   nonlr-proj:       8571. kBytes
   fftplans  :      15882. kBytes
   grid      :      40992. kBytes
   one-center:        559. kBytes
   wavefun   :     147335. kBytes
 
  
  
 General timing and accounting informations for this job:
 ========================================================
  
                  Total CPU time used (sec):       60.008
                            User time (sec):       55.928
                          System time (sec):        4.081
                         Elapsed time (sec):       60.889
  
                   Maximum memory used (kb):     1409872.
                   Average memory used (kb):          N/A
  
                          Minor page faults:       226826
                          Major page faults:            0
                 Voluntary context switches:        13417


                    ____  _____ _____     ____  _  _
      -------------|  _ \|  ___|_   _|---|  _ \| || |------------
     |             | | | | |_    | | ___ | | | | || |_           |
     |             | |_| |  _|   | ||___|| |_| |__   _|          |
     |             |____/|_|     |_|     |____/   |_|            |
     |             ===================================           |
     |            E. Caldeweyher, S. Ehlert & S. Grimme          |
     |          Mulliken Center for Theoretical Chemistry        |
     |                    University of Bonn                     |
      ----------------------------------------------------------- 

Rational (Becke-Johnson) damping: hse06-D4-ATM
---------------------
  s6         1.0000
  s8         1.1953
  s9         1.0000
  a1         0.3866
  a2         5.1913
 alp        16.0000
--------------------

Dispersion energy:      -2.7407604614809E-01 Eh

