 **********************************************************************
                          MRCC program system
 **********************************************************************
 
                              Written by
     Mihaly Kallay, Peter R. Nagy, David Mester, Laszlo Gyevi-Nagy,
        Jozsef Csoka, P. Bernat Szabo, Zoltan Rolik, Gyula Samu,
     Jozsef Csontos, Bence Hegely, Adam Ganyecz, Istvan Ladjanszki,
       Lorant Szegedy, Bence Ladoczki, Klara Petrov, Mate Farkas,
                    Pal D. Mezei, and Reka A. Horvath
 
        Department of Physical Chemistry and Materials Science
            Budapest University of Technology and Economics
                  Budapest P.O.Box 91, H-1521 Hungary
 
                              www.mrcc.hu
 
                      Release date: March 18, 2022

 ************************ 2023-04-11 20:03:31 *************************
 Executing minp...

 Reading input from MINP...
 
 Input file:
 
calc=DF-CCSD(T)
scftype=rhf
verbosity=3
mem=220GB
symm=off
unit=angs
scfiguess=small
scfmaxit=1000
scfalg=locfit1


ccmaxit=400
ccsdalg=dfdirect
ccsdthreads=4
ccsdmkl=thr
ptthreads=4

charge=-6
core=14

basis=special
aug-cc-pVTZ
aug-cc-pVTZ
aug-cc-pVTZ
aug-cc-pVTZ
cc-pVTZ
aug-cc-pVTZ
aug-cc-pVTZ
aug-cc-pVTZ
aug-cc-pVTZ
aug-cc-pVTZ
nothing
nothing
nothing
nothing
nothing
nothing
nothing
nothing
nothing
nothing
nothing
nothing
nothing
nothing
nothing
nothing
nothing
nothing
nothing
nothing
nothing
nothing
nothing
nothing
nothing
nothing
nothing
nothing
nothing
nothing
nothing
nothing

basis_sm=special
def2-SVP
def2-SVP
def2-SVP
def2-SVP
def2-SVP
def2-SVP
def2-SVP
def2-SVP
def2-SVP
def2-SVP
nothing
nothing
nothing
nothing
nothing
nothing
nothing
nothing
nothing
nothing
nothing
nothing
nothing
nothing
nothing
nothing
nothing
nothing
nothing
nothing
nothing
nothing
nothing
nothing
nothing
nothing
nothing
nothing
nothing
nothing
nothing
nothing

dfbasis_scf=special
def2-QZVPP-RI-JK
def2-QZVPP-RI-JK
def2-QZVPP-RI-JK
def2-QZVPP-RI-JK
def2-QZVPP-RI-JK
def2-QZVPP-RI-JK
def2-QZVPP-RI-JK
def2-QZVPP-RI-JK
def2-QZVPP-RI-JK
def2-QZVPP-RI-JK
nothing
nothing
nothing
nothing
nothing
nothing
nothing
nothing
nothing
nothing
nothing
nothing
nothing
nothing
nothing
nothing
nothing
nothing
nothing
nothing
nothing
nothing
nothing
nothing
nothing
nothing
nothing
nothing
nothing
nothing
nothing
nothing

dfbasis_cor=special
aug-cc-pVTZ-RI
aug-cc-pVTZ-RI
aug-cc-pVTZ-RI
aug-cc-pVTZ-RI
cc-pVTZ-RI
aug-cc-pVTZ-RI
aug-cc-pVTZ-RI
aug-cc-pVTZ-RI
aug-cc-pVTZ-RI
aug-cc-pVTZ-RI
nothing
nothing
nothing
nothing
nothing
nothing
nothing
nothing
nothing
nothing
nothing
nothing
nothing
nothing
nothing
nothing
nothing
nothing
nothing
nothing
nothing
nothing
nothing
nothing
nothing
nothing
nothing
nothing
nothing
nothing
nothing
nothing

ecp=special
none
none
none
none
none
none
none
none
none
none
ECP-22
ECP-22
ECP-22
ECP-22
ECP-22
ECP-22
ECP-22
ECP-22
ECP-22
ECP-22
ECP-22
ECP-22
ECP-22
ECP-22
ECP-22
ECP-22
ECP-22
ECP-22
ECP-22
ECP-22
ECP-22
ECP-22
ECP-22
ECP-22
ECP-22
ECP-22
ECP-22
ECP-22
ECP-22
ECP-22
ECP-22
ECP-22

unit=angs
geom=xyz
42
N1 H3 Ti1 O5 ECP32
N     1.08696518842   -0.00000009305    1.23710519961
H     0.44123724179   -0.00000009812    2.02707937735
H     1.69411477679   -0.81895599788    1.31372553080
H     1.69411473181    0.81895581130    1.31372550327
Ti    0.00000000000    0.00000000000   -0.78470163195
O    -1.65931196752   -0.00000001427    0.00000000000
O    -0.96790782391    0.00000013002   -2.39107888348
O     0.48191419882    1.92321403687   -0.74930529898
O     0.48191412838   -1.92321415670   -0.74930552111
O     1.92020220131   -0.00000003587   -1.56437186685
Ti   -2.78551524383   -0.00000001235   -1.47979682550
Ti    2.29583925195    1.89297887512   -1.56954627905
Ti    2.29583935517   -1.89297894838   -1.56954597647
Ti   -0.03135911375    3.80500941194   -0.94966962225
Ti   -0.03135918251   -3.80500946216   -0.94966978715
Ti   -1.44640900919    0.00000017332   -4.31400762541
Ti   -2.82534088990    3.78184218887   -1.49800854206
Ti   -2.82534095751   -3.78184229517   -1.49800831449
Ti    0.80236692900    1.89278918463   -5.15129598517
Ti    0.80236705796   -1.89278908691   -5.15129596957
Ti    5.08352345696    1.88226488583   -0.94355012178
Ti    5.08352338689   -1.88226490382   -0.94354943776
Ti   -1.46558215868    3.79032654937   -4.40061977897
Ti   -1.46558220591   -3.79032635210   -4.40061971890
Ti    3.68319111435    1.88778934557   -4.42532529261
Ti    3.68319109055   -1.88778916210   -4.42532477106
Ti   -5.19023539879    1.88226488583   -0.94355012178
Ti   -5.19023546887   -1.88226490382   -0.94354943776
Ti   -4.29168100755    0.00000008082   -5.12407161964
Ti    2.32871315604    5.68440676087   -1.51330047985
Ti    2.32871315604   -5.68440689162   -1.51330047985
Ti    0.80887157667    5.68440683623   -5.14118576391
Ti    0.80887157667   -5.68440681625   -5.14118576391
Ti   -4.32345221993    3.79102367205   -5.13079265213
Ti   -4.32345204933   -3.79102349861   -5.13079264059
Ti    5.98207784820    0.00000008082   -5.12407161964
Ti    7.48824361192   -0.00000001235   -1.47979682550
Ti   -0.03135918251    7.56380419033   -0.94966978715
Ti   -0.03135911375   -7.56380424054   -0.94966962225
Ti   -2.88019247095    0.00000005303   -7.85623897039
Ti    5.10782386795    5.68440672118   -0.94223014971
Ti    5.10782386795   -5.68440693131   -0.94223014971


ghost=serialno
1-4

qmmm=Amber
pointcharges
9572
     -2.78551524383   -0.00000001235   -1.47979682550    4.00000000000
      2.29583925195    1.89297887512   -1.56954627905    4.00000000000
      2.29583935517   -1.89297894838   -1.56954597647    4.00000000000
     -3.19665888055    1.89067000888   -1.48726276009   -2.00000000000
--------------------Output has been truncated-------------------------


--------------------Output has been truncated-------------------------


--------------------Output has been truncated-------------------------


--------------------Output has been truncated-------------------------


--------------------Output has been truncated-------------------------


--------------------Output has been truncated-------------------------


--------------------Output has been truncated-------------------------


--------------------Output has been truncated-------------------------


--------------------Output has been truncated-------------------------


--------------------Output has been truncated-------------------------


 ************************ 2023-04-11 20:07:00 *************************
 Executing ccsd...

 Allocation of 220.0 Gbytes of memory...

 Direct DF-CCSD(T) calculation
 
 Convergence criterion:  1.0E-06
 
 Number of occupied/virtual/auxiliary orbitals:    20   379  1018
   8816.33 MB is the minimal memory requirement for (T)
   2123.05 MB is the minimal memory requirement for CCSD
 
 Reference energy [au]:          -83347.738919777708
 T1 contribution [au]:                0.000000000000
 Same spin MP2 energy [au]:          -0.386345586967
 Opposite spin MP2 energy [au]:      -1.036656418692
 MP2 correlation energy [au]:        -1.423002005671
 Total MP2 energy [au]:          -83349.161921783380
 
 
 CPU time [min]:     1.113                   Wall time [min]:     0.195
 
 Starting CCSD iterations...
 
                     Residual norm          Energy
 Iteration  1        0.382813867054   -83349.087368313907
 Iteration  2        0.198094813906   -83349.130044238365
 Iteration  3        0.051683416123   -83349.140814559840
 Iteration  4        0.019262729478   -83349.141922708659
 Iteration  5        0.007893672968   -83349.140885417408
 Iteration  6        0.004073976394   -83349.140624584514
 Iteration  7        0.001891470257   -83349.140773303618
 Iteration  8        0.000823942710   -83349.140748272941
 Iteration  9        0.000316063057   -83349.140740538802
 Iteration 10        0.000161617045   -83349.140748772246
 Iteration 11        0.000067381186   -83349.140750016013
 Iteration 12        0.000033159109   -83349.140749316881
 Iteration 13        0.000014772672   -83349.140749578641
 Iteration 14        0.000007592499   -83349.140749503247
 
 CCSD iteration has converged in 14 steps.
    80989.08 MB memory was utilized by CCSD
 
 T1 diagnostic:      2.271E-02            D1 diagnostic:      7.861E-02
 
 T1 contribution [au]:                                  0.000000000000
 Opposite spin CCSD energy [au]:                       -1.065649491433
 Same spin CCSD energy [au]:                           -0.336180234103
 CCSD correlation energy [au]:                         -1.401829725539
 Total CCSD energy [au]:                           -83349.140749503247
 
 CPU time [min]:   361.342                   Wall time [min]:    11.409
 
 Calculation of (T) correction...
 
 
    14147.91 MB memory is utilized for (T)

 0%       25%       50%       75%       100%
 |---------|---------|---------|---------| 
 
 (T) correction [au]:                                    -0.070129789941
 CCSD(T) correlation energy [au]:                        -1.471959515475
 Total CCSD(T) energy [au]:                          -83349.210879293183
 
 CPU time [min]:   854.220                   Wall time [min]:    25.779
 
 ************************ 2023-04-11 20:32:48 *************************
                      Normal termination of mrcc.
 **********************************************************************
