 vasp.6.3.0 20Jan22 (build Apr  1 2022 16:44:48) complex                         
 executed on        HPECrayEX_GCC date 2022.11.13  16:04:18
 running  512 mpi-ranks, with    1 threads/rank
 distrk:  each k-point on  512 cores,    1 groups
 distr:  one band on NCORE=   8 cores,   64 groups


--------------------------------------------------------------------------------------------------------


 INCAR:
   SYSTEM = MgO-rocksalt
   ISMEAR = 0
   SIGMA = 0.05
   EDIFF = 1E-6
   ALGO = ALL
   ISTART = 0
   IBRION = -1
   NSW = 0
   ISYM = 0
   DIPOL = 0.5 0.5 0.5
   IDIPOL = 3
   LDIPOL = .TRUE.
   GGA = PE
   IVDW = 1
   VDW_C6 = 1.23 0.70 0.63 0.70
   VDW_R0 = 1.397 1.342 1.243 1.342
   ENCUT = 600
   PREC = Accurate
   LASPH = .TRUE.
   LREAL = .FALSE.
   ISPIN = 2
   MAGMOM = 1.0 0.0 0.0 0.0 0.0 0.0 0.0 0.0 0.0 0.0 0.0 0.0 0.0 0.0 0.0 0.0 0.0 0.0 0.0 0.0 0.0 0.0 0.0 0.0 0.0 0.0 0.0 0.0 0.0 0.0 0.0 0.0 0.0 0.0 0.0 0.0 0.0 0.0 0.0 0.0 0.0 0.0 0.0 0.0 0.0 0.0 0.0 0.0 0.0 0.0 0.0 0.0 0.0 0.0 0.0 0.0 0.0 0.0 0.0 0.0 0.0 0.0 0.0 0.0 0.0 0.0
   NELM = 200
   NELMIN = 8
   NCORE = 8
   KPAR = 1
   LWAVE = .FALSE.
   LCHARG = .FALSE.

 POTCAR:    PAW_PBE N 08Apr2002                   
 POTCAR:    PAW_PBE O 08Apr2002                   
 POTCAR:    PAW_PBE Mg_pv 13Apr2007               
 POTCAR:    PAW_PBE O 08Apr2002                   
 POTCAR:    PAW_PBE N 08Apr2002                   
   SHA256 =  e053789ff3a61a86a1b75d8a110fcc91f86041011e7b0817c7c99e4e8a6349d7 N/POTCAR              
   COPYR  = (c) Copyright 08Apr2002 Georg Kresse                                                    
   COPYR  = This file is part of the software VASP. Any use, copying, and all other rights are regul
   COPYR  = If you do not have a valid VASP license, you may not use, copy or distribute this file. 
   VRHFIN =N: s2p3                                                                                  
   LEXCH  = PE                                                                                      
   EATOM  =   264.5486 eV,   19.4438 Ry                                                             
                                                                                                    
   TITEL  = PAW_PBE N 08Apr2002                                                                     
   LULTRA =        F    use ultrasoft PP ?                                                          
   IUNSCR =        1    unscreen: 0-lin 1-nonlin 2-no                                               
   RPACOR =    1.200    partial core radius                                                         
   POMASS =   14.001; ZVAL   =    5.000    mass and valenz                                          
   RCORE  =    1.500    outmost cutoff radius                                                       
   RWIGS  =    1.400; RWIGS  =    0.741    wigner-seitz radius (au A)                               
   ENMAX  =  400.000; ENMIN  =  300.000 eV                                                          
   ICORE  =        2    local potential                                                             
   LCOR   =        T    correct aug charges                                                         
   LPAW   =        T    paw PP                                                                      
   EAUG   =  627.112                                                                                
   DEXC   =    0.000                                                                                
   RMAX   =    1.529    core radius for proj-oper                                                   
   RAUG   =    1.300    factor for augmentation sphere                                              
   RDEP   =    1.514    radius for radial grids                                                     
   RDEPT  =    1.338    core radius for aug-charge                                                  
                                                                                                    
   Atomic configuration                                                                             
    4 entries                                                                                       
     n  l   j            E        occ.                                                              
     1  0  0.50      -384.7179   2.0000                                                             
     2  0  0.50       -18.5828   2.0000                                                             
     2  1  0.50        -7.0898   3.0000                                                             
     3  2  1.50        -6.8029   0.0000                                                             
   Description                                                                                      
     l       E           TYP  RCUT    TYP  RCUT                                                     
     0    -18.5828119     23  1.200                                                                 
     0    -13.5018863     23  1.200                                                                 
     1     -7.0897853     23  1.500                                                                 
     1      9.5240782     23  1.500                                                                 
     2     -6.8029130      7  1.500                                                                 
  local pseudopotential read in
  partial core-charges read in
  partial kinetic energy density read in
  atomic valenz-charges read in
  non local Contribution for L=           0  read in
    real space projection operators read in
  non local Contribution for L=           0  read in
    real space projection operators read in
  non local Contribution for L=           1  read in
    real space projection operators read in
  non local Contribution for L=           1  read in
    real space projection operators read in
    PAW grid and wavefunctions read in

   number of l-projection  operators is LMAX  =           4
   number of lm-projection operators is LMMAX =           8

 POTCAR:    PAW_PBE O 08Apr2002                   
   SHA256 =  818f92134a0a090dccd8ba1447fa70422a3b330e708bb4f08108d8ae51209ddf O/POTCAR              
   COPYR  = (c) Copyright 08Apr2002 Georg Kresse                                                    
   COPYR  = This file is part of the software VASP. Any use, copying, and all other rights are regul
   COPYR  = If you do not have a valid VASP license, you may not use, copy or distribute this file. 
   VRHFIN =O: s2p4                                                                                  
   LEXCH  = PE                                                                                      
   EATOM  =   432.3788 eV,   31.7789 Ry                                                             
                                                                                                    
   TITEL  = PAW_PBE O 08Apr2002                                                                     
   LULTRA =        F    use ultrasoft PP ?                                                          
   IUNSCR =        1    unscreen: 0-lin 1-nonlin 2-no                                               
   RPACOR =    1.200    partial core radius                                                         
   POMASS =   16.000; ZVAL   =    6.000    mass and valenz                                          
   RCORE  =    1.520    outmost cutoff radius                                                       
   RWIGS  =    1.550; RWIGS  =    0.820    wigner-seitz radius (au A)                               
   ENMAX  =  400.000; ENMIN  =  300.000 eV                                                          
   ICORE  =        2    local potential                                                             
   LCOR   =        T    correct aug charges                                                         
   LPAW   =        T    paw PP                                                                      
   EAUG   =  605.392                                                                                
   DEXC   =    0.000                                                                                
   RMAX   =    1.553    core radius for proj-oper                                                   
   RAUG   =    1.300    factor for augmentation sphere                                              
   RDEP   =    1.550    radius for radial grids                                                     
   RDEPT  =    1.329    core radius for aug-charge                                                  
                                                                                                    
   Atomic configuration                                                                             
    4 entries                                                                                       
     n  l   j            E        occ.                                                              
     1  0  0.50      -514.6923   2.0000                                                             
     2  0  0.50       -23.9615   2.0000                                                             
     2  1  0.50        -9.0305   4.0000                                                             
     3  2  1.50        -9.5241   0.0000                                                             
   Description                                                                                      
     l       E           TYP  RCUT    TYP  RCUT                                                     
     0    -23.9615318     23  1.200                                                                 
     0     -9.5240782     23  1.200                                                                 
     1     -9.0304911     23  1.520                                                                 
     1      8.1634956     23  1.520                                                                 
     2     -9.5240782      7  1.500                                                                 
  local pseudopotential read in
  partial core-charges read in
  partial kinetic energy density read in
  kinetic energy density of atom read in
  atomic valenz-charges read in
  non local Contribution for L=           0  read in
    real space projection operators read in
  non local Contribution for L=           0  read in
    real space projection operators read in
  non local Contribution for L=           1  read in
    real space projection operators read in
  non local Contribution for L=           1  read in
    real space projection operators read in
    PAW grid and wavefunctions read in

   number of l-projection  operators is LMAX  =           4
   number of lm-projection operators is LMMAX =           8

 POTCAR:    PAW_PBE Mg_pv 13Apr2007               
   SHA256 =  f474ac0dd33840b9ae76c01d57fea79fdf77cdfbb07d5ade72c65f83c709b62b Mg_pv/POTCAR          
   COPYR  = (c) Copyright 13Apr2007 Georg Kresse                                                    
   COPYR  = This file is part of the software VASP. Any use, copying, and all other rights are regul
   COPYR  = If you do not have a valid VASP license, you may not use, copy or distribute this file. 
   VRHFIN =Mg: p6s2                                                                                 
   LEXCH  = PE                                                                                      
   EATOM  =  1056.7344 eV,   77.6678 Ry                                                             
                                                                                                    
   TITEL  = PAW_PBE Mg_pv 13Apr2007                                                                 
   LULTRA =        F    use ultrasoft PP ?                                                          
   IUNSCR =        1    unscreen: 0-lin 1-nonlin 2-no                                               
   RPACOR =    1.500    partial core radius                                                         
   POMASS =   24.305; ZVAL   =    8.000    mass and valenz                                          
   RCORE  =    2.000    outmost cutoff radius                                                       
   RWIGS  =    2.000; RWIGS  =    1.058    wigner-seitz radius (au A)                               
   ENMAX  =  403.929; ENMIN  =  302.947 eV                                                          
   RCLOC  =    1.506    cutoff for local pot                                                        
   LCOR   =        T    correct aug charges                                                         
   LPAW   =        T    paw PP                                                                      
   EAUG   =  758.780                                                                                
   DEXC   =    0.000                                                                                
   RMAX   =    2.045    core radius for proj-oper                                                   
   RAUG   =    1.300    factor for augmentation sphere                                              
   RDEP   =    2.025    radius for radial grids                                                     
   RDEPT  =    1.557    core radius for aug-charge                                                  
                                                                                                    
   Atomic configuration                                                                             
    5 entries                                                                                       
     n  l   j            E        occ.                                                              
     1  0  0.50     -1259.6230   2.0000                                                             
     2  0  0.50       -79.8442   2.0000                                                             
     2  1  1.50       -46.6121   6.0000                                                             
     3  0  0.50        -4.7055   2.0000                                                             
     3  2  1.50        -1.3606   0.0000                                                             
   Description                                                                                      
     l       E           TYP  RCUT    TYP  RCUT                                                     
     1    -46.6121073     23  1.600                                                                 
     1      2.7211652     23  1.600                                                                 
     0     -4.7054661     23  2.000                                                                 
     0     61.2262170     23  2.000                                                                 
     2     -1.3605826     23  2.000                                                                 
  local pseudopotential read in
  partial core-charges read in
  partial kinetic energy density read in
  atomic valenz-charges read in
  non local Contribution for L=           1  read in
    real space projection operators read in
  non local Contribution for L=           1  read in
    real space projection operators read in
  non local Contribution for L=           0  read in
    real space projection operators read in
  non local Contribution for L=           0  read in
    real space projection operators read in
  non local Contribution for L=           2  read in
    real space projection operators read in
    PAW grid and wavefunctions read in

   number of l-projection  operators is LMAX  =           5
   number of lm-projection operators is LMMAX =          13

 POTCAR:    PAW_PBE O 08Apr2002                   
   SHA256 =  818f92134a0a090dccd8ba1447fa70422a3b330e708bb4f08108d8ae51209ddf O/POTCAR              
   COPYR  = (c) Copyright 08Apr2002 Georg Kresse                                                    
   COPYR  = This file is part of the software VASP. Any use, copying, and all other rights are regul
   COPYR  = If you do not have a valid VASP license, you may not use, copy or distribute this file. 
   VRHFIN =O: s2p4                                                                                  
   LEXCH  = PE                                                                                      
   EATOM  =   432.3788 eV,   31.7789 Ry                                                             
                                                                                                    
   TITEL  = PAW_PBE O 08Apr2002                                                                     
   LULTRA =        F    use ultrasoft PP ?                                                          
   IUNSCR =        1    unscreen: 0-lin 1-nonlin 2-no                                               
   RPACOR =    1.200    partial core radius                                                         
   POMASS =   16.000; ZVAL   =    6.000    mass and valenz                                          
   RCORE  =    1.520    outmost cutoff radius                                                       
   RWIGS  =    1.550; RWIGS  =    0.820    wigner-seitz radius (au A)                               
   ENMAX  =  400.000; ENMIN  =  300.000 eV                                                          
   ICORE  =        2    local potential                                                             
   LCOR   =        T    correct aug charges                                                         
   LPAW   =        T    paw PP                                                                      
   EAUG   =  605.392                                                                                
   DEXC   =    0.000                                                                                
   RMAX   =    1.553    core radius for proj-oper                                                   
   RAUG   =    1.300    factor for augmentation sphere                                              
   RDEP   =    1.550    radius for radial grids                                                     
   RDEPT  =    1.329    core radius for aug-charge                                                  
                                                                                                    
   Atomic configuration                                                                             
    4 entries                                                                                       
     n  l   j            E        occ.                                                              
     1  0  0.50      -514.6923   2.0000                                                             
     2  0  0.50       -23.9615   2.0000                                                             
     2  1  0.50        -9.0305   4.0000                                                             
     3  2  1.50        -9.5241   0.0000                                                             
   Description                                                                                      
     l       E           TYP  RCUT    TYP  RCUT                                                     
     0    -23.9615318     23  1.200                                                                 
     0     -9.5240782     23  1.200                                                                 
     1     -9.0304911     23  1.520                                                                 
     1      8.1634956     23  1.520                                                                 
     2     -9.5240782      7  1.500                                                                 
  local pseudopotential read in
  partial core-charges read in
  partial kinetic energy density read in
  kinetic energy density of atom read in
  atomic valenz-charges read in
  non local Contribution for L=           0  read in
    real space projection operators read in
  non local Contribution for L=           0  read in
    real space projection operators read in
  non local Contribution for L=           1  read in
    real space projection operators read in
  non local Contribution for L=           1  read in
    real space projection operators read in
    PAW grid and wavefunctions read in

   number of l-projection  operators is LMAX  =           4
   number of lm-projection operators is LMMAX =           8

 -----------------------------------------------------------------------------
|                                                                             |
|               ----> ADVICE to this user running VASP <----                  |
|                                                                             |
|     You have a (more or less) 'large supercell' and for larger cells it     |
|     might be more efficient to use real-space projection operators.         |
|     Therefore, try LREAL= Auto in the INCAR file.                           |
|     Mind: For very accurate calculation, you might also keep the            |
|     reciprocal projection scheme (i.e. LREAL=.FALSE.).                      |
|                                                                             |
 -----------------------------------------------------------------------------

  PAW_PBE N 08Apr2002                   :
 energy of atom  1       EATOM= -264.5486
 kinetic energy error for atom=    0.0103 (will be added to EATOM!!)
  PAW_PBE O 08Apr2002                   :
 energy of atom  2       EATOM= -432.3788
 kinetic energy error for atom=    0.0168 (will be added to EATOM!!)
  PAW_PBE Mg_pv 13Apr2007               :
 energy of atom  3       EATOM=-1056.7344
 kinetic energy error for atom=    0.0221 (will be added to EATOM!!)
  PAW_PBE O 08Apr2002                   :
 energy of atom  4       EATOM= -432.3788
 kinetic energy error for atom=    0.0168 (will be added to EATOM!!)


 POSCAR:  N  O Mg  O
  positions in direct lattice
  No initial velocities read in
 exchange correlation table for  LEXCH =        8
   RHO(1)=    0.500       N(1)  =     2000
   RHO(2)=  100.500       N(2)  =     4000



--------------------------------------------------------------------------------------------------------


 ion  position               nearest neighbor table
   1  0.635  0.492  0.763-   2 1.16
   2  0.696  0.589  0.794-   1 1.16
   3  0.250  0.000  0.352-  37 2.10  38 2.10  45 2.10  54 2.10  35 2.10
   4  0.500  0.250  0.352-  37 2.10  38 2.10  46 2.10  53 2.10  36 2.10
   5  0.250  0.250  0.451-  35 2.10  36 2.10  43 2.10  52 2.10  37 2.10  41 2.11
   6  0.500  0.000  0.451-  35 2.10  36 2.10  44 2.10  51 2.10  38 2.10  42 2.10
   7  0.250  0.000  0.550-  42 2.10  41 2.10  49 2.10  58 2.10  35 2.11  39 2.13
   8  0.500  0.250  0.550-  50 2.10  41 2.10  57 2.10  42 2.10  36 2.12  40 2.12
   9  0.250  0.250  0.648-  41 2.09  39 2.10  40 2.10  56 2.10  47 2.10
  10  0.500  0.000  0.648-  42 2.09  40 2.10  48 2.10  39 2.10  55 2.10
  11  0.250  0.500  0.352-  37 2.10  45 2.10  46 2.10  62 2.10  43 2.10
  12  0.500  0.750  0.352-  38 2.10  45 2.10  46 2.10  61 2.10  44 2.10
  13  0.250  0.750  0.451-  35 2.10  43 2.10  44 2.10  60 2.10  45 2.10  49 2.11
  14  0.500  0.500  0.451-  36 2.10  43 2.10  44 2.10  59 2.10  46 2.10  50 2.11
  15  0.251  0.500  0.550-  50 2.10  41 2.10  49 2.10  66 2.11  43 2.11  47 2.13
  16  0.500  0.750  0.550-  50 2.10  49 2.10  42 2.10  65 2.10  44 2.12  48 2.12
  17  0.250  0.750  0.648-  49 2.09  39 2.10  48 2.10  47 2.10  64 2.10
  18  0.499  0.500  0.649-  47 2.09  40 2.10  48 2.11  50 2.12  63 2.12
  19  0.750  0.000  0.352-  38 2.10  53 2.10  54 2.10  61 2.10  51 2.10
  20  0.000  0.250  0.352-  37 2.10  53 2.10  54 2.10  62 2.10  52 2.10
  21  0.750  0.250  0.451-  36 2.10  51 2.10  52 2.10  59 2.10  53 2.10  57 2.11
  22  0.000  0.000  0.451-  35 2.10  51 2.10  52 2.10  60 2.10  54 2.10  58 2.11
  23  0.750  0.000  0.550-  42 2.10  57 2.10  58 2.10  65 2.10  51 2.11  55 2.13
  24  0.000  0.250  0.550-  41 2.10  57 2.10  66 2.10  58 2.10  52 2.11  56 2.13
  25  0.750  0.249  0.648-  55 2.09  57 2.09  40 2.10  56 2.10  63 2.11
  26  0.000  0.000  0.648-  58 2.09  39 2.10  56 2.10  64 2.10  55 2.10
  27  0.750  0.500  0.352-  46 2.10  53 2.10  61 2.10  62 2.10  59 2.10
  28  0.000  0.750  0.352-  45 2.10  54 2.10  61 2.10  62 2.10  60 2.10
  29  0.750  0.750  0.451-  44 2.10  51 2.10  59 2.10  60 2.10  61 2.10  65 2.11
  30  0.000  0.500  0.451-  43 2.10  52 2.10  59 2.10  60 2.10  62 2.10  66 2.11
  31  0.750  0.500  0.550-  50 2.10  57 2.10  65 2.10  66 2.10  59 2.11  63 2.14
  32  0.000  0.750  0.550-  49 2.10  66 2.10  58 2.10  65 2.10  60 2.11  64 2.13
  33  0.750  0.752  0.647-  65 2.08  55 2.09  64 2.10  48 2.10  63 2.11
  34  0.002  0.500  0.648-  47 2.09  66 2.09  56 2.10  64 2.10  63 2.10
  35  0.250  0.000  0.451-   5 2.10   6 2.10  13 2.10  22 2.10   3 2.10   7 2.11
  36  0.500  0.250  0.451-   5 2.10   6 2.10  14 2.10  21 2.10   4 2.10   8 2.12
  37  0.250  0.250  0.352-   3 2.10   4 2.10  11 2.10  20 2.10   5 2.10
  38  0.500  0.000  0.352-   3 2.10   4 2.10  12 2.10  19 2.10   6 2.10
  39  0.250  0.000  0.650-  26 2.10  17 2.10   9 2.10  10 2.10   7 2.13
  40  0.500  0.250  0.649-  10 2.10   9 2.10  25 2.10  18 2.10   8 2.12
  41  0.250  0.250  0.550-   9 2.09  24 2.10  15 2.10   7 2.10   8 2.10   5 2.11
  42  0.500  1.000  0.549-  10 2.09  23 2.10   7 2.10  16 2.10   8 2.10   6 2.10
  43  0.250  0.500  0.451-   5 2.10  13 2.10  14 2.10  30 2.10  11 2.10  15 2.11
  44  0.500  0.750  0.451-   6 2.10  13 2.10  14 2.10  29 2.10  12 2.10  16 2.12
  45  0.250  0.750  0.352-   3 2.10  11 2.10  12 2.10  28 2.10  13 2.10
  46  0.500  0.500  0.352-   4 2.10  11 2.10  12 2.10  27 2.10  14 2.10
  47  0.250  0.500  0.650-  34 2.09  18 2.09  17 2.10   9 2.10  15 2.13
  48  0.500  0.750  0.650-  10 2.10  33 2.10  17 2.10  18 2.11  16 2.12
  49  0.250  0.750  0.550-  17 2.09  32 2.10  15 2.10  16 2.10   7 2.10  13 2.11
  50  0.500  0.500  0.550-  31 2.10  16 2.10  15 2.10   8 2.10  14 2.11  18 2.12
  51  0.750  0.000  0.451-   6 2.10  21 2.10  22 2.10  29 2.10  19 2.10  23 2.11
  52  0.000  0.250  0.451-   5 2.10  21 2.10  22 2.10  30 2.10  20 2.10  24 2.11
  53  0.750  0.250  0.352-   4 2.10  19 2.10  20 2.10  27 2.10  21 2.10
  54  0.000  0.000  0.352-   3 2.10  19 2.10  20 2.10  28 2.10  22 2.10
  55  0.750  0.000  0.650-  33 2.09  25 2.09  26 2.10  10 2.10  23 2.13
  56  0.000  0.250  0.650-  34 2.10  26 2.10  25 2.10   9 2.10  24 2.13
  57  0.750  0.250  0.550-  25 2.09  31 2.10  24 2.10  23 2.10   8 2.10  21 2.11
  58  0.000  0.000  0.550-  26 2.09  32 2.10  24 2.10  23 2.10   7 2.10  22 2.11
  59  0.750  0.500  0.451-  14 2.10  21 2.10  29 2.10  30 2.10  27 2.10  31 2.11
  60  0.000  0.750  0.451-  13 2.10  22 2.10  29 2.10  30 2.10  28 2.10  32 2.11
  61  0.750  0.750  0.352-  12 2.10  19 2.10  27 2.10  28 2.10  29 2.10
  62  0.000  0.500  0.352-  11 2.10  20 2.10  27 2.10  28 2.10  30 2.10
  63  0.751  0.500  0.650-  34 2.10  25 2.11  33 2.11  18 2.12  31 2.14
  64  0.000  0.750  0.650-  33 2.10  34 2.10  26 2.10  17 2.10  32 2.13
  65  0.750  0.750  0.550-  33 2.08  31 2.10  32 2.10  16 2.10  23 2.10  29 2.11
  66  1.000  0.500  0.550-  34 2.09  32 2.10  24 2.10  31 2.10  15 2.11  30 2.11


IMPORTANT INFORMATION: All symmetrisations will be switched off!
NOSYMM: (Re-)initialisation of all symmetry stuff for point group C_1.


----------------------------------------------------------------------------------------

                                     Primitive cell                                     

  volume of cell :    1504.9259

  direct lattice vectors                    reciprocal lattice vectors
     8.404861995  0.000000000  0.000000000     0.118978753  0.000000000  0.000000000
     0.000000000  8.404861995  0.000000000     0.000000000  0.118978753  0.000000000
     0.000000000  0.000000000 21.303646496     0.000000000  0.000000000  0.046940321

  length of vectors
     8.404861995  8.404861995 21.303646496     0.118978753  0.118978753  0.046940321

  position of ions in fractional coordinates (direct lattice)
     0.635190480  0.492214212  0.763341197
     0.696084107  0.588959481  0.793975227
     0.250000000  0.000000000  0.352052406
     0.500000000  0.250000000  0.352052406
     0.250000000  0.250000000  0.450684135
     0.500000000  0.000000000  0.450684135
     0.250201296  0.000051186  0.549829182
     0.500074169  0.250267297  0.550040223
     0.250380904  0.249768525  0.647816109
     0.500027791  0.000177069  0.647770936
     0.250000000  0.500000000  0.352052406
     0.500000000  0.750000000  0.352052406
     0.250000000  0.750000000  0.450684135
     0.500000000  0.500000000  0.450684135
     0.250556007  0.500010133  0.549952401
     0.500029024  0.749770195  0.550011951
     0.250360895  0.750345249  0.647856598
     0.499163319  0.499910165  0.649266123
     0.750000000  0.000000000  0.352052406
     0.000000000  0.250000000  0.352052406
     0.750000000  0.250000000  0.450684135
     0.000000000  0.000000000  0.450684135
     0.750040870  0.000265953  0.549771423
     0.000127674  0.250061079  0.549908161
     0.750038308  0.249141597  0.647977931
     0.000432932  0.000166783  0.647856126
     0.750000000  0.500000000  0.352052406
     0.000000000  0.750000000  0.352052406
     0.750000000  0.750000000  0.450684135
     0.000000000  0.500000000  0.450684135
     0.749727982  0.499936508  0.549738246
     0.000263021  0.750039209  0.549862713
     0.750329619  0.751707916  0.647452657
     0.001503727  0.500051997  0.647744642
     0.250000000  0.000000000  0.450684135
     0.500000000  0.250000000  0.450684135
     0.250000000  0.250000000  0.352052406
     0.500000000  0.000000000  0.352052406
     0.250083279  0.000015404  0.649829528
     0.500175362  0.249607323  0.649442677
     0.249944391  0.250088293  0.549564651
     0.500136630  0.999950246  0.549483932
     0.250000000  0.500000000  0.450684135
     0.500000000  0.750000000  0.450684135
     0.250000000  0.750000000  0.352052406
     0.500000000  0.500000000  0.352052406
     0.250039983  0.500097099  0.649944714
     0.500476229  0.750430228  0.649695467
     0.250030158  0.749973742  0.549593958
     0.500341060  0.500088978  0.549853824
     0.750000000  0.000000000  0.450684135
     0.000000000  0.250000000  0.450684135
     0.750000000  0.250000000  0.352052406
     0.000000000  0.000000000  0.352052406
     0.750344121  0.000171502  0.649705803
     0.000159769  0.250115784  0.649912880
     0.750244159  0.250295708  0.549652232
     0.000089450  0.000032408  0.549565907
     0.750000000  0.500000000  0.450684135
     0.000000000  0.750000000  0.450684135
     0.750000000  0.750000000  0.352052406
     0.000000000  0.500000000  0.352052406
     0.751295068  0.500361563  0.650304388
     0.000101216  0.750090273  0.649884417
     0.750241148  0.749872146  0.549597635
     0.999948007  0.500067176  0.549660164

  ion indices of the primitive-cell ions
   primitive index   ion index
                 1           1
                 2           2
                 3           3
                 4           4
                 5           5
                 6           6
                 7           7
                 8           8
                 9           9
                10          10
                11          11
                12          12
                13          13
                14          14
                15          15
                16          16
                17          17
                18          18
                19          19
                20          20
                21          21
                22          22
                23          23
                24          24
                25          25
                26          26
                27          27
                28          28
                29          29
                30          30
                31          31
                32          32
                33          33
                34          34
                35          35
                36          36
                37          37
                38          38
                39          39
                40          40
                41          41
                42          42
                43          43
                44          44
                45          45
                46          46
                47          47
                48          48
                49          49
                50          50
                51          51
                52          52
                53          53
                54          54
                55          55
                56          56
                57          57
                58          58
                59          59
                60          60
                61          61
                62          62
                63          63
                64          64
                65          65
                66          66

----------------------------------------------------------------------------------------



 KPOINTS: pymatgen v2020.8.13 with grid density = 

Automatic generation of k-mesh.
 Grid dimensions read from file:
 generate k-points for:    2    2    1

 Generating k-lattice:

  Cartesian coordinates                     Fractional coordinates (reciprocal lattice)
     0.059489377  0.000000000  0.000000000     0.500000000  0.000000000  0.000000000
     0.000000000  0.059489377  0.000000000     0.000000000  0.500000000  0.000000000
     0.000000000  0.000000000  0.046940321     0.000000000  0.000000000  1.000000000

  Length of vectors
     0.059489377  0.059489377  0.046940321

  Shift w.r.t. Gamma in fractional coordinates (k-lattice)
     0.000000000  0.000000000  0.000000000

 
 Subroutine IBZKPT returns following result:
 ===========================================
 
 Found      4 irreducible k-points:
 
 Following reciprocal coordinates:
            Coordinates               Weight
  0.000000  0.000000  0.000000      1.000000
  0.500000  0.000000  0.000000      1.000000
  0.000000  0.500000  0.000000      1.000000
  0.500000  0.500000  0.000000      1.000000
 
 Following cartesian coordinates:
            Coordinates               Weight
  0.000000  0.000000  0.000000      1.000000
  0.059489  0.000000  0.000000      1.000000
  0.000000  0.059489  0.000000      1.000000
  0.059489  0.059489  0.000000      1.000000
 


--------------------------------------------------------------------------------------------------------




 Dimension of arrays:
   k-points           NKPTS =      4   k-points in BZ     NKDIM =      4   number of bands    NBANDS=    320
   number of dos      NEDOS =    301   number of ions     NIONS =     66
   non local maximal  LDIM  =      5   non local SUM 2l+1 LMDIM =     13
   total plane-waves  NPLWV = 882000
   max r-space proj   IRMAX =      1   max aug-charges    IRDMAX=  11749
   dimension x,y,z NGX =    70 NGY =   70 NGZ =  180
   dimension x,y,z NGXF=   140 NGYF=  140 NGZF=  360
   support grid    NGXF=   140 NGYF=  140 NGZF=  360
   ions per type =               1   1  32  32
   NGX,Y,Z   is equivalent  to a cutoff of  13.85, 13.85, 14.05 a.u.
   NGXF,Y,Z  is equivalent  to a cutoff of  27.69, 27.69, 28.09 a.u.

 SYSTEM =  MgO-rocksalt                            
 POSCAR =   N  O Mg  O                             

--------------------------------------------------------------------------------------------------------


  energy-cutoff  :      600.00
  volume of cell :     1504.93
      direct lattice vectors                 reciprocal lattice vectors
     8.404861995  0.000000000  0.000000000     0.118978753  0.000000000  0.000000000
     0.000000000  8.404861995  0.000000000     0.000000000  0.118978753  0.000000000
     0.000000000  0.000000000 21.303646496     0.000000000  0.000000000  0.046940321

  length of vectors
     8.404861995  8.404861995 21.303646496     0.118978753  0.118978753  0.046940321



 k-points in units of 2pi/SCALE and weight: pymatgen v2020.8.13 with grid density = 
   0.00000000  0.00000000  0.00000000       0.250
   0.05948938  0.00000000  0.00000000       0.250
   0.00000000  0.05948938  0.00000000       0.250
   0.05948938  0.05948938  0.00000000       0.250

 k-points in reciprocal lattice and weights: pymatgen v2020.8.13 with grid density = 
   0.00000000  0.00000000  0.00000000       0.250
   0.50000000  0.00000000  0.00000000       0.250
   0.00000000  0.50000000  0.00000000       0.250
   0.50000000  0.50000000  0.00000000       0.250

 position of ions in fractional coordinates (direct lattice) 
   0.63519048  0.49221421  0.76334120
   0.69608411  0.58895948  0.79397523
   0.25000000  0.00000000  0.35205241
   0.50000000  0.25000000  0.35205241
   0.25000000  0.25000000  0.45068414
   0.50000000  0.00000000  0.45068414
   0.25020130  0.00005119  0.54982918
   0.50007417  0.25026730  0.55004022
   0.25038090  0.24976852  0.64781611
   0.50002779  0.00017707  0.64777094
   0.25000000  0.50000000  0.35205241
   0.50000000  0.75000000  0.35205241
   0.25000000  0.75000000  0.45068414
   0.50000000  0.50000000  0.45068414
   0.25055601  0.50001013  0.54995240
   0.50002902  0.74977020  0.55001195
   0.25036090  0.75034525  0.64785660
   0.49916332  0.49991016  0.64926612
   0.75000000  0.00000000  0.35205241
   0.00000000  0.25000000  0.35205241
   0.75000000  0.25000000  0.45068414
   0.00000000  0.00000000  0.45068414
   0.75004087  0.00026595  0.54977142
   0.00012767  0.25006108  0.54990816
   0.75003831  0.24914160  0.64797793
   0.00043293  0.00016678  0.64785613
   0.75000000  0.50000000  0.35205241
   0.00000000  0.75000000  0.35205241
   0.75000000  0.75000000  0.45068414
   0.00000000  0.50000000  0.45068414
   0.74972798  0.49993651  0.54973825
   0.00026302  0.75003921  0.54986271
   0.75032962  0.75170792  0.64745266
   0.00150373  0.50005200  0.64774464
   0.25000000  0.00000000  0.45068414
   0.50000000  0.25000000  0.45068414
   0.25000000  0.25000000  0.35205241
   0.50000000  0.00000000  0.35205241
   0.25008328  0.00001540  0.64982953
   0.50017536  0.24960732  0.64944268
   0.24994439  0.25008829  0.54956465
   0.50013663  0.99995025  0.54948393
   0.25000000  0.50000000  0.45068414
   0.50000000  0.75000000  0.45068414
   0.25000000  0.75000000  0.35205241
   0.50000000  0.50000000  0.35205241
   0.25003998  0.50009710  0.64994471
   0.50047623  0.75043023  0.64969547
   0.25003016  0.74997374  0.54959396
   0.50034106  0.50008898  0.54985382
   0.75000000  0.00000000  0.45068414
   0.00000000  0.25000000  0.45068414
   0.75000000  0.25000000  0.35205241
   0.00000000  0.00000000  0.35205241
   0.75034412  0.00017150  0.64970580
   0.00015977  0.25011578  0.64991288
   0.75024416  0.25029571  0.54965223
   0.00008945  0.00003241  0.54956591
   0.75000000  0.50000000  0.45068414
   0.00000000  0.75000000  0.45068414
   0.75000000  0.75000000  0.35205241
   0.00000000  0.50000000  0.35205241
   0.75129507  0.50036156  0.65030439
   0.00010122  0.75009027  0.64988442
   0.75024115  0.74987215  0.54959763
   0.99994801  0.50006718  0.54966016

 position of ions in cartesian coordinates  (Angst):
   5.33868832  4.13699253 16.26195101
   5.85049086  4.95012316 16.91456757
   2.10121550  0.00000000  7.50000000
   4.20243100  2.10121550  7.50000000
   2.10121550  2.10121550  9.60121550
   4.20243100  0.00000000  9.60121550
   2.10290737  0.00043021 11.71336654
   4.20305438  2.10346209 11.71786246
   2.10441695  2.09926998 13.80084538
   4.20266458  0.00148824 13.79988303
   2.10121550  4.20243100  7.50000000
   4.20243100  6.30364650  7.50000000
   2.10121550  6.30364650  9.60121550
   4.20243100  4.20243100  9.60121550
   2.10588866  4.20251616 11.71599155
   4.20267494  6.30171502 11.71726017
   2.10424878  6.30654827 13.80170795
   4.19539881  4.20167595 13.83173596
   6.30364650  0.00000000  7.50000000
   0.00000000  2.10121550  7.50000000
   6.30364650  2.10121550  9.60121550
   0.00000000  0.00000000  9.60121550
   6.30399000  0.00223530 11.71213605
   0.00107309  2.10172886 11.71504906
   6.30396847  2.09400074 13.80429277
   0.00363873  0.00140179 13.80169789
   6.30364650  4.20243100  7.50000000
   0.00000000  6.30364650  7.50000000
   6.30364650  6.30364650  9.60121550
   0.00000000  4.20243100  9.60121550
   6.30136022  4.20189736 11.71142927
   0.00221065  6.30397604 11.71408086
   6.30641690  6.31800129 13.79310252
   0.01263862  4.20286802 13.79932288
   2.10121550  0.00000000  9.60121550
   4.20243100  2.10121550  9.60121550
   2.10121550  2.10121550  7.50000000
   4.20243100  0.00000000  7.50000000
   2.10191545  0.00012947 13.84373855
   4.20390489  2.09791510 13.83549722
   2.10074812  2.10195759 11.70773106
   4.20357935  8.40444382 11.70601144
   2.10121550  4.20243100  9.60121550
   4.20243100  6.30364650  9.60121550
   2.10121550  6.30364650  7.50000000
   4.20243100  4.20243100  7.50000000
   2.10155155  4.20324710 13.84619243
   4.20643363  6.30726250 13.84088255
   2.10146898  6.30342580 11.70835539
   4.20529756  4.20317884 11.71389148
   6.30364650  0.00000000  9.60121550
   0.00000000  2.10121550  9.60121550
   6.30364650  2.10121550  7.50000000
   0.00000000  0.00000000  7.50000000
   6.30653879  0.00144145 13.84110275
   0.00134284  2.10218865 13.84551426
   6.30569862  2.10370088 11.70959684
   0.00075181  0.00027239 11.70775780
   6.30364650  4.20243100  9.60121550
   0.00000000  6.30364650  9.60121550
   6.30364650  6.30364650  7.50000000
   0.00000000  4.20243100  7.50000000
   6.31453136  4.20546988 13.85385480
   0.00085071  6.30440523 13.84490789
   6.30567332  6.30257190 11.70843372
   8.40442500  4.20299560 11.70976582



--------------------------------------------------------------------------------------------------------

--------------------------------------- Iteration      FINAL  ---------------------------------------


--------------------OUTCAR has been truncated-------------------------


--------------------OUTCAR has been truncated-------------------------


--------------------OUTCAR has been truncated-------------------------


--------------------OUTCAR has been truncated-------------------------


--------------------OUTCAR has been truncated-------------------------


--------------------OUTCAR has been truncated-------------------------


--------------------OUTCAR has been truncated-------------------------


--------------------OUTCAR has been truncated-------------------------


--------------------OUTCAR has been truncated-------------------------


--------------------OUTCAR has been truncated-------------------------


  DFT-D2 method for vdW energy calculation
  -------------------------------------------------------------------

  Parameters of vdW forcefield:
         C6(Jnm^6/mol)     R0(A)
   -----------------------------
   N        1.230          1.397
   O        0.700          1.342
   Mg       0.630          1.243
   O        0.700          1.342

  vdW correction parametrized for the method pbe       

  IVDW =   1
  VDW_RADIUS =    50.000 A
  VDW_S6 =     0.750
  VDW_SR =     1.000
  VDW_D =    20.000
  LVDW_EWALD = F

  Number of pair interactions contributing to vdW energy:  776698
  Edisp (eV):   -3.77101
    FORVDW:  cpu time      0.1142: real time      0.1142

  FORCE on cell =-STRESS in cart. coord.  units (eV):
  Direction    XX          YY          ZZ          XY          YZ          ZX
  --------------------------------------------------------------------------------------
  Alpha Z   919.26093   919.26093   919.26093
  Ewald  160467.52278160570.89412************   113.05636   144.94208    97.08118
  Hartree170818.00039170861.41812************    41.67476    57.67973    42.61946
  E(xc)   -2509.17239 -2508.79058 -2514.06036     0.36454     0.49201     0.34022
  Local  ************************341088.00607  -137.90463  -186.94992  -137.72104
  n-local -2842.98277 -2847.28916 -2862.76556    -0.66335    -2.95148    -4.81801
  augment  1054.67361  1054.85672  1044.87739    -0.79019    -0.45780     0.52802
  Kinetic  7540.06994  7538.26703  7570.59128   -15.17587   -12.16913     2.29844
  Fock        0.00000     0.00000     0.00000     0.00000     0.00000     0.00000
  vdW        -5.45948    -5.48940    -4.52149     0.00057    -0.00540    -0.00674
  -------------------------------------------------------------------------------------
  Total     -15.85692   -15.21552     7.36450     0.56219     0.58009     0.32154
  in kB     -16.88163   -16.19878     7.84041     0.59852     0.61758     0.34232
  external pressure =       -8.41 kB  Pullay stress =        0.00 kB


 VOLUME and BASIS-vectors are now :
 -----------------------------------------------------------------------------
  energy-cutoff  :      600.00
  volume of cell :     1504.93
      direct lattice vectors                 reciprocal lattice vectors
     8.404861995  0.000000000  0.000000000     0.118978753  0.000000000  0.000000000
     0.000000000  8.404861995  0.000000000     0.000000000  0.118978753  0.000000000
     0.000000000  0.000000000 21.303646496     0.000000000  0.000000000  0.046940321

  length of vectors
     8.404861995  8.404861995 21.303646496     0.118978753  0.118978753  0.046940321


 FORCES acting on ions:
    Electron-Ion                     Ewald-Force                    Non-Local-Force
 -----------------------------------------------------------------------------------------------
   0.117E+03 0.190E+03 -.120E+04   -.138E+03 -.222E+03 0.118E+04   0.195E+02 0.309E+02 0.222E+02
   -.113E+03 -.179E+03 -.157E+04   0.140E+03 0.222E+03 0.160E+04   -.264E+02 -.416E+02 -.338E+02
   0.100E+00 -.586E-01 0.211E+04   -.976E-01 0.593E-01 -.210E+04   -.178E-02 -.469E-03 -.707E+01
   0.229E+00 0.177E+00 0.211E+04   -.232E+00 -.178E+00 -.210E+04   0.223E-02 0.792E-03 -.708E+01
   0.407E+00 0.577E+00 0.729E+03   -.395E+00 -.584E+00 -.730E+03   -.789E-02 0.543E-02 0.449E+00
   0.851E+00 -.282E+00 0.730E+03   -.869E+00 0.281E+00 -.731E+03   0.133E-01 0.767E-03 0.402E+00
   0.225E+01 -.746E+00 -.643E+03   -.222E+01 0.755E+00 0.644E+03   -.286E-01 -.819E-02 -.315E+00
   0.411E+01 0.506E+01 -.634E+03   -.415E+01 -.502E+01 0.635E+03   0.315E-01 -.449E-01 -.673E+00
   0.116E+02 0.132E+02 -.202E+04   -.115E+02 -.132E+02 0.201E+04   -.107E+00 0.844E-01 0.615E+01
   0.118E+02 -.464E+01 -.201E+04   -.118E+02 0.472E+01 0.201E+04   0.639E-01 -.688E-01 0.615E+01
   0.112E+00 0.589E-01 0.211E+04   -.109E+00 -.595E-01 -.210E+04   -.255E-02 0.367E-03 -.706E+01
   0.237E+00 -.178E+00 0.211E+04   -.241E+00 0.179E+00 -.210E+04   0.244E-02 -.811E-03 -.708E+01
   0.426E+00 -.572E+00 0.730E+03   -.404E+00 0.582E+00 -.730E+03   -.152E-01 -.703E-02 0.469E+00
   0.132E+01 0.295E+00 0.731E+03   -.133E+01 -.294E+00 -.732E+03   0.634E-02 -.114E-02 0.539E+00
   0.366E+01 0.775E+00 -.638E+03   -.351E+01 -.783E+00 0.638E+03   -.141E+00 0.810E-02 -.379E+00
   0.488E+01 -.512E+01 -.633E+03   -.494E+01 0.508E+01 0.633E+03   0.572E-01 0.457E-01 -.523E+00
   0.122E+02 -.134E+02 -.201E+04   -.121E+02 0.135E+02 0.201E+04   -.543E-01 -.855E-01 0.615E+01
   0.418E+02 0.653E+01 -.195E+04   -.425E+02 -.651E+01 0.194E+04   0.670E+00 -.142E-01 0.541E+01
   -.996E-01 -.660E-01 0.211E+04   0.977E-01 0.672E-01 -.210E+04   0.134E-02 -.900E-03 -.706E+01
   -.228E+00 0.165E+00 0.211E+04   0.232E+00 -.167E+00 -.210E+04   -.255E-02 0.153E-02 -.707E+01
   -.399E+00 0.103E+01 0.731E+03   0.394E+00 -.103E+01 -.731E+03   0.309E-02 -.231E-02 0.518E+00
   -.828E+00 -.261E+00 0.729E+03   0.856E+00 0.270E+00 -.730E+03   -.193E-01 -.644E-02 0.460E+00
   -.229E+01 -.135E+01 -.636E+03   0.227E+01 0.141E+01 0.636E+03   0.258E-01 -.560E-01 -.338E+00
   -.388E+01 0.373E+01 -.641E+03   0.393E+01 -.377E+01 0.641E+03   -.336E-01 0.318E-01 -.335E+00
   -.155E+02 0.320E+02 -.199E+04   0.154E+02 -.327E+02 0.198E+04   0.662E-01 0.645E+00 0.615E+01
   -.109E+02 -.397E+01 -.202E+04   0.110E+02 0.400E+01 0.202E+04   -.699E-01 -.293E-01 0.615E+01
   -.112E+00 0.673E-01 0.211E+04   0.109E+00 -.681E-01 -.210E+04   0.215E-02 0.547E-03 -.705E+01
   -.236E+00 -.165E+00 0.211E+04   0.240E+00 0.168E+00 -.210E+04   -.294E-02 -.169E-02 -.706E+01
   -.417E+00 -.104E+01 0.731E+03   0.406E+00 0.104E+01 -.732E+03   0.763E-02 -.294E-02 0.519E+00
   -.129E+01 0.275E+00 0.730E+03   0.131E+01 -.280E+00 -.731E+03   -.126E-01 0.406E-02 0.538E+00
   -.397E+01 0.140E+01 -.626E+03   0.380E+01 -.146E+01 0.626E+03   0.151E+00 0.541E-01 0.411E+00
   -.462E+01 -.375E+01 -.638E+03   0.469E+01 0.380E+01 0.638E+03   -.610E-01 -.328E-01 -.303E+00
   -.169E+02 -.343E+02 -.196E+04   0.168E+02 0.351E+02 0.196E+04   0.195E-01 -.741E+00 0.627E+01
   -.261E+02 0.481E+01 -.199E+04   0.267E+02 -.485E+01 0.199E+04   -.569E+00 0.308E-01 0.614E+01
   0.365E+00 -.152E+00 0.546E+03   -.361E+00 0.154E+00 -.546E+03   -.697E-02 -.287E-02 -.104E+00
   0.703E+00 0.600E+00 0.547E+03   -.723E+00 -.627E+00 -.547E+03   0.276E-01 0.381E-01 -.139E+00
   0.768E-01 0.109E+00 0.158E+04   -.744E-01 -.112E+00 -.159E+04   -.326E-02 0.358E-02 0.347E+01
   0.156E+00 -.481E-01 0.158E+04   -.161E+00 0.485E-01 -.159E+04   0.636E-02 -.538E-03 0.347E+01
   0.488E+01 -.203E+01 -.154E+04   -.483E+01 0.204E+01 0.154E+04   -.574E-01 -.129E-01 -.504E+01
   0.155E+02 0.237E+02 -.151E+04   -.155E+02 -.236E+02 0.151E+04   -.850E-02 -.135E+00 -.520E+01
   0.203E+01 0.258E+01 -.475E+03   -.199E+01 -.260E+01 0.474E+03   -.411E-01 0.214E-01 0.262E+00
   0.262E+01 -.810E+00 -.472E+03   -.263E+01 0.822E+00 0.472E+03   0.138E-01 -.127E-01 0.231E+00
   0.483E+00 0.159E+00 0.547E+03   -.495E+00 -.163E+00 -.547E+03   0.129E-01 0.682E-02 -.885E-01
   0.754E+00 -.601E+00 0.548E+03   -.772E+00 0.628E+00 -.547E+03   0.249E-01 -.374E-01 -.135E+00
   0.779E-01 -.110E+00 0.158E+04   -.747E-01 0.112E+00 -.159E+04   -.431E-02 -.346E-02 0.347E+01
   0.196E+00 0.485E-01 0.158E+04   -.199E+00 -.489E-01 -.159E+04   0.530E-02 0.480E-03 0.348E+01
   0.137E+02 0.224E+01 -.152E+04   -.136E+02 -.225E+01 0.153E+04   -.142E+00 0.121E-01 -.506E+01
   0.204E+02 -.251E+02 -.150E+04   -.204E+02 0.249E+02 0.151E+04   0.415E-01 0.151E+00 -.516E+01
   0.201E+01 -.260E+01 -.474E+03   -.198E+01 0.262E+01 0.474E+03   -.351E-01 -.201E-01 0.264E+00
   0.415E+01 0.891E+00 -.470E+03   -.422E+01 -.907E+00 0.470E+03   0.820E-01 0.162E-01 -.637E-01
   -.347E+00 -.176E+00 0.548E+03   0.330E+00 0.168E+00 -.547E+03   0.229E-01 0.954E-02 -.517E-01
   -.678E+00 0.503E+00 0.547E+03   0.689E+00 -.519E+00 -.547E+03   -.157E-01 0.226E-01 -.103E+00
   -.773E-01 0.148E+00 0.158E+04   0.747E-01 -.150E+00 -.159E+04   0.362E-02 0.283E-02 0.348E+01
   -.156E+00 -.470E-01 0.158E+04   0.160E+00 0.481E-01 -.159E+04   -.583E-02 -.163E-02 0.348E+01
   -.554E+01 -.580E+01 -.153E+04   0.549E+01 0.588E+01 0.153E+04   0.542E-01 -.786E-01 -.508E+01
   -.124E+02 0.119E+02 -.153E+04   0.124E+02 -.119E+02 0.154E+04   -.325E-01 0.294E-01 -.507E+01
   -.218E+01 0.393E+01 -.470E+03   0.214E+01 -.399E+01 0.470E+03   0.441E-01 0.869E-01 0.275E+00
   -.259E+01 -.812E+00 -.476E+03   0.260E+01 0.814E+00 0.476E+03   -.165E-01 -.322E-02 0.248E+00
   -.470E+00 0.204E+00 0.549E+03   0.469E+00 -.206E+00 -.549E+03   0.333E-02 0.418E-02 -.288E-01
   -.718E+00 -.497E+00 0.547E+03   0.721E+00 0.509E+00 -.547E+03   -.564E-02 -.166E-01 -.830E-01
   -.789E-01 -.149E+00 0.158E+04   0.753E-01 0.151E+00 -.159E+04   0.496E-02 -.234E-02 0.348E+01
   -.196E+00 0.470E-01 0.158E+04   0.199E+00 -.483E-01 -.159E+04   -.492E-02 0.180E-02 0.349E+01
   -.257E+02 0.782E+01 -.146E+04   0.256E+02 -.779E+01 0.146E+04   0.698E-01 -.336E-01 -.451E+01
   -.167E+02 -.125E+02 -.152E+04   0.167E+02 0.125E+02 0.153E+04   -.772E-01 -.180E-01 -.507E+01
   -.219E+01 -.394E+01 -.466E+03   0.216E+01 0.401E+01 0.466E+03   0.341E-01 -.941E-01 0.440E+00
   -.384E+01 0.848E+00 -.471E+03   0.391E+01 -.850E+00 0.471E+03   -.105E+00 0.369E-02 0.396E+00
 -----------------------------------------------------------------------------------------------
   0.697E+01 0.110E+02 0.291E+02   0.124E-12 -.363E-12 -.585E-11   -.697E+01 -.110E+02 -.291E+02


 POSITION                                       TOTAL-FORCE (eV/Angst)
 -----------------------------------------------------------------------------------
      5.33869      4.13699     16.26195        -0.630354     -1.046166     -0.996973
      5.85049      4.95012     16.91457         0.628516      1.028417      0.852300
      2.10122      0.00000      7.50000         0.000614      0.000182      0.290269
      4.20243      2.10122      7.50000        -0.000977     -0.000464      0.289920
      2.10122      2.10122      9.60122         0.004075     -0.001759      0.038140
      4.20243      0.00000      9.60122        -0.004747     -0.000059      0.041165
      2.10291      0.00043     11.71337         0.001289      0.000894      0.018507
      4.20305      2.10346     11.71786        -0.008180     -0.007012      0.016684
      2.10442      2.09927     13.80085         0.010511      0.005845      0.090454
      4.20266      0.00149     13.79988        -0.000167      0.003594      0.088101
      2.10122      4.20243      7.50000         0.000833     -0.000181      0.287420
      4.20243      6.30365      7.50000        -0.001026      0.000404      0.289869
      2.10122      6.30365      9.60122         0.006860      0.002455      0.035208
      4.20243      4.20243      9.60122        -0.004001     -0.000061      0.039968
      2.10589      4.20252     11.71599         0.005768     -0.000706      0.022424
      4.20267      6.30172     11.71726        -0.008554      0.007187      0.015422
      2.10425      6.30655     13.80171         0.011739     -0.006011      0.089582
      4.19540      4.20168     13.83174        -0.019534      0.000752      0.182447
      6.30365      0.00000      7.50000        -0.000673      0.000264      0.286154
      0.00000      2.10122      7.50000         0.000940     -0.000677      0.288246
      6.30365      2.10122      9.60122        -0.002025     -0.000193      0.026839
      0.00000      0.00000      9.60122         0.007623      0.002561      0.032465
      6.30399      0.00224     11.71214        -0.001788      0.000780      0.019979
      0.00107      2.10173     11.71505         0.007777     -0.011435      0.013828
      6.30397      2.09400     13.80429        -0.017712     -0.032815      0.124468
      0.00364      0.00140     13.80170        -0.000897      0.003464      0.083476
      6.30365      4.20243      7.50000        -0.000871     -0.000229      0.284515
      0.00000      6.30365      7.50000         0.001050      0.000645      0.286996
      6.30365      6.30365      9.60122        -0.003180      0.003063      0.024510
      0.00000      4.20243      9.60122         0.006874     -0.001500      0.027590
      6.30136      4.20190     11.71143        -0.013426     -0.002457     -0.046684
      0.00221      6.30398     11.71408         0.008028      0.011785      0.011435
      6.30642      6.31800     13.79310        -0.019094      0.040141      0.102226
      0.01264      4.20287     13.79932         0.056792     -0.004943      0.100260
      2.10122      0.00000      9.60122        -0.002796     -0.001053      0.050044
      4.20243      2.10122      9.60122         0.007789      0.010358      0.062839
      2.10122      2.10122      7.50000        -0.000978      0.000974     -0.576895
      4.20243      0.00000      7.50000         0.001730     -0.000174     -0.577070
      2.10192      0.00013     13.84374        -0.006199     -0.001780      0.110725
      4.20390      2.09792     13.83550         0.009431     -0.001000      0.088326
      2.10075      2.10196     11.70773        -0.004385      0.003760     -0.022088
      4.20358      8.40444     11.70601         0.004930     -0.001219     -0.022316
      2.10122      4.20243      9.60122         0.001351      0.001996      0.069129
      4.20243      6.30365      9.60122         0.007207     -0.010282      0.060759
      2.10122      6.30365      7.50000        -0.001266     -0.000989     -0.576431
      4.20243      4.20243      7.50000         0.001420      0.000108     -0.575606
      2.10155      4.20325     13.84619        -0.019576      0.001573      0.095298
      4.20643      6.30726     13.84088         0.012219      0.005701      0.091553
      2.10147      6.30343     11.70836        -0.004541     -0.003533     -0.020104
      4.20530      4.20318     11.71389         0.018720      0.000915     -0.004159
      6.30365      0.00000      9.60122         0.006475      0.001588      0.060043
      0.00000      2.10122      9.60122        -0.005032      0.006634      0.058533
      6.30365      2.10122      7.50000         0.000949      0.000773     -0.574432
      0.00000      0.00000      7.50000        -0.001707     -0.000480     -0.575497
      6.30654      0.00144     13.84110         0.006748     -0.002661      0.106143
      0.00134      2.10219     13.84551        -0.013847      0.015847      0.105177
      6.30570      2.10370     11.70960         0.004578      0.021437     -0.006300
      0.00075      0.00027     11.70776        -0.004353     -0.001117     -0.017339
      6.30365      4.20243      9.60122         0.002177      0.001576      0.061860
      0.00000      6.30365      9.60122        -0.002570     -0.005183      0.059519
      6.30365      6.30365      7.50000         0.001335     -0.000684     -0.573798
      0.00000      4.20243      7.50000        -0.001465      0.000482     -0.573682
      6.31453      4.20547     13.85385         0.003790      0.001384      0.150444
      0.00085      6.30441     13.84491        -0.017869     -0.017801      0.112014
      6.30567      6.30257     11.70843         0.004888     -0.024374     -0.006836
      8.40443      4.20300     11.70977        -0.031239      0.001460      0.002934
 -----------------------------------------------------------------------------------
    total drift:                                0.004832      0.001834      0.009640


--------------------------------------------------------------------------------------------------------



  FREE ENERGIE OF THE ION-ELECTRON SYSTEM (eV)
  ---------------------------------------------------
  free  energy   TOTEN  =      -388.45359523 eV

  energy  without entropy=     -388.45359523  energy(sigma->0) =     -388.45359523



--------------------------------------------------------------------------------------------------------


    POTLOK:  cpu time      0.5237: real time      0.5239


--------------------------------------------------------------------------------------------------------


     LOOP+:  cpu time    130.6740: real time    130.8555
    4ORBIT:  cpu time      0.0000: real time      0.0000

 total amount of memory used by VASP MPI-rank0    78662. kBytes
=======================================================================

   base      :      30000. kBytes
   nonl-proj :      17233. kBytes
   fftplans  :       4923. kBytes
   grid      :      13952. kBytes
   one-center:        146. kBytes
   wavefun   :      12408. kBytes

  
  
 General timing and accounting informations for this job:
 ========================================================
  
                  Total CPU time used (sec):      166.312
                            User time (sec):      164.876
                          System time (sec):        1.436
                         Elapsed time (sec):      176.478
  
                   Maximum memory used (kb):      186936.
                   Average memory used (kb):          N/A
  
                          Minor page faults:        40287
                          Major page faults:            0
                 Voluntary context switches:        12374
