 vasp.6.3.0 20Jan22 (build Mar 11 2022 13:48:16) complex                        
  
 executed on             LinuxIFC date 2024.01.23  00:36:20
 running on  304 total cores
 distrk:  each k-point on  304 cores,    1 groups
 distr:  one band on NCORE=   2 cores,  152 groups


--------------------------------------------------------------------------------------------------------


 INCAR:
   SYSTEM = TiO2
   ISMEAR = 0
   SIGMA = 0.05
   EDIFF = 1E-5
   ALGO = ALL
   ISTART = 0
   IBRION = -1
   NSW = 0
   ISYM = 0
   ISIF = 2
   EDIFFG = -0.01
   DIPOL = 0.5 0.5 0.5
   IDIPOL = 3
   LDIPOL = .TRUE.
   METAGGA = R2SCAN
   LUSE_VDW = .TRUE.
   BPARAM = 11.95
   CPARAM = 0.0093
   LASPH = .TRUE.
   ENCUT = 600
   PREC = Accurate
   LASPH = .TRUE.
   LREAL = .FALSE.
   ISPIN = 1
   NELM = 200
   NELMIN = 8
   NCORE = 2
   KPAR = 1
   LWAVE = .FALSE.
   LCHARG = .FALSE.

 POTCAR:    PAW_PBE Ti_pv 07Sep2000               
 POTCAR:    PAW_PBE O 08Apr2002                   
 -----------------------------------------------------------------------------
|                                                                             |
|           W    W    AA    RRRRR   N    N  II  N    N   GGGG   !!!           |
|           W    W   A  A   R    R  NN   N  II  NN   N  G    G  !!!           |
|           W    W  A    A  R    R  N N  N  II  N N  N  G       !!!           |
|           W WW W  AAAAAA  RRRRR   N  N N  II  N  N N  G  GGG   !            |
|           WW  WW  A    A  R   R   N   NN  II  N   NN  G    G                |
|           W    W  A    A  R    R  N    N  II  N    N   GGGG   !!!           |
|                                                                             |
|     For optimal performance we recommend to set                             |
|       NCORE = 2 up to number-of-cores-per-socket                            |
|     NCORE specifies how many cores store one orbital (NPAR=cpu/NCORE).      |
|     This setting can greatly improve the performance of VASP for DFT.       |
|     The default, NCORE=1 might be grossly inefficient on modern             |
|     multi-core architectures or massively parallel machines. Do your        |
|     own testing! More info at https://www.vasp.at/wiki/index.php/NCORE      |
|     Unfortunately you need to use the default for GW and RPA                |
|     calculations (for HF NCORE is supported but not extensively tested      |
|     yet).                                                                   |
|                                                                             |
 -----------------------------------------------------------------------------

 -----------------------------------------------------------------------------
|                                                                             |
|               ----> ADVICE to this user running VASP <----                  |
|                                                                             |
|     You have switched on vdW-DFT.                                           |
|     This routine was written and supplied by Jiri Klimes. We recommend      |
|     that you carefully read and cite the following publications:            |
|       J. Klimes, D.R. Bowler, A. Michelides                                 |
|          J. Phys.: Cond Matt. 22 022201 (2010)                              |
|       J. Klimes, D.R. Bowler, A. Michelides                                 |
|          Phys. Rev. B. 83, 195131 (2011)                                    |
|     and references therein.                                                 |
|                                                                             |
 -----------------------------------------------------------------------------

 POTCAR:    PAW_PBE Ti_pv 07Sep2000               
   SHA256 =  f757a1b2c6d082f4c628fa3d987464a8763bf92e53844ac0500b0e2ddc9ce5c0 Ti_pv/POTCAR          
   COPYR  = (c) Copyright 07Sep2000 Georg Kresse                                                    
   COPYR  = This file is part of the software VASP. Any use, copying, and all other rights are regul
   COPYR  = If you do not have a valid VASP license, you may not use, copy or distribute this file. 
   VRHFIN =Ti: d3 s1                                                                                
   LEXCH  = PE                                                                                      
   EATOM  =  1042.5995 eV,   76.6289 Ry                                                             
                                                                                                    
   TITEL  = PAW_PBE Ti_pv 07Sep2000                                                                 
   LULTRA =        F    use ultrasoft PP ?                                                          
   IUNSCR =        1    unscreen: 0-lin 1-nonlin 2-no                                               
   RPACOR =    2.200    partial core radius                                                         
   POMASS =   47.880; ZVAL   =   10.000    mass and valenz                                          
   RCORE  =    2.500    outmost cutoff radius                                                       
   RWIGS  =    2.500; RWIGS  =    1.323    wigner-seitz radius (au A)                               
   ENMAX  =  222.335; ENMIN  =  166.751 eV                                                          
   RCLOC  =    1.701    cutoff for local pot                                                        
   LCOR   =        T    correct aug charges                                                         
   LPAW   =        T    paw PP                                                                      
   EAUG   =  482.848                                                                                
   DEXC   =    0.000                                                                                
   RMAX   =    2.564    core radius for proj-oper                                                   
   RAUG   =    1.300    factor for augmentation sphere                                              
   RDEP   =    2.538    radius for radial grids                                                     
   RDEPT  =    1.952    core radius for aug-charge                                                  
                                                                                                    
   Atomic configuration                                                                             
    8 entries                                                                                       
     n  l   j            E        occ.                                                              
     1  0  0.50     -4865.3608   2.0000                                                             
     2  0  0.50      -533.1368   2.0000                                                             
     2  1  1.50      -440.5031   6.0000                                                             
     3  0  0.50       -59.3186   2.0000                                                             
     3  1  1.50       -35.7012   6.0000                                                             
     3  2  2.50        -1.9157   3.0000                                                             
     4  0  0.50        -3.7291   1.0000                                                             
     4  3  2.50        -1.3606   0.0000                                                             
   Description                                                                                      
     l       E           TYP  RCUT    TYP  RCUT                                                     
     1    -35.7012140     23  2.300                                                                 
     1     -1.3605826     23  2.300                                                                 
     2     -1.9156996     23  2.500                                                                 
     2     -0.4063033     23  2.500                                                                 
     0     -3.7290856     23  2.500                                                                 
     0     20.4087390     23  2.500                                                                 
  local pseudopotential read in
  partial core-charges read in
  partial kinetic energy density read in
  atomic valenz-charges read in
  non local Contribution for L=           1  read in
    real space projection operators read in
  non local Contribution for L=           1  read in
    real space projection operators read in
  non local Contribution for L=           2  read in
    real space projection operators read in
  non local Contribution for L=           2  read in
    real space projection operators read in
  non local Contribution for L=           0  read in
    real space projection operators read in
  non local Contribution for L=           0  read in
    real space projection operators read in
    PAW grid and wavefunctions read in
 
   number of l-projection  operators is LMAX  =           6
   number of lm-projection operators is LMMAX =          18
 
 POTCAR:    PAW_PBE O 08Apr2002                   
   SHA256 =  818f92134a0a090dccd8ba1447fa70422a3b330e708bb4f08108d8ae51209ddf O/POTCAR              
   COPYR  = (c) Copyright 08Apr2002 Georg Kresse                                                    
   COPYR  = This file is part of the software VASP. Any use, copying, and all other rights are regul
   COPYR  = If you do not have a valid VASP license, you may not use, copy or distribute this file. 
   VRHFIN =O: s2p4                                                                                  
   LEXCH  = PE                                                                                      
   EATOM  =   432.3788 eV,   31.7789 Ry                                                             
                                                                                                    
   TITEL  = PAW_PBE O 08Apr2002                                                                     
   LULTRA =        F    use ultrasoft PP ?                                                          
   IUNSCR =        1    unscreen: 0-lin 1-nonlin 2-no                                               
   RPACOR =    1.200    partial core radius                                                         
   POMASS =   16.000; ZVAL   =    6.000    mass and valenz                                          
   RCORE  =    1.520    outmost cutoff radius                                                       
   RWIGS  =    1.550; RWIGS  =    0.820    wigner-seitz radius (au A)                               
   ENMAX  =  400.000; ENMIN  =  300.000 eV                                                          
   ICORE  =        2    local potential                                                             
   LCOR   =        T    correct aug charges                                                         
   LPAW   =        T    paw PP                                                                      
   EAUG   =  605.392                                                                                
   DEXC   =    0.000                                                                                
   RMAX   =    1.553    core radius for proj-oper                                                   
   RAUG   =    1.300    factor for augmentation sphere                                              
   RDEP   =    1.550    radius for radial grids                                                     
   RDEPT  =    1.329    core radius for aug-charge                                                  
                                                                                                    
   Atomic configuration                                                                             
    4 entries                                                                                       
     n  l   j            E        occ.                                                              
     1  0  0.50      -514.6923   2.0000                                                             
     2  0  0.50       -23.9615   2.0000                                                             
     2  1  0.50        -9.0305   4.0000                                                             
     3  2  1.50        -9.5241   0.0000                                                             
   Description                                                                                      
     l       E           TYP  RCUT    TYP  RCUT                                                     
     0    -23.9615318     23  1.200                                                                 
     0     -9.5240782     23  1.200                                                                 
     1     -9.0304911     23  1.520                                                                 
     1      8.1634956     23  1.520                                                                 
     2     -9.5240782      7  1.500                                                                 
  local pseudopotential read in
  partial core-charges read in
  partial kinetic energy density read in
  kinetic energy density of atom read in
  atomic valenz-charges read in
  non local Contribution for L=           0  read in
    real space projection operators read in
  non local Contribution for L=           0  read in
    real space projection operators read in
  non local Contribution for L=           1  read in
    real space projection operators read in
  non local Contribution for L=           1  read in
    real space projection operators read in
    PAW grid and wavefunctions read in
 
   number of l-projection  operators is LMAX  =           4
   number of lm-projection operators is LMMAX =           8
 
 -----------------------------------------------------------------------------
|                                                                             |
|               ----> ADVICE to this user running VASP <----                  |
|                                                                             |
|     You have a (more or less) 'large supercell' and for larger cells it     |
|     might be more efficient to use real-space projection operators.         |
|     Therefore, try LREAL= Auto in the INCAR file.                           |
|     Mind: For very accurate calculation, you might also keep the            |
|     reciprocal projection scheme (i.e. LREAL=.FALSE.).                      |
|                                                                             |
 -----------------------------------------------------------------------------

  PAW_PBE Ti_pv 07Sep2000               :
 energy of atom  1       EATOM=-1042.5995
 kinetic energy error for atom=    0.0007 (will be added to EATOM!!)
  PAW_PBE O 08Apr2002                   :
 energy of atom  2       EATOM= -432.3788
 kinetic energy error for atom=    0.0168 (will be added to EATOM!!)
 
 
 POSCAR: Ti  O
  positions in direct lattice
  No initial velocities read in

 METAGGA = R2SCA    LMAXTAU =  6    LMIXTAU =  F

 exchange correlation table for  LEXCH =        8
   RHO(1)=    0.500       N(1)  =     2000
   RHO(2)=  100.500       N(2)  =     4000
 


--------------------------------------------------------------------------------------------------------


 ion  position               nearest neighbor table
   1  0.750  0.625  0.287-  81 1.96  82 1.96 141 1.96 142 1.96 163 1.99  84 1.99  11 2.96  31 2.96

   2  0.000  0.750  0.287-  84 1.96 104 1.96 103 1.96  83 1.96  85 1.99  32 2.96  12 2.96
   3  0.000  0.625  0.393-  85 1.96  86 1.96 145 1.96 146 1.96  87 1.99  88 1.99  13 2.96  33 2.96

   4  0.750  0.750  0.393- 168 1.96 188 1.96  87 1.96 107 1.96  89 1.99  82 1.99  14 2.96  34 2.96

   5  0.750  0.625  0.500-  89 1.96  90 1.96 149 1.96 150 1.96 171 1.99  92 1.99  15 2.96  35 2.96

   6  0.000  0.750  0.500-  92 1.96 112 1.96 111 1.96  91 1.96  86 1.99  93 2.01  16 2.96  36 2.96

   7  0.000  0.625  0.604-  93 1.90 153 1.90  96 1.96  95 1.96  94 2.02 154 2.02  17 2.96  37 2.96

   8  0.750  0.750  0.611-  97 1.87 196 1.98 176 1.98 115 1.98  95 1.98  90 2.11  18 2.96  38 2.96

   9  0.750  0.625  0.720-  98 1.83 158 1.84 100 2.04 179 2.04  97 2.09 157 2.10  19 2.96  39 2.96

  10  1.000  0.750  0.709-  94 1.82 120 1.95 119 1.95 100 1.95  99 1.95  20 2.96  40 2.96
  11  0.750  0.875  0.287-  81 1.96  82 1.96 101 1.96 102 1.96 183 1.99 104 1.99   1 2.96  21 2.96

  12  0.000  0.000  0.287- 104 1.96 124 1.96 123 1.96 103 1.96 105 1.99  22 2.96   2 2.96
  13  0.000  0.875  0.393-  85 1.96  86 1.96 105 1.96 106 1.96 107 1.99 108 1.99   3 2.96  23 2.96

  14  0.750  0.000  0.393- 188 1.96 208 1.96 107 1.96 127 1.96 109 1.99 102 1.99   4 2.96  24 2.96

  15  0.750  0.875  0.500-  89 1.96  90 1.96 109 1.96 110 1.96 191 1.99 112 1.99   5 2.96  25 2.96

  16  0.000  0.000  0.500- 112 1.96 132 1.96 131 1.96 111 1.96 106 1.99 113 2.01   6 2.96  26 2.96

  17  0.000  0.875  0.604- 113 1.90  93 1.90 116 1.96 115 1.96 114 2.02  94 2.02  27 2.96   7 2.96

  18  0.750  0.000  0.611- 117 1.87 216 1.98 196 1.98 135 1.98 115 1.98 110 2.11  28 2.96   8 2.96

  19  0.750  0.875  0.720- 118 1.83  98 1.83 199 2.04 120 2.04 117 2.10  97 2.10   9 2.96  29 2.96

  20  1.000  0.000  0.709- 114 1.82 120 1.95 119 1.95 140 1.95 139 1.95  10 2.96  30 2.96
  21  0.750  0.125  0.287- 101 1.96 102 1.96 121 1.96 122 1.96 203 1.99 124 1.99  11 2.96  31 2.96

  22  0.000  0.250  0.287- 124 1.96 144 1.96 143 1.96 123 1.96 125 1.99  32 2.96  12 2.96
  23  0.000  0.125  0.393- 105 1.96 106 1.96 125 1.96 126 1.96 127 1.99 128 1.99  13 2.96  33 2.96

  24  0.750  0.250  0.393- 208 1.96 228 1.96 127 1.96 147 1.96 129 1.99 122 1.99  14 2.96  34 2.96

  25  0.750  0.125  0.500- 109 1.96 110 1.96 129 1.96 130 1.96 211 1.99 132 1.99  15 2.96  35 2.96

  26  0.000  0.250  0.500- 132 1.96 152 1.96 151 1.96 131 1.96 126 1.99 133 2.01  16 2.96  36 2.96

  27  0.000  0.125  0.604- 113 1.90 133 1.90 136 1.96 135 1.96 114 2.02 134 2.02  17 2.96  37 2.96

  28  0.750  0.250  0.611- 137 1.87 216 1.98 236 1.98 155 1.98 135 1.98 130 2.11  18 2.96  38 2.96

  29  0.750  0.125  0.720- 118 1.83 138 1.83 219 2.04 140 2.04 137 2.10 117 2.10  19 2.96  39 2.96

  30  1.000  0.250  0.709- 134 1.82 140 1.95 139 1.95 160 1.95 159 1.95  20 2.96  40 2.96
  31  0.750  0.375  0.287- 121 1.96 122 1.96 141 1.96 142 1.96 223 1.99 144 1.99   1 2.96  21 2.96

  32  0.000  0.500  0.287-  84 1.96 144 1.96 143 1.96  83 1.96 145 1.99  22 2.96   2 2.96
  33  0.000  0.375  0.393- 125 1.96 126 1.96 145 1.96 146 1.96 147 1.99 148 1.99   3 2.96  23 2.96

  34  0.750  0.500  0.393- 168 1.96 228 1.96  87 1.96 147 1.96 142 1.99 149 1.99   4 2.96  24 2.96

  35  0.750  0.375  0.500- 129 1.96 130 1.96 149 1.96 150 1.96 231 1.99 152 1.99   5 2.96  25 2.96

  36  0.000  0.500  0.500-  92 1.96 152 1.96 151 1.96  91 1.96 146 1.99 153 2.01   6 2.96  26 2.96

  37  0.000  0.375  0.604- 133 1.90 153 1.90 156 1.96 155 1.96 134 2.02 154 2.02  27 2.96   7 2.96

  38  0.750  0.500  0.611- 157 1.87 236 1.98 176 1.98 155 1.98  95 1.98 150 2.11  28 2.96   8 2.96

  39  0.750  0.375  0.720- 138 1.83 158 1.83 160 2.04 239 2.04 157 2.10 137 2.10  29 2.96   9 2.96

  40  1.000  0.500  0.709- 154 1.82 100 1.95  99 1.95 160 1.95 159 1.95  10 2.96  30 2.96
  41  0.250  0.625  0.287- 161 1.96 162 1.96 221 1.96 222 1.96  83 1.99 164 1.99  51 2.96  71 2.96

  42  0.500  0.750  0.287- 164 1.96 184 1.96 183 1.96 163 1.96 165 1.99  72 2.96  52 2.96
  43  0.500  0.625  0.393- 165 1.96 166 1.96 225 1.96 226 1.96 167 1.99 168 1.99  53 2.96  73 2.96

  44  0.250  0.750  0.393-  88 1.96 108 1.96 167 1.96 187 1.96 169 1.99 162 1.99  54 2.96  74 2.96

  45  0.250  0.625  0.500- 169 1.96 170 1.96 229 1.96 230 1.96  91 1.99 172 1.99  55 2.96  75 2.96

  46  0.500  0.750  0.500- 172 1.96 192 1.96 191 1.96 171 1.96 166 1.99 173 2.00  56 2.96  76 2.96

  47  0.500  0.624  0.605- 233 1.90 173 1.91 176 1.96 175 1.96 174 2.01 234 2.01  77 2.95  57 2.97

  48  0.250  0.750  0.611- 177 1.87 195 1.98 175 1.98 116 1.98  96 1.98 170 2.11  58 2.96  78 2.96

  49  0.250  0.625  0.720- 178 1.83 238 1.84  99 2.04 180 2.04 177 2.09 237 2.10  59 2.96  79 2.96

  50  0.500  0.751  0.708- 174 1.82 180 1.95 179 1.95 200 1.95 199 1.95  60 2.95  80 2.98
  51  0.250  0.875  0.287- 161 1.96 162 1.96 181 1.96 182 1.96 103 1.99 184 1.99  41 2.96  61 2.96

  52  0.500  0.000  0.287- 184 1.96 204 1.96 203 1.96 183 1.96 185 1.99  62 2.96  42 2.96
  53  0.500  0.875  0.393- 165 1.96 166 1.96 185 1.96 186 1.96 187 1.99 188 1.99  43 2.96  63 2.96

  54  0.250  0.000  0.393- 108 1.96 128 1.96 187 1.96 207 1.96 189 1.99 182 1.99  44 2.96  64 2.96

  55  0.250  0.875  0.500- 169 1.96 170 1.96 189 1.96 190 1.96 111 1.99 192 1.99  45 2.96  65 2.96

  56  0.500  0.000  0.500- 192 1.96 212 1.96 211 1.96 191 1.96 186 1.99 193 2.00  46 2.96  66 2.96

  57  0.500  0.875  0.604- 173 1.90 193 1.90 196 1.96 195 1.96 174 2.01 194 2.02  47 2.97  67 2.97

  58  0.250  0.000  0.611- 197 1.87 215 1.98 195 1.98 136 1.98 116 1.98 190 2.11  68 2.96  48 2.96

  59  0.250  0.875  0.720- 198 1.83 178 1.83 200 2.04 119 2.04 197 2.10 177 2.10  49 2.96  69 2.96

  60  0.500  0.000  0.708- 194 1.82 200 1.95 199 1.95 220 1.95 219 1.95  50 2.95  70 2.96
  61  0.250  0.125  0.287- 181 1.96 182 1.96 201 1.96 202 1.96 123 1.99 204 1.99  51 2.96  71 2.96

  62  0.500  0.250  0.287- 204 1.96 224 1.96 223 1.96 203 1.96 205 1.99  72 2.96  52 2.96
  63  0.500  0.125  0.393- 185 1.96 186 1.96 205 1.96 206 1.96 207 1.99 208 1.99  53 2.96  73 2.96

  64  0.250  0.250  0.393- 128 1.96 148 1.96 207 1.96 227 1.96 209 1.99 202 1.99  54 2.96  74 2.96

  65  0.250  0.125  0.500- 189 1.96 190 1.96 209 1.96 210 1.96 131 1.99 212 1.99  55 2.96  75 2.96

  66  0.500  0.250  0.500- 212 1.96 232 1.96 231 1.96 211 1.96 206 1.99 213 2.00  56 2.96  76 2.96

  67  0.500  0.125  0.604- 213 1.90 193 1.90 216 1.96 215 1.96 214 2.01 194 2.02  77 2.96  57 2.97

  68  0.250  0.250  0.611- 217 1.87 215 1.98 235 1.98 156 1.98 136 1.98 210 2.11  58 2.96  78 2.96

  69  0.250  0.125  0.720- 198 1.83 218 1.83 220 2.04 139 2.04 217 2.10 197 2.10  59 2.96  79 2.96

  70  0.500  0.250  0.708- 214 1.82 240 1.94 239 1.94 220 1.95 219 1.95  80 2.95  60 2.96
  71  0.250  0.375  0.287- 201 1.96 202 1.96 221 1.96 222 1.96 143 1.99 224 1.99  41 2.96  61 2.96

  72  0.500  0.500  0.287- 164 1.96 224 1.96 223 1.96 163 1.96 225 1.99  62 2.96  42 2.96
  73  0.500  0.375  0.393- 205 1.96 206 1.96 225 1.96 226 1.96 227 1.99 228 1.99  43 2.96  63 2.96

  74  0.250  0.500  0.393-  88 1.96 148 1.96 167 1.96 227 1.96 222 1.99 229 1.99  44 2.96  64 2.96

  75  0.250  0.375  0.500- 209 1.96 210 1.96 229 1.96 230 1.96 151 1.99 232 1.99  45 2.96  65 2.96

  76  0.500  0.500  0.500- 172 1.96 232 1.96 231 1.96 171 1.96 226 1.99 233 2.01  46 2.96  66 2.96

  77  0.500  0.376  0.605- 233 1.90 213 1.91 236 1.96 235 1.96 214 2.01 234 2.01  47 2.95  67 2.96

  78  0.250  0.500  0.611- 237 1.87 235 1.98 175 1.98 156 1.98  96 1.98 230 2.11  68 2.96  48 2.96

  79  0.250  0.375  0.720- 218 1.83 238 1.83 159 2.04 240 2.04 237 2.10 217 2.10  69 2.96  49 2.96

  80  0.500  0.499  0.710- 234 1.84 240 1.94 239 1.94 180 1.96 179 1.96  70 2.95  50 2.98
  81  0.750  0.750  0.245-   1 1.96  11 1.96
  82  0.750  0.750  0.328-   1 1.96  11 1.96   4 1.99
  83  0.098  0.625  0.287-   2 1.96  32 1.96  41 1.99
  84  0.902  0.625  0.287-   2 1.96  32 1.96   1 1.99
  85  0.000  0.750  0.352-   3 1.96  13 1.96   2 1.99
  86  0.000  0.750  0.435-   3 1.96  13 1.96   6 1.99
  87  0.848  0.625  0.393-   4 1.96  34 1.96   3 1.99
  88  0.152  0.625  0.393-  44 1.96  74 1.96   3 1.99
  89  0.750  0.750  0.458-   5 1.96  15 1.96   4 1.99
  90  0.750  0.750  0.542-   5 1.96  15 1.96   8 2.11
  91  0.098  0.625  0.500-   6 1.96  36 1.96  45 1.99
  92  0.902  0.625  0.500-   6 1.96  36 1.96   5 1.99
  93  1.000  0.750  0.565-   7 1.90  17 1.90   6 2.01
  94  1.000  0.750  0.649-  10 1.82   7 2.02  17 2.02
  95  0.850  0.625  0.607-   7 1.96   8 1.98  38 1.98
  96  0.150  0.625  0.607-   7 1.96  48 1.98  78 1.98
  97  0.750  0.750  0.672-   8 1.87   9 2.09  19 2.10
  98  0.750  0.750  0.756-   9 1.83  19 1.83
  99  0.094  0.625  0.719-  40 1.95  10 1.95  49 2.04
 100  0.906  0.625  0.719-  40 1.95  10 1.95   9 2.04
 101  0.750  0.000  0.245-  11 1.96  21 1.96
 102  0.750  0.000  0.328-  11 1.96  21 1.96  14 1.99
 103  0.098  0.875  0.287-   2 1.96  12 1.96  51 1.99
 104  0.902  0.875  0.287-   2 1.96  12 1.96  11 1.99
 105  0.000  0.000  0.352-  13 1.96  23 1.96  12 1.99
 106  0.000  0.000  0.435-  13 1.96  23 1.96  16 1.99
 107  0.848  0.875  0.393-   4 1.96  14 1.96  13 1.99
 108  0.152  0.875  0.393-  44 1.96  54 1.96  13 1.99
 109  0.750  0.000  0.458-  15 1.96  25 1.96  14 1.99
 110  0.750  0.000  0.542-  15 1.96  25 1.96  18 2.11
 111  0.098  0.875  0.500-   6 1.96  16 1.96  55 1.99
 112  0.902  0.875  0.500-   6 1.96  16 1.96  15 1.99
 113  1.000  0.000  0.565-  27 1.90  17 1.90  16 2.01
 114  1.000  0.000  0.649-  20 1.82  27 2.02  17 2.02
 115  0.850  0.875  0.607-  17 1.96   8 1.98  18 1.98
 116  0.150  0.875  0.607-  17 1.96  48 1.98  58 1.98
 117  0.750  0.000  0.672-  18 1.87  19 2.10  29 2.10
 118  0.750  0.000  0.756-  19 1.83  29 1.83
 119  0.094  0.875  0.719-  10 1.95  20 1.95  59 2.04
 120  0.906  0.875  0.719-  10 1.95  20 1.95  19 2.04
 121  0.750  0.250  0.245-  21 1.96  31 1.96
 122  0.750  0.250  0.328-  21 1.96  31 1.96  24 1.99
 123  0.098  0.125  0.287-  12 1.96  22 1.96  61 1.99
 124  0.902  0.125  0.287-  12 1.96  22 1.96  21 1.99
 125  0.000  0.250  0.352-  23 1.96  33 1.96  22 1.99
 126  0.000  0.250  0.435-  23 1.96  33 1.96  26 1.99
 127  0.848  0.125  0.393-  14 1.96  24 1.96  23 1.99
 128  0.152  0.125  0.393-  54 1.96  64 1.96  23 1.99
 129  0.750  0.250  0.458-  25 1.96  35 1.96  24 1.99
 130  0.750  0.250  0.542-  25 1.96  35 1.96  28 2.11
 131  0.098  0.125  0.500-  16 1.96  26 1.96  65 1.99
 132  0.902  0.125  0.500-  16 1.96  26 1.96  25 1.99
 133  1.000  0.250  0.565-  37 1.90  27 1.90  26 2.01
 134  1.000  0.250  0.649-  30 1.82  37 2.02  27 2.02
 135  0.850  0.125  0.607-  27 1.96  18 1.98  28 1.98
 136  0.150  0.125  0.607-  27 1.96  58 1.98  68 1.98
 137  0.751  0.250  0.672-  28 1.87  29 2.10  39 2.10
 138  0.750  0.250  0.756-  39 1.83  29 1.83
 139  0.094  0.125  0.719-  30 1.95  20 1.95  69 2.04
 140  0.906  0.125  0.719-  30 1.95  20 1.95  29 2.04
 141  0.750  0.500  0.245-   1 1.96  31 1.96
 142  0.750  0.500  0.328-   1 1.96  31 1.96  34 1.99
 143  0.098  0.375  0.287-  22 1.96  32 1.96  71 1.99
 144  0.902  0.375  0.287-  22 1.96  32 1.96  31 1.99
 145  0.000  0.500  0.352-   3 1.96  33 1.96  32 1.99
 146  0.000  0.500  0.435-   3 1.96  33 1.96  36 1.99
 147  0.848  0.375  0.393-  24 1.96  34 1.96  33 1.99
 148  0.152  0.375  0.393-  64 1.96  74 1.96  33 1.99
 149  0.750  0.500  0.458-   5 1.96  35 1.96  34 1.99
 150  0.750  0.500  0.542-   5 1.96  35 1.96  38 2.11
 151  0.098  0.375  0.500-  26 1.96  36 1.96  75 1.99
 152  0.902  0.375  0.500-  26 1.96  36 1.96  35 1.99
 153  1.000  0.500  0.565-  37 1.90   7 1.90  36 2.01
 154  1.000  0.500  0.649-  40 1.82   7 2.02  37 2.02
 155  0.850  0.375  0.607-  37 1.96  38 1.98  28 1.98
 156  0.150  0.375  0.607-  37 1.96  78 1.98  68 1.98
 157  0.751  0.500  0.672-  38 1.87   9 2.10  39 2.10
 158  0.749  0.500  0.756-  39 1.83   9 1.84
 159  0.094  0.375  0.719-  40 1.95  30 1.95  79 2.04
 160  0.906  0.375  0.719-  40 1.95  30 1.95  39 2.04
 161  0.250  0.750  0.245-  41 1.96  51 1.96
 162  0.250  0.750  0.328-  41 1.96  51 1.96  44 1.99
 163  0.598  0.625  0.287-  42 1.96  72 1.96   1 1.99
 164  0.402  0.625  0.287-  42 1.96  72 1.96  41 1.99
 165  0.500  0.750  0.352-  43 1.96  53 1.96  42 1.99
 166  0.500  0.750  0.435-  43 1.96  53 1.96  46 1.99
 167  0.348  0.625  0.393-  44 1.96  74 1.96  43 1.99
 168  0.652  0.625  0.393-   4 1.96  34 1.96  43 1.99
 169  0.250  0.750  0.458-  45 1.96  55 1.96  44 1.99
 170  0.250  0.750  0.542-  45 1.96  55 1.96  48 2.11
 171  0.598  0.625  0.500-  46 1.96  76 1.96   5 1.99
 172  0.402  0.625  0.500-  46 1.96  76 1.96  45 1.99
 173  0.500  0.750  0.565-  57 1.90  47 1.91  46 2.00
 174  0.500  0.750  0.649-  50 1.82  57 2.01  47 2.01
 175  0.350  0.625  0.607-  47 1.96  78 1.98  48 1.98
 176  0.650  0.625  0.607-  47 1.96  38 1.98   8 1.98
 177  0.250  0.750  0.672-  48 1.87  49 2.09  59 2.10
 178  0.250  0.750  0.756-  49 1.83  59 1.83
 179  0.594  0.626  0.719-  50 1.95  80 1.96   9 2.04
 180  0.406  0.626  0.719-  50 1.95  80 1.96  49 2.04
 181  0.250  0.000  0.245-  51 1.96  61 1.96
 182  0.250  0.000  0.328-  51 1.96  61 1.96  54 1.99
 183  0.598  0.875  0.287-  42 1.96  52 1.96  11 1.99
 184  0.402  0.875  0.287-  42 1.96  52 1.96  51 1.99
 185  0.500  0.000  0.352-  53 1.96  63 1.96  52 1.99
 186  0.500  0.000  0.435-  53 1.96  63 1.96  56 1.99
 187  0.348  0.875  0.393-  44 1.96  54 1.96  53 1.99
 188  0.652  0.875  0.393-   4 1.96  14 1.96  53 1.99
 189  0.250  0.000  0.458-  55 1.96  65 1.96  54 1.99
 190  0.250  0.000  0.542-  55 1.96  65 1.96  58 2.11
 191  0.598  0.875  0.500-  46 1.96  56 1.96  15 1.99
 192  0.402  0.875  0.500-  46 1.96  56 1.96  55 1.99
 193  0.500  0.000  0.565-  57 1.90  67 1.90  56 2.00
 194  0.500  0.000  0.649-  60 1.82  67 2.02  57 2.02
 195  0.350  0.875  0.607-  57 1.96  48 1.98  58 1.98
 196  0.650  0.875  0.607-  57 1.96   8 1.98  18 1.98
 197  0.250  0.000  0.672-  58 1.87  59 2.10  69 2.10
 198  0.250  0.000  0.756-  59 1.83  69 1.83
 199  0.594  0.876  0.719-  60 1.95  50 1.95  19 2.04
 200  0.406  0.876  0.719-  60 1.95  50 1.95  59 2.04
 201  0.250  0.250  0.245-  61 1.96  71 1.96
 202  0.250  0.250  0.328-  61 1.96  71 1.96  64 1.99
 203  0.598  0.125  0.287-  52 1.96  62 1.96  21 1.99
 204  0.402  0.125  0.287-  52 1.96  62 1.96  61 1.99
 205  0.500  0.250  0.352-  63 1.96  73 1.96  62 1.99
 206  0.500  0.250  0.435-  63 1.96  73 1.96  66 1.99
 207  0.348  0.125  0.393-  54 1.96  64 1.96  63 1.99
 208  0.652  0.125  0.393-  14 1.96  24 1.96  63 1.99
 209  0.250  0.250  0.458-  65 1.96  75 1.96  64 1.99
 210  0.250  0.250  0.542-  65 1.96  75 1.96  68 2.11
 211  0.598  0.125  0.500-  56 1.96  66 1.96  25 1.99
 212  0.402  0.125  0.500-  56 1.96  66 1.96  65 1.99
 213  0.500  0.251  0.565-  67 1.90  77 1.91  66 2.00
 214  0.500  0.249  0.649-  70 1.82  67 2.01  77 2.01
 215  0.350  0.125  0.607-  67 1.96  58 1.98  68 1.98
 216  0.650  0.125  0.607-  67 1.96  18 1.98  28 1.98
 217  0.249  0.250  0.672-  68 1.87  69 2.10  79 2.10
 218  0.250  0.250  0.756-  79 1.83  69 1.83
 219  0.594  0.125  0.719-  70 1.95  60 1.95  29 2.04
 220  0.406  0.125  0.719-  70 1.95  60 1.95  69 2.04
 221  0.250  0.500  0.245-  41 1.96  71 1.96
 222  0.250  0.500  0.328-  41 1.96  71 1.96  74 1.99
 223  0.598  0.375  0.287-  62 1.96  72 1.96  31 1.99
 224  0.402  0.375  0.287-  62 1.96  72 1.96  71 1.99
 225  0.500  0.500  0.352-  43 1.96  73 1.96  72 1.99
 226  0.500  0.500  0.435-  43 1.96  73 1.96  76 1.99
 227  0.348  0.375  0.393-  64 1.96  74 1.96  73 1.99
 228  0.652  0.375  0.393-  24 1.96  34 1.96  73 1.99
 229  0.250  0.500  0.458-  45 1.96  75 1.96  74 1.99
 230  0.250  0.500  0.542-  45 1.96  75 1.96  78 2.11
 231  0.598  0.375  0.500-  66 1.96  76 1.96  35 1.99
 232  0.402  0.375  0.500-  66 1.96  76 1.96  75 1.99
 233  0.500  0.500  0.566-  77 1.90  47 1.90  76 2.01
 234  0.500  0.500  0.650-  80 1.84  47 2.01  77 2.01
 235  0.350  0.375  0.607-  77 1.96  78 1.98  68 1.98
 236  0.650  0.375  0.607-  77 1.96  38 1.98  28 1.98
 237  0.249  0.500  0.672-  78 1.87  49 2.10  79 2.10
 238  0.251  0.500  0.756-  79 1.83  49 1.84
 239  0.594  0.374  0.718-  80 1.94  70 1.94  39 2.04
 240  0.406  0.374  0.718-  80 1.94  70 1.94  79 2.04
 

IMPORTANT INFORMATION: All symmetrisations will be switched off!
NOSYMM: (Re-)initialisation of all symmetry stuff for point group C_1.


----------------------------------------------------------------------------------------

                                     Primitive cell                                     

  volume of cell :    4737.1524

  direct lattice vectors                    reciprocal lattice vectors
    13.061127704  0.000000000  0.000000000     0.076563067  0.000000000  0.000000000
     0.000000000 11.845298948  0.000000000     0.000000000  0.084421677  0.000000000
     0.000000000  0.000000000 30.618975621     0.000000000  0.000000000  0.032659486

  length of vectors
    13.061127704 11.845298948 30.618975621     0.076563067  0.084421677  0.032659486

  position of ions in fractional coordinates (direct lattice)
     0.750000000  0.625000000  0.286715143
     0.000000000  0.750000000  0.286715143
     0.000000000  0.625000000  0.393357571
     0.750000000  0.750000000  0.393357571
     0.750000000  0.625000000  0.500000000
     0.000000000  0.750000000  0.500000000
     0.000018273  0.625054340  0.604454167
     0.750043058  0.750080722  0.610637700
     0.750153036  0.625326746  0.720096565
     0.999998416  0.750201101  0.708612907
     0.750000000  0.875000000  0.286715143
     0.000000000  0.000000000  0.286715143
     0.000000000  0.875000000  0.393357571
     0.750000000  0.000000000  0.393357571
     0.750000000  0.875000000  0.500000000
     0.000000000  0.000000000  0.500000000
     0.000018501  0.875049095  0.604479124
     0.749993294  0.000054474  0.610732695
     0.749862558  0.875194571  0.720435615
     0.999998412  0.000069978  0.708620513
     0.750000000  0.125000000  0.286715143
     0.000000000  0.250000000  0.286715143
     0.000000000  0.125000000  0.393357571
     0.750000000  0.250000000  0.393357571
     0.750000000  0.125000000  0.500000000
     0.000000000  0.250000000  0.500000000
     0.000018241  0.125011926  0.604483464
     0.750055332  0.250011897  0.610726761
     0.749928399  0.125151515  0.720415545
     0.999998444  0.249998092  0.708623066
     0.750000000  0.375000000  0.286715143
     0.000000000  0.500000000  0.286715143
     0.000000000  0.375000000  0.393357571
     0.750000000  0.500000000  0.393357571
     0.750000000  0.375000000  0.500000000
     0.000000000  0.500000000  0.500000000
     0.000018195  0.375020600  0.604459652
     0.750084895  0.500031312  0.610662926
     0.750233710  0.375184014  0.720352467
     0.999998430  0.500153264  0.708605034
     0.250000000  0.625000000  0.286715143
     0.500000000  0.750000000  0.286715143
     0.500000000  0.625000000  0.393357571
     0.250000000  0.750000000  0.393357571
     0.250000000  0.625000000  0.500000000
     0.500000000  0.750000000  0.500000000
     0.500018582  0.624457216  0.604859463
     0.249986120  0.750080570  0.610637707
     0.249843768  0.625326778  0.720096565
     0.499998363  0.750691837  0.708260081
     0.250000000  0.875000000  0.286715143
     0.500000000  0.000000000  0.286715143
     0.500000000  0.875000000  0.393357571
     0.250000000  0.000000000  0.393357571
     0.250000000  0.875000000  0.500000000
     0.500000000  0.000000000  0.500000000
     0.500018594  0.874771678  0.604183376
     0.250035755  0.000054483  0.610732678
     0.250134222  0.875194618  0.720435590
     0.499998453  0.000074256  0.708318516
     0.250000000  0.125000000  0.286715143
     0.500000000  0.250000000  0.286715143
     0.500000000  0.125000000  0.393357571
     0.250000000  0.250000000  0.393357571
     0.250000000  0.125000000  0.500000000
     0.500000000  0.250000000  0.500000000
     0.500018531  0.125262500  0.604210190
     0.249973363  0.250011864  0.610726756
     0.250068419  0.125151541  0.720415518
     0.499998402  0.249601278  0.708326997
     0.250000000  0.375000000  0.286715143
     0.500000000  0.500000000  0.286715143
     0.500000000  0.375000000  0.393357571
     0.250000000  0.500000000  0.393357571
     0.250000000  0.375000000  0.500000000
     0.500000000  0.500000000  0.500000000
     0.500018313  0.375534732  0.604860054
     0.249943954  0.500031319  0.610662946
     0.249763126  0.375184013  0.720352425
     0.499998487  0.498880481  0.709702610
     0.750000000  0.750000000  0.244946144
     0.750000000  0.750000000  0.328484141
     0.097918341  0.625000000  0.286715143
     0.902081659  0.625000000  0.286715143
     0.000000000  0.750000000  0.351588572
     0.000000000  0.750000000  0.435126570
     0.847918341  0.625000000  0.393357571
     0.152081659  0.625000000  0.393357571
     0.750000000  0.750000000  0.458231001
     0.750000000  0.750000000  0.541768999
     0.097918341  0.625000000  0.500000000
     0.902081659  0.625000000  0.500000000
     0.999997486  0.750072095  0.565490090
     0.999997752  0.750018488  0.649268790
     0.850135895  0.625089543  0.607135808
     0.149858412  0.625089553  0.607134894
     0.750458266  0.750213744  0.671766187
     0.749528335  0.749900469  0.755667776
     0.093878304  0.625079887  0.719222439
     0.906118842  0.625079874  0.719222502
     0.750000000  0.000000000  0.244946144
     0.750000000  0.000000000  0.328484141
     0.097918341  0.875000000  0.286715143
     0.902081659  0.875000000  0.286715143
     0.000000000  0.000000000  0.351588572
     0.000000000  0.000000000  0.435126570
     0.847918341  0.875000000  0.393357571
     0.152081659  0.875000000  0.393357571
     0.750000000  0.000000000  0.458231001
     0.750000000  0.000000000  0.541768999
     0.097918341  0.875000000  0.500000000
     0.902081659  0.875000000  0.500000000
     0.999997503  0.000042801  0.565498395
     0.999997729  0.000034842  0.649279562
     0.850122385  0.875077657  0.607192075
     0.149871919  0.875077651  0.607191148
     0.750180287  0.000072827  0.671837979
     0.750146454  0.000118035  0.755722016
     0.093894973  0.875053010  0.719151294
     0.906102182  0.875053001  0.719151376
     0.750000000  0.250000000  0.244946144
     0.750000000  0.250000000  0.328484141
     0.097918341  0.125000000  0.286715143
     0.902081659  0.125000000  0.286715143
     0.000000000  0.250000000  0.351588572
     0.000000000  0.250000000  0.435126570
     0.847918341  0.125000000  0.393357571
     0.152081659  0.125000000  0.393357571
     0.750000000  0.250000000  0.458231001
     0.750000000  0.250000000  0.541768999
     0.097918341  0.125000000  0.500000000
     0.902081659  0.125000000  0.500000000
     0.999997508  0.250005118  0.565498965
     0.999997770  0.250108725  0.649286959
     0.850135179  0.124990455  0.607209102
     0.149859198  0.124990429  0.607208179
     0.750546701  0.249895810  0.671811719
     0.749847261  0.250266180  0.755683668
     0.093863286  0.125140177  0.719144556
     0.906133887  0.125140190  0.719144660
     0.750000000  0.500000000  0.244946144
     0.750000000  0.500000000  0.328484141
     0.097918341  0.375000000  0.286715143
     0.902081659  0.375000000  0.286715143
     0.000000000  0.500000000  0.351588572
     0.000000000  0.500000000  0.435126570
     0.847918341  0.375000000  0.393357571
     0.152081659  0.375000000  0.393357571
     0.750000000  0.500000000  0.458231001
     0.750000000  0.500000000  0.541768999
     0.097918341  0.375000000  0.500000000
     0.902081659  0.375000000  0.500000000
     0.999997488  0.500026480  0.565488810
     0.999997767  0.500070972  0.649265344
     0.850135033  0.375007074  0.607154537
     0.149859315  0.375007034  0.607153609
     0.750771406  0.500124083  0.671769381
     0.748575839  0.500388609  0.755619716
     0.093886836  0.375209170  0.719243632
     0.906110329  0.375209183  0.719243724
     0.250000000  0.750000000  0.244946144
     0.250000000  0.750000000  0.328484141
     0.597918341  0.625000000  0.286715143
     0.402081659  0.625000000  0.286715143
     0.500000000  0.750000000  0.351588572
     0.500000000  0.750000000  0.435126570
     0.347918341  0.625000000  0.393357571
     0.652081659  0.625000000  0.393357571
     0.250000000  0.750000000  0.458231001
     0.250000000  0.750000000  0.541768999
     0.597918341  0.625000000  0.500000000
     0.402081659  0.625000000  0.500000000
     0.499997645  0.749542681  0.565468861
     0.499997499  0.750485375  0.648973800
     0.349948950  0.625010424  0.607323510
     0.650045409  0.625010429  0.607322639
     0.249538901  0.750213708  0.671766167
     0.250468950  0.749900501  0.755667758
     0.594113416  0.626192735  0.718507122
     0.405883823  0.626192580  0.718507267
     0.250000000  0.000000000  0.244946144
     0.250000000  0.000000000  0.328484141
     0.597918341  0.875000000  0.286715143
     0.402081659  0.875000000  0.286715143
     0.500000000  0.000000000  0.351588572
     0.500000000  0.000000000  0.435126570
     0.347918341  0.875000000  0.393357571
     0.652081659  0.875000000  0.393357571
     0.250000000  0.000000000  0.458231001
     0.250000000  0.000000000  0.541768999
     0.597918341  0.875000000  0.500000000
     0.402081659  0.875000000  0.500000000
     0.499997364  0.000024743  0.565334481
     0.499997777  0.000083345  0.649003130
     0.349971617  0.875045508  0.607154224
     0.650022761  0.875045512  0.607153250
     0.249816911  0.000072779  0.671837969
     0.249850772  0.000118051  0.755722018
     0.594066548  0.875501133  0.718784097
     0.405930627  0.875501185  0.718784215
     0.250000000  0.250000000  0.244946144
     0.250000000  0.250000000  0.328484141
     0.597918341  0.125000000  0.286715143
     0.402081659  0.125000000  0.286715143
     0.500000000  0.250000000  0.351588572
     0.500000000  0.250000000  0.435126570
     0.347918341  0.125000000  0.393357571
     0.652081659  0.125000000  0.393357571
     0.250000000  0.250000000  0.458231001
     0.250000000  0.250000000  0.541768999
     0.597918341  0.125000000  0.500000000
     0.402081659  0.125000000  0.500000000
     0.499997625  0.250517361  0.565479212
     0.499997557  0.249426007  0.649019810
     0.349954654  0.125035015  0.607156593
     0.650039732  0.125035019  0.607155611
     0.249450511  0.249895830  0.671811687
     0.250150025  0.250266202  0.755683638
     0.594037973  0.124873366  0.718939404
     0.405959225  0.124873338  0.718939503
     0.250000000  0.500000000  0.244946144
     0.250000000  0.500000000  0.328484141
     0.597918341  0.375000000  0.286715143
     0.402081659  0.375000000  0.286715143
     0.500000000  0.500000000  0.351588572
     0.500000000  0.500000000  0.435126570
     0.347918341  0.375000000  0.393357571
     0.652081659  0.375000000  0.393357571
     0.250000000  0.500000000  0.458231001
     0.250000000  0.500000000  0.541768999
     0.597918341  0.375000000  0.500000000
     0.402081659  0.375000000  0.500000000
     0.499997587  0.499965936  0.565617539
     0.499998049  0.500080536  0.649684440
     0.349956053  0.375053532  0.607371547
     0.650038370  0.375053525  0.607370671
     0.249225740  0.500124069  0.671769354
     0.251421383  0.500388591  0.755619684
     0.594343667  0.374015738  0.718102742
     0.405653562  0.374015851  0.718102865

  ion indices of the primitive-cell ions
   primitive index   ion index
                 1           1
                 2           2
                 3           3
                 4           4
                 5           5
                 6           6
                 7           7
                 8           8
                 9           9
                10          10
                11          11
                12          12
                13          13
                14          14
                15          15
                16          16
                17          17
                18          18
                19          19
                20          20
                21          21
                22          22
                23          23
                24          24
                25          25
                26          26
                27          27
                28          28
                29          29
                30          30
                31          31
                32          32
                33          33
                34          34
                35          35
                36          36
                37          37
                38          38
                39          39
                40          40
                41          41
                42          42
                43          43
                44          44
                45          45
                46          46
                47          47
                48          48
                49          49
                50          50
                51          51
                52          52
                53          53
                54          54
                55          55
                56          56
                57          57
                58          58
                59          59
                60          60
                61          61
                62          62
                63          63
                64          64
                65          65
                66          66
                67          67
                68          68
                69          69
                70          70
                71          71
                72          72
                73          73
                74          74
                75          75
                76          76
                77          77
                78          78
                79          79
                80          80
                81          81
                82          82
                83          83
                84          84
                85          85
                86          86
                87          87
                88          88
                89          89
                90          90
                91          91
                92          92
                93          93
                94          94
                95          95
                96          96
                97          97
                98          98
                99          99
               100         100
               101         101
               102         102
               103         103
               104         104
               105         105
               106         106
               107         107
               108         108
               109         109
               110         110
               111         111
               112         112
               113         113
               114         114
               115         115
               116         116
               117         117
               118         118
               119         119
               120         120
               121         121
               122         122
               123         123
               124         124
               125         125
               126         126
               127         127
               128         128
               129         129
               130         130
               131         131
               132         132
               133         133
               134         134
               135         135
               136         136
               137         137
               138         138
               139         139
               140         140
               141         141
               142         142
               143         143
               144         144
               145         145
               146         146
               147         147
               148         148
               149         149
               150         150
               151         151
               152         152
               153         153
               154         154
               155         155
               156         156
               157         157
               158         158
               159         159
               160         160
               161         161
               162         162
               163         163
               164         164
               165         165
               166         166
               167         167
               168         168
               169         169
               170         170
               171         171
               172         172
               173         173
               174         174
               175         175
               176         176
               177         177
               178         178
               179         179
               180         180
               181         181
               182         182
               183         183
               184         184
               185         185
               186         186
               187         187
               188         188
               189         189
               190         190
               191         191
               192         192
               193         193
               194         194
               195         195
               196         196
               197         197
               198         198
               199         199
               200         200
               201         201
               202         202
               203         203
               204         204
               205         205
               206         206
               207         207
               208         208
               209         209
               210         210
               211         211
               212         212
               213         213
               214         214
               215         215
               216         216
               217         217
               218         218
               219         219
               220         220
               221         221
               222         222
               223         223
               224         224
               225         225
               226         226
               227         227
               228         228
               229         229
               230         230
               231         231
               232         232
               233         233
               234         234
               235         235
               236         236
               237         237
               238         238
               239         239
               240         240

----------------------------------------------------------------------------------------

 
 
 KPOINTS: pymatgen v2020.8.13 with grid density = 

Automatic generation of k-mesh.
 Grid dimensions read from file:
 generate k-points for:    2    2    1

 Generating k-lattice:

  Cartesian coordinates                     Fractional coordinates (reciprocal lattice)
     0.038281534  0.000000000  0.000000000     0.500000000  0.000000000  0.000000000
     0.000000000  0.042210838  0.000000000     0.000000000  0.500000000  0.000000000
     0.000000000  0.000000000  0.032659486     0.000000000  0.000000000  1.000000000

  Length of vectors
     0.038281534  0.042210838  0.032659486

  Shift w.r.t. Gamma in fractional coordinates (k-lattice)
     0.000000000  0.000000000  0.000000000

 
 Subroutine IBZKPT returns following result:
 ===========================================
 
 Found      4 irreducible k-points:
 
 Following reciprocal coordinates:
            Coordinates               Weight
  0.000000  0.000000  0.000000      1.000000
  0.500000  0.000000  0.000000      1.000000
  0.000000  0.500000  0.000000      1.000000
  0.500000  0.500000  0.000000      1.000000
 
 Following cartesian coordinates:
            Coordinates               Weight
  0.000000  0.000000  0.000000      1.000000
  0.038282  0.000000  0.000000      1.000000
  0.000000  0.042211  0.000000      1.000000
  0.038282  0.042211  0.000000      1.000000
 


--------------------------------------------------------------------------------------------------------




 Dimension of arrays:
   k-points           NKPTS =      4   k-points in BZ     NKDIM =      4   number of bands    NBANDS=   1064
   number of dos      NEDOS =    301   number of ions     NIONS =    240
   non local maximal  LDIM  =      6   non local SUM 2l+1 LMDIM =     18
   total plane-waves  NPLWV = ******
   max r-space proj   IRMAX =      1   max aug-charges    IRDMAX=  21440
   dimension x,y,z NGX =   108 NGY =   96 NGZ =  250
   dimension x,y,z NGXF=   216 NGYF=  192 NGZF=  500
   support grid    NGXF=   216 NGYF=  192 NGZF=  500
   ions per type =              80 160
   NGX,Y,Z   is equivalent  to a cutoff of  13.75, 13.47, 13.57 a.u.
   NGXF,Y,Z  is equivalent  to a cutoff of  27.49, 26.95, 27.15 a.u.

 SYSTEM =  TiO2                                    
 POSCAR =  Ti  O                                   

--------------------------------------------------------------------------------------------------------


  energy-cutoff  :      600.00
  volume of cell :     4737.15
      direct lattice vectors                 reciprocal lattice vectors
    13.061127704  0.000000000  0.000000000     0.076563067  0.000000000  0.000000000
     0.000000000 11.845298948  0.000000000     0.000000000  0.084421677  0.000000000
     0.000000000  0.000000000 30.618975621     0.000000000  0.000000000  0.032659486

  length of vectors
    13.061127704 11.845298948 30.618975621     0.076563067  0.084421677  0.032659486


 
 k-points in units of 2pi/SCALE and weight: pymatgen v2020.8.13 with grid density = 
   0.00000000  0.00000000  0.00000000       0.250
   0.03828153  0.00000000  0.00000000       0.250
   0.00000000  0.04221084  0.00000000       0.250
   0.03828153  0.04221084  0.00000000       0.250
 
 k-points in reciprocal lattice and weights: pymatgen v2020.8.13 with grid density = 
   0.00000000  0.00000000  0.00000000       0.250
   0.50000000  0.00000000  0.00000000       0.250
   0.00000000  0.50000000  0.00000000       0.250
   0.50000000  0.50000000  0.00000000       0.250
 
 position of ions in fractional coordinates (direct lattice) 
   0.75000000  0.62500000  0.28671514
   0.00000000  0.75000000  0.28671514
   0.00000000  0.62500000  0.39335757
   0.75000000  0.75000000  0.39335757
   0.75000000  0.62500000  0.50000000
   0.00000000  0.75000000  0.50000000
   0.00001827  0.62505434  0.60445417
   0.75004306  0.75008072  0.61063770
   0.75015304  0.62532675  0.72009656
   0.99999842  0.75020110  0.70861291
   0.75000000  0.87500000  0.28671514
   0.00000000  0.00000000  0.28671514
   0.00000000  0.87500000  0.39335757
   0.75000000  0.00000000  0.39335757
   0.75000000  0.87500000  0.50000000
   0.00000000  0.00000000  0.50000000
   0.00001850  0.87504910  0.60447912
   0.74999329  0.00005447  0.61073269
   0.74986256  0.87519457  0.72043562
   0.99999841  0.00006998  0.70862051
   0.75000000  0.12500000  0.28671514
   0.00000000  0.25000000  0.28671514
   0.00000000  0.12500000  0.39335757
   0.75000000  0.25000000  0.39335757
   0.75000000  0.12500000  0.50000000
   0.00000000  0.25000000  0.50000000
   0.00001824  0.12501193  0.60448346
   0.75005533  0.25001190  0.61072676
   0.74992840  0.12515152  0.72041554
   0.99999844  0.24999809  0.70862307
   0.75000000  0.37500000  0.28671514
   0.00000000  0.50000000  0.28671514
   0.00000000  0.37500000  0.39335757
   0.75000000  0.50000000  0.39335757
   0.75000000  0.37500000  0.50000000
   0.00000000  0.50000000  0.50000000
   0.00001820  0.37502060  0.60445965
   0.75008490  0.50003131  0.61066293
   0.75023371  0.37518401  0.72035247
   0.99999843  0.50015326  0.70860503
   0.25000000  0.62500000  0.28671514
   0.50000000  0.75000000  0.28671514
   0.50000000  0.62500000  0.39335757
   0.25000000  0.75000000  0.39335757
   0.25000000  0.62500000  0.50000000
   0.50000000  0.75000000  0.50000000
   0.50001858  0.62445722  0.60485946
   0.24998612  0.75008057  0.61063771
   0.24984377  0.62532678  0.72009657
   0.49999836  0.75069184  0.70826008
   0.25000000  0.87500000  0.28671514
   0.50000000  0.00000000  0.28671514
   0.50000000  0.87500000  0.39335757
   0.25000000  0.00000000  0.39335757
   0.25000000  0.87500000  0.50000000
   0.50000000  0.00000000  0.50000000
   0.50001859  0.87477168  0.60418338
   0.25003575  0.00005448  0.61073268
   0.25013422  0.87519462  0.72043559
   0.49999845  0.00007426  0.70831852
   0.25000000  0.12500000  0.28671514
   0.50000000  0.25000000  0.28671514
   0.50000000  0.12500000  0.39335757
   0.25000000  0.25000000  0.39335757
   0.25000000  0.12500000  0.50000000
   0.50000000  0.25000000  0.50000000
   0.50001853  0.12526250  0.60421019
   0.24997336  0.25001186  0.61072676
   0.25006842  0.12515154  0.72041552
   0.49999840  0.24960128  0.70832700
   0.25000000  0.37500000  0.28671514
   0.50000000  0.50000000  0.28671514
   0.50000000  0.37500000  0.39335757
   0.25000000  0.50000000  0.39335757
   0.25000000  0.37500000  0.50000000
   0.50000000  0.50000000  0.50000000
   0.50001831  0.37553473  0.60486005
   0.24994395  0.50003132  0.61066295
   0.24976313  0.37518401  0.72035243
   0.49999849  0.49888048  0.70970261
   0.75000000  0.75000000  0.24494614
   0.75000000  0.75000000  0.32848414
   0.09791834  0.62500000  0.28671514
   0.90208166  0.62500000  0.28671514
   0.00000000  0.75000000  0.35158857
   0.00000000  0.75000000  0.43512657
   0.84791834  0.62500000  0.39335757
   0.15208166  0.62500000  0.39335757
   0.75000000  0.75000000  0.45823100
   0.75000000  0.75000000  0.54176900
   0.09791834  0.62500000  0.50000000
   0.90208166  0.62500000  0.50000000
   0.99999749  0.75007210  0.56549009
   0.99999775  0.75001849  0.64926879
   0.85013589  0.62508954  0.60713581
   0.14985841  0.62508955  0.60713489
   0.75045827  0.75021374  0.67176619
   0.74952833  0.74990047  0.75566778
   0.09387830  0.62507989  0.71922244
   0.90611884  0.62507987  0.71922250
   0.75000000  0.00000000  0.24494614
   0.75000000  0.00000000  0.32848414
   0.09791834  0.87500000  0.28671514
   0.90208166  0.87500000  0.28671514
   0.00000000  0.00000000  0.35158857
   0.00000000  0.00000000  0.43512657
   0.84791834  0.87500000  0.39335757
   0.15208166  0.87500000  0.39335757
   0.75000000  0.00000000  0.45823100
   0.75000000  0.00000000  0.54176900
   0.09791834  0.87500000  0.50000000
   0.90208166  0.87500000  0.50000000
   0.99999750  0.00004280  0.56549840
   0.99999773  0.00003484  0.64927956
   0.85012239  0.87507766  0.60719208
   0.14987192  0.87507765  0.60719115
   0.75018029  0.00007283  0.67183798
   0.75014645  0.00011803  0.75572202
   0.09389497  0.87505301  0.71915129
   0.90610218  0.87505300  0.71915138
   0.75000000  0.25000000  0.24494614
   0.75000000  0.25000000  0.32848414
   0.09791834  0.12500000  0.28671514
   0.90208166  0.12500000  0.28671514
   0.00000000  0.25000000  0.35158857
   0.00000000  0.25000000  0.43512657
   0.84791834  0.12500000  0.39335757
   0.15208166  0.12500000  0.39335757
   0.75000000  0.25000000  0.45823100
   0.75000000  0.25000000  0.54176900
   0.09791834  0.12500000  0.50000000
   0.90208166  0.12500000  0.50000000
   0.99999751  0.25000512  0.56549897
   0.99999777  0.25010872  0.64928696
   0.85013518  0.12499045  0.60720910
   0.14985920  0.12499043  0.60720818
   0.75054670  0.24989581  0.67181172
   0.74984726  0.25026618  0.75568367
   0.09386329  0.12514018  0.71914456
   0.90613389  0.12514019  0.71914466
   0.75000000  0.50000000  0.24494614
   0.75000000  0.50000000  0.32848414
   0.09791834  0.37500000  0.28671514
   0.90208166  0.37500000  0.28671514
   0.00000000  0.50000000  0.35158857
   0.00000000  0.50000000  0.43512657
   0.84791834  0.37500000  0.39335757
   0.15208166  0.37500000  0.39335757
   0.75000000  0.50000000  0.45823100
   0.75000000  0.50000000  0.54176900
   0.09791834  0.37500000  0.50000000
   0.90208166  0.37500000  0.50000000
   0.99999749  0.50002648  0.56548881
   0.99999777  0.50007097  0.64926534
   0.85013503  0.37500707  0.60715454
   0.14985931  0.37500703  0.60715361
   0.75077141  0.50012408  0.67176938
   0.74857584  0.50038861  0.75561972
   0.09388684  0.37520917  0.71924363
   0.90611033  0.37520918  0.71924372
   0.25000000  0.75000000  0.24494614
   0.25000000  0.75000000  0.32848414
   0.59791834  0.62500000  0.28671514
   0.40208166  0.62500000  0.28671514
   0.50000000  0.75000000  0.35158857
   0.50000000  0.75000000  0.43512657
   0.34791834  0.62500000  0.39335757
   0.65208166  0.62500000  0.39335757
   0.25000000  0.75000000  0.45823100
   0.25000000  0.75000000  0.54176900
   0.59791834  0.62500000  0.50000000
   0.40208166  0.62500000  0.50000000
   0.49999764  0.74954268  0.56546886
   0.49999750  0.75048537  0.64897380
   0.34994895  0.62501042  0.60732351
   0.65004541  0.62501043  0.60732264
   0.24953890  0.75021371  0.67176617
   0.25046895  0.74990050  0.75566776
   0.59411342  0.62619274  0.71850712
   0.40588382  0.62619258  0.71850727
   0.25000000  0.00000000  0.24494614
   0.25000000  0.00000000  0.32848414
   0.59791834  0.87500000  0.28671514
   0.40208166  0.87500000  0.28671514
   0.50000000  0.00000000  0.35158857
   0.50000000  0.00000000  0.43512657
   0.34791834  0.87500000  0.39335757
   0.65208166  0.87500000  0.39335757
   0.25000000  0.00000000  0.45823100
   0.25000000  0.00000000  0.54176900
   0.59791834  0.87500000  0.50000000
   0.40208166  0.87500000  0.50000000
   0.49999736  0.00002474  0.56533448
   0.49999778  0.00008334  0.64900313
   0.34997162  0.87504551  0.60715422
   0.65002276  0.87504551  0.60715325
   0.24981691  0.00007278  0.67183797
   0.24985077  0.00011805  0.75572202
   0.59406655  0.87550113  0.71878410
   0.40593063  0.87550118  0.71878422
   0.25000000  0.25000000  0.24494614
   0.25000000  0.25000000  0.32848414
   0.59791834  0.12500000  0.28671514
   0.40208166  0.12500000  0.28671514
   0.50000000  0.25000000  0.35158857
   0.50000000  0.25000000  0.43512657
   0.34791834  0.12500000  0.39335757
   0.65208166  0.12500000  0.39335757
   0.25000000  0.25000000  0.45823100
   0.25000000  0.25000000  0.54176900
   0.59791834  0.12500000  0.50000000
   0.40208166  0.12500000  0.50000000
   0.49999763  0.25051736  0.56547921
   0.49999756  0.24942601  0.64901981
   0.34995465  0.12503501  0.60715659
   0.65003973  0.12503502  0.60715561
   0.24945051  0.24989583  0.67181169
   0.25015003  0.25026620  0.75568364
   0.59403797  0.12487337  0.71893940
   0.40595923  0.12487334  0.71893950
   0.25000000  0.50000000  0.24494614
   0.25000000  0.50000000  0.32848414
   0.59791834  0.37500000  0.28671514
   0.40208166  0.37500000  0.28671514
   0.50000000  0.50000000  0.35158857
   0.50000000  0.50000000  0.43512657
   0.34791834  0.37500000  0.39335757
   0.65208166  0.37500000  0.39335757
   0.25000000  0.50000000  0.45823100
   0.25000000  0.50000000  0.54176900
   0.59791834  0.37500000  0.50000000
   0.40208166  0.37500000  0.50000000
   0.49999759  0.49996594  0.56561754
   0.49999805  0.50008054  0.64968444
   0.34995605  0.37505353  0.60737155
   0.65003837  0.37505352  0.60737067
   0.24922574  0.50012407  0.67176935
   0.25142138  0.50038859  0.75561968
   0.59434367  0.37401574  0.71810274
   0.40565356  0.37401585  0.71810286
 
 position of ions in cartesian coordinates  (Angst):
   9.79584578  7.40331184  8.77892396
   0.00000000  8.88397421  8.77892396
   0.00000000  7.40331184 12.04420588
   9.79584578  8.88397421 12.04420588
   9.79584578  7.40331184 15.30948781
   0.00000000  8.88397421 15.30948781
   0.00023866  7.40395551 18.50776741
   9.79640816  8.88493039 18.69710086
   9.79784460  7.40718225 22.04861916
  13.06110701  8.88635632 21.69700132
   9.79584578 10.36463658  8.77892396
   0.00000000  0.00000000  8.77892396
   0.00000000 10.36463658 12.04420588
   9.79584578  0.00000000 12.04420588
   9.79584578 10.36463658 15.30948781
   0.00000000  0.00000000 15.30948781
   0.00024164 10.36521813 18.50853157
   9.79575819  0.00064527 18.70000950
   9.79405063 10.36694133 22.05900053
  13.06110696  0.00082891 21.69723421
   9.79584578  1.48066237  8.77892396
   0.00000000  2.96132474  8.77892396
   0.00000000  1.48066237 12.04420588
   9.79584578  2.96132474 12.04420588
   9.79584578  1.48066237 15.30948781
   0.00000000  2.96132474 15.30948781
   0.00023825  1.48080363 18.50866444
   9.79656848  2.96146566 18.69982780
   9.79491059  1.48245711 22.05838600
  13.06110738  2.96130214 21.69731239
   9.79584578  4.44198711  8.77892396
   0.00000000  5.92264947  8.77892396
   0.00000000  4.44198711 12.04420588
   9.79584578  5.92264947 12.04420588
   9.79584578  4.44198711 15.30948781
   0.00000000  5.92264947 15.30948781
   0.00023765  4.44223112 18.50793533
   9.79695461  5.92302038 18.69787324
   9.79889829  4.44416680 22.05645463
  13.06110720  5.92446493 21.69676027
   3.26528193  7.40331184  8.77892396
   6.53056385  8.88397421  8.77892396
   6.53056385  7.40331184 12.04420588
   3.26528193  8.88397421 12.04420588
   3.26528193  7.40331184 15.30948781
   6.53056385  8.88397421 15.30948781
   6.53080655  7.39688240 18.52017715
   3.26510064  8.88492859 18.69710107
   3.26324136  7.40718262 22.04861918
   6.53054247  8.89216923 21.68619817
   3.26528193 10.36463658  8.77892396
   6.53056385  0.00000000  8.77892396
   6.53056385 10.36463658 12.04420588
   3.26528193  0.00000000 12.04420588
   3.26528193 10.36463658 15.30948781
   6.53056385  0.00000000 15.30948781
   6.53080670 10.36193204 18.49947606
   3.26574892  0.00064537 18.70000897
   3.26703502 10.36694189 22.05899977
   6.53054365  0.00087958 21.68798736
   3.26528193  1.48066237  8.77892396
   6.53056385  2.96132474  8.77892396
   6.53056385  1.48066237 12.04420588
   3.26528193  2.96132474 12.04420588
   3.26528193  1.48066237 15.30948781
   6.53056385  2.96132474 15.30948781
   6.53080589  1.48377176 18.50029707
   3.26493402  2.96146527 18.69982766
   3.26617556  1.48245741 22.05838518
   6.53054298  2.95660176 21.68824706
   3.26528193  4.44198711  8.77892396
   6.53056385  5.92264947  8.77892396
   6.53056385  4.44198711 12.04420588
   3.26528193  5.92264947 12.04420588
   3.26528193  4.44198711 15.30948781
   6.53056385  5.92264947 15.30948781
   6.53080304  4.44832116 18.52019525
   3.26454990  5.92302046 18.69787385
   3.26218808  4.44416680 22.05645335
   6.53054410  5.90938843 21.73036693
   9.79584578  8.88397421  7.50000000
   9.79584578  8.88397421 10.05784792
   1.27892396  7.40331184  8.77892396
  11.78220374  7.40331184  8.77892396
   0.00000000  8.88397421 10.76528193
   0.00000000  8.88397421 13.32312984
  11.07476974  7.40331184 12.04420588
   1.98635797  7.40331184 12.04420588
   9.79584578  8.88397421 14.03056385
   9.79584578  8.88397421 16.58841177
   1.27892396  7.40331184 15.30948781
  11.78220374  7.40331184 15.30948781
  13.06109487  8.88482820 17.31472727
  13.06109834  8.88419321 19.87994524
  11.10373349  7.40437250 18.58987651
   1.95731985  7.40437262 18.58984851
   9.80183125  8.88650607 20.56879251
   9.78968530  8.88279524 23.13777322
   1.22615652  7.40425813 22.02185434
  11.83493391  7.40425797 22.02185625
   9.79584578  0.00000000  7.50000000
   9.79584578  0.00000000 10.05784792
   1.27892396 10.36463658  8.77892396
  11.78220374 10.36463658  8.77892396
   0.00000000  0.00000000 10.76528193
   0.00000000  0.00000000 13.32312984
  11.07476974 10.36463658 12.04420588
   1.98635797 10.36463658 12.04420588
   9.79584578  0.00000000 14.03056385
   9.79584578  0.00000000 16.58841177
   1.27892396 10.36463658 15.30948781
  11.78220374 10.36463658 15.30948781
  13.06109510  0.00050699 17.31498158
  13.06109804  0.00041272 19.88027507
  11.10355704 10.36555645 18.59159935
   1.95749627 10.36555638 18.59157095
   9.79820052  0.00086266 20.57099069
   9.79775863  0.00139815 23.13943399
   1.22637423 10.36526450 22.01967592
  11.83471631 10.36526439 22.01967843
   9.79584578  2.96132474  7.50000000
   9.79584578  2.96132474 10.05784792
   1.27892396  1.48066237  8.77892396
  11.78220374  1.48066237  8.77892396
   0.00000000  2.96132474 10.76528193
   0.00000000  2.96132474 13.32312984
  11.07476974  1.48066237 12.04420588
   1.98635797  1.48066237 12.04420588
   9.79584578  2.96132474 14.03056385
   9.79584578  2.96132474 16.58841177
   1.27892396  1.48066237 15.30948781
  11.78220374  1.48066237 15.30948781
  13.06109515  2.96138537 17.31499903
  13.06109858  2.96261261 19.88050157
  11.10372413  1.48054930 18.59212069
   1.95733013  1.48054899 18.59209242
   9.80298631  2.96009058 20.57018664
   9.79385083  2.96447772 23.13825980
   1.22596037  1.48232281 22.01946962
  11.83513041  1.48232296 22.01947282
   9.79584578  5.92264947  7.50000000
   9.79584578  5.92264947 10.05784792
   1.27892396  4.44198711  8.77892396
  11.78220374  4.44198711  8.77892396
   0.00000000  5.92264947 10.76528193
   0.00000000  5.92264947 13.32312984
  11.07476974  4.44198711 12.04420588
   1.98635797  4.44198711 12.04420588
   9.79584578  5.92264947 14.03056385
   9.79584578  5.92264947 16.58841177
   1.27892396  4.44198711 15.30948781
  11.78220374  4.44198711 15.30948781
  13.06109489  5.92296314 17.31468809
  13.06109854  5.92349016 19.87983975
  11.10372222  4.44207090 18.59044996
   1.95733165  4.44207042 18.59042155
   9.80592121  5.92411928 20.56889030
   9.77724463  5.92725266 23.13630168
   1.22626795  4.44446479 22.02250322
  11.83482271  4.44446494 22.02250604
   3.26528193  8.88397421  7.50000000
   3.26528193  8.88397421 10.05784792
   7.80948781  7.40331184  8.77892396
   5.25163989  7.40331184  8.77892396
   6.53056385  8.88397421 10.76528193
   6.53056385  8.88397421 13.32312984
   4.54420588  7.40331184 12.04420588
   8.51692182  7.40331184 12.04420588
   3.26528193  8.88397421 14.03056385
   3.26528193  8.88397421 16.58841177
   7.80948781  7.40331184 15.30948781
   5.25163989  7.40331184 15.30948781
   6.53053309  8.87855713 17.31407728
   6.53053119  8.88972362 19.87091295
   4.57072792  7.40343532 18.59562375
   8.49032610  7.40343538 18.59559709
   3.25925946  8.88650564 20.56879188
   3.27140694  8.88279562 23.13777265
   7.75979120  7.41744015 21.99995205
   5.30130044  7.41743831 21.99995650
   3.26528193  0.00000000  7.50000000
   3.26528193  0.00000000 10.05784792
   7.80948781 10.36463658  8.77892396
   5.25163989 10.36463658  8.77892396
   6.53056385  0.00000000 10.76528193
   6.53056385  0.00000000 13.32312984
   4.54420588 10.36463658 12.04420588
   8.51692182 10.36463658 12.04420588
   3.26528193  0.00000000 14.03056385
   3.26528193  0.00000000 16.58841177
   7.80948781 10.36463658 15.30948781
   5.25163989 10.36463658 15.30948781
   6.53052942  0.00029309 17.30996269
   6.53053482  0.00098724 19.87181103
   4.57102398 10.36517564 18.59044039
   8.49003030 10.36517568 18.59041056
   3.26289058  0.00086209 20.57099040
   3.26333283  0.00139836 23.13943403
   7.75917905 10.37057265 22.00843275
   5.30191175 10.37057326 22.00843636
   3.26528193  2.96132474  7.50000000
   3.26528193  2.96132474 10.05784792
   7.80948781  1.48066237  8.77892396
   5.25163989  1.48066237  8.77892396
   6.53056385  2.96132474 10.76528193
   6.53056385  2.96132474 13.32312984
   4.54420588  1.48066237 12.04420588
   8.51692182  1.48066237 12.04420588
   3.26528193  2.96132474 14.03056385
   3.26528193  2.96132474 16.58841177
   7.80948781  1.48066237 15.30948781
   5.25163989  1.48066237 15.30948781
   6.53053284  2.96745303 17.31439422
   6.53053194  2.95452562 19.87232174
   4.57080243  1.48107713 18.59051293
   8.49025195  1.48107718 18.59048284
   3.25810498  2.96009081 20.57018567
   3.26724143  2.96447798 23.13825890
   7.75880583  1.47916235 22.01318807
   5.30228528  1.47916202 22.01319113
   3.26528193  5.92264947  7.50000000
   3.26528193  5.92264947 10.05784792
   7.80948781  4.44198711  8.77892396
   5.25163989  4.44198711  8.77892396
   6.53056385  5.92264947 10.76528193
   6.53056385  5.92264947 13.32312984
   4.54420588  4.44198711 12.04420588
   8.51692182  4.44198711 12.04420588
   3.26528193  5.92264947 14.03056385
   3.26528193  5.92264947 16.58841177
   7.80948781  4.44198711 15.30948781
   5.25163989  4.44198711 15.30948781
   6.53053233  5.92224598 17.31862964
   6.53053837  5.92360345 19.89267202
   4.57082070  4.44262121 18.59709458
   8.49023416  4.44262112 18.59706776
   3.25516921  5.92411911 20.56888948
   3.28384679  5.92725245 23.13630068
   7.76279854  4.43032823 21.98757034
   5.29829298  4.43032957 21.98757411
 


--------------------------------------------------------------------------------------------------------

--------------------------------------- Iteration      FINAL  ---------------------------------------


--------------------OUTCAR has been truncated-------------------------


--------------------OUTCAR has been truncated-------------------------


--------------------OUTCAR has been truncated-------------------------


--------------------OUTCAR has been truncated-------------------------


--------------------OUTCAR has been truncated-------------------------


--------------------OUTCAR has been truncated-------------------------


--------------------OUTCAR has been truncated-------------------------


--------------------OUTCAR has been truncated-------------------------


--------------------OUTCAR has been truncated-------------------------


--------------------OUTCAR has been truncated-------------------------


  FORCE on cell =-STRESS in cart. coord.  units (eV):
  Direction    XX          YY          ZZ          XY          YZ          ZX
  --------------------------------------------------------------------------------------
  Alpha Z  4617.99219  4617.99219  4617.99219
  Ewald  974484.04030992428.18271************     0.00011    -4.09515    -0.02861
  Hartree************************************     0.00003    -2.10034    -0.01765
  E(xc)   -9119.80464 -9128.80943 -9117.50923    -0.00000    -0.00290     0.00007
  Local  ************************************    -0.00012     6.15508     0.04585
  n-local -5179.81323 -5085.74691 -5223.13856     0.00002    -0.11470    -0.00079
  augment  5517.71179  5485.70231  5521.16037    -0.00001     0.01305     0.00022
  Kinetic 28628.47973 28154.40101 28676.42505    -0.00002     0.06084     0.00210
  Fock        0.00000     0.00000     0.00000     0.00000     0.00000     0.00000
  -------------------------------------------------------------------------------------
  Total     -47.86777   -87.95740   -81.02030     0.00001    -0.08411     0.00120
  in kB     -16.18961   -29.74854   -27.40230     0.00000    -0.02845     0.00041
  external pressure =      -24.45 kB  Pullay stress =        0.00 kB


 VOLUME and BASIS-vectors are now :
 -----------------------------------------------------------------------------
  energy-cutoff  :      600.00
  volume of cell :     4737.15
      direct lattice vectors                 reciprocal lattice vectors
    13.061127704  0.000000000  0.000000000     0.076563067  0.000000000  0.000000000
     0.000000000 11.845298948  0.000000000     0.000000000  0.084421677  0.000000000
     0.000000000  0.000000000 30.618975621     0.000000000  0.000000000  0.032659486

  length of vectors
    13.061127704 11.845298948 30.618975621     0.076563067  0.084421677  0.032659486


 FORCES acting on ions:
    Electron-Ion                     Ewald-Force                    Non-Local-Force
 -----------------------------------------------------------------------------------------------
   0.121E-01 0.111E-01 0.377E+04   -.123E-01 -.110E-01 -.377E+04   -.276E-04 -.356E-04 0.429E+00
   -.283E-03 0.849E-02 0.395E+04   0.338E-05 -.843E-02 -.394E+04   0.259E-03 -.180E-04 -.402E+01
   0.114E-03 0.307E-01 0.191E+04   -.496E-04 -.307E-01 -.191E+04   -.119E-03 0.289E-04 -.627E-01
   0.413E-01 0.696E-01 0.191E+04   -.426E-01 -.688E-01 -.191E+04   0.448E-03 -.282E-04 0.222E+00
   0.502E+00 0.279E+00 -.192E+02   -.507E+00 -.279E+00 0.200E+02   0.807E-03 0.118E-03 -.128E+00
   0.123E-02 0.480E-01 -.764E+01   -.167E-02 -.437E-01 0.654E+01   0.307E-03 -.148E-02 0.344E+00
   0.648E-01 0.180E+00 -.188E+04   -.645E-01 -.179E+00 0.188E+04   -.472E-03 -.111E-02 0.147E+00
   0.539E+00 0.349E+00 -.195E+04   -.520E+00 -.340E+00 0.195E+04   -.636E-02 -.480E-02 -.180E+00
   -.714E+00 0.199E+01 -.376E+04   0.659E+00 -.198E+01 0.376E+04   0.339E-01 -.124E-02 -.336E+00
   -.674E-03 0.962E+00 -.378E+04   0.302E-03 -.966E+00 0.378E+04   0.301E-03 -.220E-02 0.117E+01
   0.591E-02 0.751E-02 0.377E+04   -.627E-02 -.724E-02 -.377E+04   0.558E-05 -.378E-04 0.429E+00
   -.258E-03 -.275E-02 0.395E+04   0.328E-05 0.278E-02 -.394E+04   0.262E-03 -.379E-06 -.402E+01
   0.117E-03 0.754E-02 0.191E+04   -.505E-04 -.732E-02 -.191E+04   -.116E-03 0.209E-04 -.628E-01
   -.418E-02 -.158E-01 0.191E+04   0.251E-02 0.160E-01 -.191E+04   0.547E-03 0.147E-04 0.221E+00
   -.638E-01 0.123E+00 -.189E+02   0.612E-01 -.108E+00 0.197E+02   0.420E-03 -.101E-02 -.130E+00
   0.127E-02 -.560E-01 -.781E+01   -.172E-02 0.586E-01 0.671E+01   0.307E-03 -.803E-03 0.344E+00
   0.654E-01 -.662E-03 -.188E+04   -.651E-01 -.927E-03 0.188E+04   -.478E-03 -.729E-03 0.147E+00
   -.365E-01 0.741E-01 -.195E+04   0.467E-01 -.789E-01 0.195E+04   -.938E-03 -.144E-03 -.173E+00
   -.425E+00 0.105E+01 -.376E+04   0.447E+00 -.109E+01 0.376E+04   0.984E-02 -.341E-02 -.332E+00
   -.602E-03 0.712E-01 -.378E+04   0.252E-03 -.826E-01 0.378E+04   0.300E-03 0.193E-02 0.118E+01
   0.577E-02 -.111E-01 0.377E+04   -.613E-02 0.111E-01 -.377E+04   0.137E-04 0.121E-04 0.429E+00
   -.270E-03 -.847E-02 0.395E+04   0.319E-05 0.843E-02 -.394E+04   0.255E-03 0.128E-04 -.402E+01
   0.131E-03 -.305E-01 0.191E+04   -.517E-04 0.305E-01 -.191E+04   -.117E-03 0.108E-04 -.629E-01
   0.392E-01 -.694E-01 0.191E+04   -.405E-01 0.686E-01 -.191E+04   0.437E-03 0.233E-04 0.221E+00
   -.748E-01 -.271E+00 -.191E+02   0.723E-01 0.268E+00 0.199E+02   0.486E-03 0.183E-03 -.131E+00
   0.126E-02 -.109E-01 -.782E+01   -.169E-02 0.795E-02 0.672E+01   0.314E-03 0.427E-03 0.345E+00
   0.646E-01 -.302E+00 -.188E+04   -.644E-01 0.300E+00 0.188E+04   -.464E-03 0.263E-02 0.150E+00
   0.327E+00 -.371E+00 -.195E+04   -.303E+00 0.362E+00 0.195E+04   -.719E-02 0.408E-02 -.175E+00
   0.591E-01 0.146E-01 -.376E+04   -.225E-01 -.265E-01 0.376E+04   -.131E-02 -.164E-02 -.325E+00
   -.490E-03 -.165E+01 -.378E+04   0.181E-03 0.165E+01 0.378E+04   0.310E-03 0.385E-02 0.117E+01
   0.119E-01 -.753E-02 0.377E+04   -.121E-01 0.724E-02 -.377E+04   -.317E-04 0.399E-04 0.429E+00
   -.285E-03 0.275E-02 0.395E+04   0.328E-05 -.278E-02 -.394E+04   0.257E-03 0.524E-05 -.402E+01
   0.112E-03 -.778E-02 0.191E+04   -.510E-04 0.757E-02 -.191E+04   -.118E-03 0.102E-04 -.628E-01
   0.842E-01 0.156E-01 0.191E+04   -.850E-01 -.158E-01 -.191E+04   0.284E-03 -.284E-04 0.222E+00
   0.486E+00 -.134E+00 -.194E+02   -.491E+00 0.123E+00 0.202E+02   0.518E-03 0.956E-03 -.129E+00
   0.120E-02 0.917E-01 -.765E+01   -.164E-02 -.934E-01 0.655E+01   0.309E-03 -.915E-04 0.344E+00
   0.646E-01 -.846E-01 -.188E+04   -.643E-01 0.861E-01 0.188E+04   -.469E-03 0.131E-02 0.149E+00
   0.987E+00 0.653E-01 -.195E+04   -.958E+00 -.600E-01 0.195E+04   -.910E-02 -.515E-03 -.184E+00
   -.118E+01 -.172E+01 -.376E+04   0.132E+01 0.176E+01 0.376E+04   -.291E-01 0.780E-02 -.318E+00
   -.659E-03 0.123E+00 -.378E+04   0.313E-03 -.115E+00 0.378E+04   0.302E-03 0.106E-02 0.116E+01
   -.119E-01 0.111E-01 0.377E+04   0.123E-01 -.110E-01 -.377E+04   -.209E-03 -.994E-05 0.429E+00
   -.227E-03 0.181E-01 0.395E+04   -.104E-04 -.178E-01 -.394E+04   0.253E-03 -.401E-04 -.402E+01
   0.196E-03 0.104E+00 0.191E+04   -.116E-03 -.981E-01 -.191E+04   -.116E-03 -.107E-02 -.629E-01
   -.419E-01 0.696E-01 0.191E+04   0.427E-01 -.688E-01 -.191E+04   -.140E-04 -.255E-04 0.222E+00
[...]
      9.79491      1.48246     22.05839         0.034672     -0.013285      0.020629
     13.06111      2.96130     21.69731         0.000007      0.004574     -0.016218
      9.79585      4.44199      8.77892        -0.000224     -0.000203     -3.667158
      0.00000      5.92265      8.77892        -0.000019      0.000022      3.054616
      0.00000      4.44199     12.04421        -0.000046     -0.000158      0.529454
      9.79585      5.92265     12.04421        -0.000460     -0.000232     -0.732876
      9.79585      4.44199     15.30949        -0.004287     -0.010435      0.690018
      0.00000      5.92265     15.30949        -0.000127     -0.001766     -0.751043
      0.00024      4.44223     18.50794        -0.000104      0.002762      0.045683
      9.79695      5.92302     18.69787         0.019972      0.004772      0.016892
      9.79890      4.44417     22.05645         0.108560      0.042406      0.041741
     13.06111      5.92446     21.69676        -0.000037      0.009032     -0.012942
      3.26528      7.40331      8.77892         0.000228      0.000090     -3.667294
      6.53056      8.88397      8.77892         0.000021      0.000252      3.055324
      6.53056      7.40331     12.04421        -0.000025      0.004392      0.530322
      3.26528      8.88397     12.04421         0.000774      0.000766     -0.733084
      3.26528      7.40331     15.30949         0.004256     -0.000540      0.682672
      6.53056      8.88397     15.30949        -0.000116     -0.009294     -0.727927
      6.53081      7.39688     18.52018        -0.000083      0.073860     -0.006867
      3.26510      8.88493     18.69710        -0.011863      0.004442      0.017532
      3.26324      7.40718     22.04862         0.021189      0.005936      0.100164
      6.53054      8.89217     21.68620        -0.000025     -0.154454     -0.003658
      3.26528     10.36464      8.77892         0.000316      0.000300     -3.667156
      6.53056      0.00000      8.77892         0.000012      0.000051      3.055631
      6.53056     10.36464     12.04421        -0.000041      0.002059      0.533386
      3.26528      0.00000     12.04421         0.001074      0.000295     -0.731437
      3.26528     10.36464     15.30949         0.002224      0.013420      0.690894
      6.53056      0.00000     15.30949        -0.000119      0.001803     -0.777079
      6.53081     10.36193     18.49948        -0.000088      0.004896      0.038185
      3.26575      0.00065     18.70001        -0.008936     -0.004734      0.017528
      3.26704     10.36694     22.05900        -0.030252     -0.040539      0.036517
      6.53054      0.00088     21.68799        -0.000024     -0.010084     -0.058174
      3.26528      1.48066      8.77892         0.000322     -0.000003     -3.667001
      6.53056      2.96132      8.77892         0.000013     -0.000173      3.055311
      6.53056      1.48066     12.04421        -0.000038     -0.002094      0.533334
      3.26528      2.96132     12.04421         0.000743     -0.000659     -0.731406
      3.26528      1.48066     15.30949         0.002067     -0.002329      0.698400
      6.53056      2.96132     15.30949        -0.000107      0.009441     -0.730208
      6.53081      1.48377     18.50030        -0.000082     -0.028229      0.019015
      3.26493      2.96147     18.69983        -0.016265     -0.005498      0.008241
      3.26618      1.48246     22.05839        -0.034666     -0.013288      0.020627
      6.53054      2.95660     21.68825        -0.000041     -0.163358     -0.107375
      3.26528      4.44199      8.77892         0.000208     -0.000206     -3.667171
      6.53056      5.92265      8.77892         0.000006      0.000043      3.055298
      6.53056      4.44199     12.04421        -0.000035     -0.004220      0.530222
      3.26528      5.92265     12.04421         0.000432     -0.000217     -0.732876
      3.26528      4.44199     15.30949         0.004346     -0.010422      0.690018
      6.53056      5.92265     15.30949        -0.000102     -0.001807     -0.738111
      6.53080      4.44832     18.52020        -0.000082     -0.048049     -0.029870
      3.26455      5.92302     18.69787        -0.019878      0.004786      0.016880
      3.26219      4.44417     22.05645        -0.108585      0.042404      0.041749
      6.53054      5.90939     21.73037        -0.000030      0.403225     -0.657011
      9.79585      8.88397      7.50000         0.000081     -0.000050      2.334962
      9.79585      8.88397     10.05785         0.000119     -0.000082      1.724401
      1.27892      7.40331      8.77892        -1.973131      0.000022     -0.783248
     11.78220      7.40331      8.77892         1.973169      0.000020     -0.783251
      0.00000      8.88397     10.76528         0.000020     -0.000033     -1.310672
      0.00000      8.88397     13.32313         0.000008     -0.000056     -0.171477
     11.07477      7.40331     12.04421         0.392679     -0.000004      0.055899
      1.98636      7.40331     12.04421        -0.392602     -0.000005      0.055892
      9.79585      8.88397     14.03056         0.000465     -0.002473     -0.044802
      9.79585      8.88397     16.58841         0.000054     -0.002490     -0.071367
      1.27892      7.40331     15.30949        -0.530617      0.000499      0.097593
     11.78220      7.40331     15.30949         0.530672      0.000498      0.097510
     13.06109      8.88483     17.31473         0.000034      0.000716      0.017542
     13.06110      8.88419     19.87995         0.000035      0.000740     -0.080534
     11.10373      7.40437     18.58988        -0.039394     -0.001947      0.008524
      1.95732      7.40437     18.58985         0.039364     -0.001943      0.008524
      9.80183      8.88651     20.56879        -0.006221      0.000228     -0.009662
      9.78969      8.88280     23.13777         0.018851      0.043161     -0.257777
      1.22616      7.40426     22.02185        -0.093427     -0.002167     -0.070919
     11.83493      7.40426     22.02186         0.093432     -0.002156     -0.070907
      9.79585      0.00000      7.50000         0.000058      0.000001      2.334978
      9.79585      0.00000     10.05785         0.000162     -0.000025      1.723930
      1.27892     10.36464      8.77892        -1.973157     -0.000003     -0.783277
     11.78220     10.36464      8.77892         1.973206     -0.000002     -0.783285
      0.00000      0.00000     10.76528         0.000007     -0.000007     -1.310673
      0.00000      0.00000     13.32313         0.000009     -0.000033     -0.171394
     11.07477     10.36464     12.04421         0.392758     -0.000328      0.055865
      1.98636     10.36464     12.04421        -0.392679     -0.000337      0.055860
      9.79585      0.00000     14.03056         0.000251     -0.001937     -0.047814
      9.79585      0.00000     16.58841         0.002185     -0.000221     -0.080619
      1.27892     10.36464     15.30949        -0.532217     -0.000541      0.096701
     11.78220     10.36464     15.30949         0.532277     -0.000541      0.096617
     13.06110      0.00051     17.31498         0.000031      0.000922      0.018538
     13.06110      0.00041     19.88028         0.000036      0.001216     -0.079186
     11.10356     10.36556     18.59160        -0.038136      0.000222      0.007658
      1.95750     10.36556     18.59157         0.038097      0.000211      0.007657
      9.79820      0.00086     20.57099        -0.005241      0.006754     -0.004593
      9.79776      0.00140     23.13943        -0.009642      0.014239     -0.210797
      1.22637     10.36526     22.01968        -0.090341      0.004436     -0.066769
     11.83472     10.36526     22.01968         0.090342      0.004433     -0.066749
      9.79585      2.96132      7.50000         0.000071      0.000128      2.334968
      9.79585      2.96132     10.05785         0.000116      0.000185      1.724001
      1.27892      1.48066      8.77892        -1.973173      0.000062     -0.783300
     11.78220      1.48066      8.77892         1.973203      0.000063     -0.783306
      0.00000      2.96132     10.76528         0.000009      0.000146     -1.310640
      0.00000      2.96132     13.32313         0.000010      0.000312     -0.171268
     11.07477      1.48066     12.04421         0.392835      0.000131      0.055766
      1.98636      1.48066     12.04421        -0.392758      0.000144      0.055773
      9.79585      2.96132     14.03056         0.000485      0.002613     -0.047912
      9.79585      2.96132     16.58841         0.000175      0.005540     -0.073069
      1.27892      1.48066     15.30949        -0.534123      0.000728      0.096437
     11.78220      1.48066     15.30949         0.534174      0.000724      0.096351
     13.06110      2.96139     17.31500         0.000031     -0.000993      0.018764
     13.06110      2.96261     19.88050         0.000034     -0.000637     -0.077444
     11.10372      1.48055     18.59212        -0.039073      0.002979      0.007941
      1.95733      1.48055     18.59209         0.039039      0.002983      0.007937
      9.80299      2.96009     20.57019        -0.013420      0.003115      0.000951
      9.79385      2.96448     23.13826        -0.012641     -0.001042     -0.212468
      1.22596      1.48232     22.01947        -0.083494      0.002016     -0.063353
     11.83513      1.48232     22.01947         0.083491      0.002011     -0.063333
      9.79585      5.92265      7.50000         0.000082      0.000095      2.334905
      9.79585      5.92265     10.05785         0.000112      0.000109      1.724402
      1.27892      4.44199      8.77892        -1.973132      0.000092     -0.783274
     11.78220      4.44199      8.77892         1.973187      0.000100     -0.783268
      0.00000      5.92265     10.76528         0.000013      0.000118     -1.310634
      0.00000      5.92265     13.32313         0.000010      0.000292     -0.171406
     11.07477      4.44199     12.04421         0.392742      0.000405      0.055818
      1.98636      4.44199     12.04421        -0.392660      0.000397      0.055822
      9.79585      5.92265     14.03056         0.001041      0.002282     -0.045169
      9.79585      5.92265     16.58841        -0.002368      0.001476     -0.066700
      1.27892      4.44199     15.30949        -0.532573      0.001286      0.097153
     11.78220      4.44199     15.30949         0.532627      0.001290      0.097078
     13.06109      5.92296     17.31469         0.000028     -0.000781      0.017929
     13.06110      5.92349     19.87984         0.000031     -0.000790     -0.079309
     11.10372      4.44207     18.59045        -0.040262     -0.001170      0.008501
      1.95733      4.44207     18.59042         0.040241     -0.001171      0.008494
      9.80592      5.92412     20.56889        -0.009485     -0.011885     -0.010486
      9.77724      5.92725     23.13630         0.016595     -0.060821     -0.269651
      1.22627      4.44446     22.02250        -0.082952     -0.003704     -0.066707
     11.83482      4.44446     22.02251         0.082947     -0.003704     -0.066703
      3.26528      8.88397      7.50000        -0.000098     -0.000057      2.334962
      3.26528      8.88397     10.05785        -0.000094     -0.000096      1.724412
      7.80949      7.40331      8.77892        -1.972866     -0.000088     -0.783281
      5.25164      7.40331      8.77892         1.972928     -0.000105     -0.783287
      6.53056      8.88397     10.76528         0.000015     -0.000947     -1.312110
      6.53056      8.88397     13.32313         0.000014     -0.002072     -0.178633
      4.54421      7.40331     12.04421         0.391924     -0.000233      0.055851
      8.51692      7.40331     12.04421        -0.391844     -0.000228      0.055852
      3.26528      8.88397     14.03056        -0.000476     -0.002469     -0.044792
      3.26528      8.88397     16.58841        -0.000120     -0.002484     -0.071358
      7.80949      7.40331     15.30949        -0.527376     -0.010916      0.094340
      5.25164      7.40331     15.30949         0.527437     -0.010916      0.094256
      6.53053      8.87856     17.31408         0.000049     -0.013608      0.036074
      6.53053      8.88972     19.87091         0.000043      0.001308     -0.074796
      4.57073      7.40344     18.59562        -0.015005     -0.006619      0.008684
      8.49033      7.40344     18.59560         0.014958     -0.006618      0.008681
      3.25926      8.88651     20.56879         0.006259      0.000217     -0.009667
      3.27141      8.88280     23.13777        -0.018902      0.043147     -0.257777
      7.75979      7.41744     21.99995        -0.188540     -0.175445      0.018259
      5.30130      7.41744     21.99996         0.188553     -0.175443      0.018263
      3.26528      0.00000      7.50000        -0.000068      0.000008      2.334978
      3.26528      0.00000     10.05785        -0.000133     -0.000017      1.723945
      7.80949     10.36464      8.77892        -1.972854     -0.000079     -0.783365
      5.25164     10.36464      8.77892         1.972907     -0.000086     -0.783364
      6.53056      0.00000     10.76528         0.000015      0.000033     -1.312904
      6.53056      0.00000     13.32313         0.000011      0.000010     -0.183935
      4.54421     10.36464     12.04421         0.391076     -0.000409      0.055629
      8.51692     10.36464     12.04421        -0.390986     -0.000405      0.055629
      3.26528      0.00000     14.03056        -0.000267     -0.001938     -0.047816
      3.26528      0.00000     16.58841        -0.002255     -0.000221     -0.080630
      7.80949     10.36464     15.30949        -0.527052     -0.004831      0.096944
      5.25164     10.36464     15.30949         0.527108     -0.004837      0.096853
      6.53053      0.00029     17.30996         0.000051      0.005694      0.026832
      6.53053      0.00099     19.87181         0.000046      0.004140     -0.059604
      4.57102     10.36518     18.59044        -0.025685      0.000058      0.007677
      8.49003     10.36518     18.59041         0.025659      0.000068      0.007674
      3.26289      0.00086     20.57099         0.005282      0.006761     -0.004596
      3.26333      0.00140     23.13943         0.009619      0.014239     -0.210801
      7.75918     10.37057     22.00843        -0.113658      0.004833     -0.046220
      5.30191     10.37057     22.00844         0.113661      0.004831     -0.046217
      3.26528      2.96132      7.50000        -0.000078      0.000142      2.334963
      3.26528      2.96132     10.05785        -0.000084      0.000184      1.724016
      7.80949      1.48066      8.77892        -1.972865      0.000165     -0.783351
      5.25164      1.48066      8.77892         1.972931      0.000166     -0.783340
      6.53056      2.96132     10.76528         0.000008      0.001044     -1.311971
      6.53056      2.96132     13.32313         0.000007      0.002289     -0.177570
      4.54421      1.48066     12.04421         0.391197      0.000238      0.055560
      8.51692      1.48066     12.04421        -0.391115      0.000228      0.055561
      3.26528      2.96132     14.03056        -0.000506      0.002615     -0.047922
      3.26528      2.96132     16.58841        -0.000240      0.005544     -0.073058
      7.80949      1.48066     15.30949        -0.529281      0.005201      0.096891
      5.25164      1.48066     15.30949         0.529348      0.005201      0.096796
      6.53053      2.96745     17.31439         0.000051      0.010493      0.043245
      6.53053      2.95453     19.87232         0.000034      0.013063     -0.018281
      4.57080      1.48108     18.59051        -0.021503      0.004544      0.010676
      8.49025      1.48108     18.59048         0.021466      0.004532      0.010661
      3.25810      2.96009     20.57019         0.013459      0.003106      0.000957
      3.26724      2.96448     23.13826         0.012611     -0.001053     -0.212462
      7.75881      1.47916     22.01319        -0.118726      0.032931     -0.061977
      5.30229      1.47916     22.01319         0.118711      0.032932     -0.061967
      3.26528      5.92265      7.50000        -0.000085      0.000098      2.334899
      3.26528      5.92265     10.05785        -0.000093      0.000102      1.724409
      7.80949      4.44199      8.77892        -1.972886      0.000190     -0.783268
      5.25164      4.44199      8.77892         1.972938      0.000189     -0.783269
      6.53056      5.92265     10.76528         0.000008      0.000071     -1.310742
      6.53056      5.92265     13.32313         0.000011      0.000079     -0.162775
      4.54421      4.44199     12.04421         0.392035      0.000607      0.055773
      8.51692      4.44199     12.04421        -0.391954      0.000605      0.055771
      3.26528      5.92265     14.03056        -0.001054      0.002280     -0.045166
      3.26528      5.92265     16.58841         0.002294      0.001466     -0.066698
      7.80949      4.44199     15.30949        -0.528844      0.011414      0.093305
      5.25164      4.44199     15.30949         0.528903      0.011412      0.093220
      6.53053      5.92225     17.31863         0.000045     -0.003630      0.055198
      6.53054      5.92360     19.89267         0.000033     -0.028121      0.123870
      4.57082      4.44262     18.59709        -0.012502      0.001765      0.010628
      8.49023      4.44262     18.59707         0.012457      0.001772      0.010628
      3.25517      5.92412     20.56889         0.009523     -0.011875     -0.010481
      3.28385      5.92725     23.13630        -0.016612     -0.060812     -0.269634
      7.76280      4.43033     21.98757        -0.178924      0.105934      0.108594
      5.29829      4.43033     21.98757         0.178930      0.105920      0.108603
 -----------------------------------------------------------------------------------
    total drift:                               -0.002239     -0.011071      0.134189


--------------------------------------------------------------------------------------------------------



  FREE ENERGIE OF THE ION-ELECTRON SYSTEM (eV)
  ---------------------------------------------------
  free  energy   TOTEN  =     -2709.95252039 eV

  energy  without entropy=    -2709.95252039  energy(sigma->0) =    -2709.95252039
 


--------------------------------------------------------------------------------------------------------


    POTLOK:  cpu time      1.1567: real time      1.1602


--------------------------------------------------------------------------------------------------------


     LOOP+:  cpu time   2704.5320: real time   2717.2255
    4ORBIT:  cpu time      0.0000: real time      0.0000

 total amount of memory used by VASP MPI-rank0   676514. kBytes
=======================================================================

   base      :      30000. kBytes
   nonl-proj :     395326. kBytes
   fftplans  :      41495. kBytes
   grid      :      99557. kBytes
   one-center:       1866. kBytes
   wavefun   :     108270. kBytes
 
  
  
 General timing and accounting informations for this job:
 ========================================================
  
                  Total CPU time used (sec):     2747.823
                            User time (sec):     2718.310
                          System time (sec):       29.514
                         Elapsed time (sec):     2761.469
  
                   Maximum memory used (kb):     1241584.
                   Average memory used (kb):          N/A
  
                          Minor page faults:       136797
                          Major page faults:           94
                 Voluntary context switches:         3067
