 vasp.6.3.0 20Jan22 (build Apr  1 2022 16:44:48) complex                         
 executed on        HPECrayEX_GCC date 2022.10.25  01:06:34
 running  512 mpi-ranks, with    1 threads/rank
 distrk:  each k-point on  512 cores,    1 groups
 distr:  one band on NCORE=   8 cores,   64 groups


--------------------------------------------------------------------------------------------------------


 INCAR:
   SYSTEM = MgO-rocksalt
   ISMEAR = 0
   SIGMA = 0.05
   EDIFF = 1E-6
   ALGO = ALL
   ISTART = 0
   IBRION = -1
   NSW = 0
   ISYM = 0
   DIPOL = 0.5 0.5 0.5
   IDIPOL = 3
   LDIPOL = .TRUE.
   GGA = MK
   LUSE_VDW = .TRUE.
   PARAM1 = 0.1234
   PARAM2 = 0.711357
   ZAB_VDW = -1.8867
   AGGAC = 0.0
   ENCUT = 600
   PREC = Accurate
   LASPH = .TRUE.
   LREAL = .FALSE.
   ISPIN = 1
   NELM = 200
   NELMIN = 8
   NCORE = 8
   KPAR = 1
   LWAVE = .FALSE.
   LCHARG = .FALSE.

 POTCAR:    PAW_PBE C 08Apr2002                   
 POTCAR:    PAW_PBE H 15Jun2001                   
 POTCAR:    PAW_PBE Mg_pv 13Apr2007               
 POTCAR:    PAW_PBE O 08Apr2002                   
 -----------------------------------------------------------------------------
|                                                                             |
|               ----> ADVICE to this user running VASP <----                  |
|                                                                             |
|     You have switched on vdW-DFT.                                           |
|     This routine was written and supplied by Jiri Klimes. We recommend      |
|     that you carefully read and cite the following publications:            |
|       J. Klimes, D.R. Bowler, A. Michelides                                 |
|          J. Phys.: Cond Matt. 22 022201 (2010)                              |
|       J. Klimes, D.R. Bowler, A. Michelides                                 |
|          Phys. Rev. B. 83, 195131 (2011)                                    |
|     and references therein.                                                 |
|                                                                             |
 -----------------------------------------------------------------------------

 POTCAR:    PAW_PBE C 08Apr2002                   
   SHA256 =  253f7b50bb8d59471dbedb8285d89021f4a42ed1a2c5d38a03a736e69125dd95 C/POTCAR              
   COPYR  = (c) Copyright 08Apr2002 Georg Kresse                                                    
   COPYR  = This file is part of the software VASP. Any use, copying, and all other rights are regul
   COPYR  = If you do not have a valid VASP license, you may not use, copy or distribute this file. 
   VRHFIN =C: s2p2                                                                                  
   LEXCH  = PE                                                                                      
   EATOM  =   147.1560 eV,   10.8157 Ry                                                             
                                                                                                    
   TITEL  = PAW_PBE C 08Apr2002                                                                     
   LULTRA =        F    use ultrasoft PP ?                                                          
   IUNSCR =        1    unscreen: 0-lin 1-nonlin 2-no                                               
   RPACOR =    1.200    partial core radius                                                         
   POMASS =   12.011; ZVAL   =    4.000    mass and valenz                                          
   RCORE  =    1.500    outmost cutoff radius                                                       
   RWIGS  =    1.630; RWIGS  =    0.863    wigner-seitz radius (au A)                               
   ENMAX  =  400.000; ENMIN  =  300.000 eV                                                          
   ICORE  =        2    local potential                                                             
   LCOR   =        T    correct aug charges                                                         
   LPAW   =        T    paw PP                                                                      
   EAUG   =  644.873                                                                                
   DEXC   =    0.000                                                                                
   RMAX   =    1.529    core radius for proj-oper                                                   
   RAUG   =    1.300    factor for augmentation sphere                                              
   RDEP   =    1.501    radius for radial grids                                                     
   RDEPT  =    1.300    core radius for aug-charge                                                  
                                                                                                    
   Atomic configuration                                                                             
    4 entries                                                                                       
     n  l   j            E        occ.                                                              
     1  0  0.50      -273.3789   2.0000                                                             
     2  0  0.50       -13.7508   2.0000                                                             
     2  1  0.50        -5.2854   2.0000                                                             
     3  2  1.50        -5.4423   0.0000                                                             
   Description                                                                                      
     l       E           TYP  RCUT    TYP  RCUT                                                     
     0    -13.7508458     23  1.200                                                                 
     0     -8.2022199     23  1.200                                                                 
     1     -5.2854383     23  1.500                                                                 
     1     34.0145650     23  1.500                                                                 
     2     -5.4423304      7  1.500                                                                 
  local pseudopotential read in
  partial core-charges read in
  partial kinetic energy density read in
  atomic valenz-charges read in
  non local Contribution for L=           0  read in
    real space projection operators read in
  non local Contribution for L=           0  read in
    real space projection operators read in
  non local Contribution for L=           1  read in
    real space projection operators read in
  non local Contribution for L=           1  read in
    real space projection operators read in
    PAW grid and wavefunctions read in

   number of l-projection  operators is LMAX  =           4
   number of lm-projection operators is LMMAX =           8

 POTCAR:    PAW_PBE H 15Jun2001                   
   SHA256 =  030f79b5d3ab3cf0e668861823c8fb652ff669f3e15e46930bd03bfd63a607b6 H/POTCAR              
   COPYR  = (c) Copyright 15Jun2001 Georg Kresse                                                    
   COPYR  = This file is part of the software VASP. Any use, copying, and all other rights are regul
   COPYR  = If you do not have a valid VASP license, you may not use, copy or distribute this file. 
   VRHFIN =H: ultrasoft test                                                                        
   LEXCH  = PE                                                                                      
   EATOM  =    12.4884 eV,    0.9179 Ry                                                             
                                                                                                    
   TITEL  = PAW_PBE H 15Jun2001                                                                     
   LULTRA =        F    use ultrasoft PP ?                                                          
   IUNSCR =        0    unscreen: 0-lin 1-nonlin 2-no                                               
   RPACOR =    0.000    partial core radius                                                         
   POMASS =    1.000; ZVAL   =    1.000    mass and valenz                                          
   RCORE  =    1.100    outmost cutoff radius                                                       
   RWIGS  =    0.700; RWIGS  =    0.370    wigner-seitz radius (au A)                               
   ENMAX  =  250.000; ENMIN  =  200.000 eV                                                          
   RCLOC  =    0.701    cutoff for local pot                                                        
   LCOR   =        T    correct aug charges                                                         
   LPAW   =        T    paw PP                                                                      
   EAUG   =  400.000                                                                                
   RMAX   =    1.123    core radius for proj-oper                                                   
   RAUG   =    1.200    factor for augmentation sphere                                              
   RDEP   =    1.112    radius for radial grids                                                     
   RDEPT  =    0.926    core radius for aug-charge                                                  
                                                                                                    
   Atomic configuration                                                                             
    2 entries                                                                                       
     n  l   j            E        occ.                                                              
     1  0  0.50        -6.4927   1.0000                                                             
     2  1  0.50        -3.4015   0.0000                                                             
   Description                                                                                      
     l       E           TYP  RCUT    TYP  RCUT                                                     
     0     -6.4927494     23  1.100                                                                 
     0      6.8029130     23  1.100                                                                 
     1     -4.0817478     23  1.100                                                                 
  local pseudopotential read in
  atomic valenz-charges read in
  non local Contribution for L=           0  read in
    real space projection operators read in
  non local Contribution for L=           0  read in
    real space projection operators read in
  non local Contribution for L=           1  read in
    real space projection operators read in
    PAW grid and wavefunctions read in

   number of l-projection  operators is LMAX  =           3
   number of lm-projection operators is LMMAX =           5

 POTCAR:    PAW_PBE Mg_pv 13Apr2007               
   SHA256 =  f474ac0dd33840b9ae76c01d57fea79fdf77cdfbb07d5ade72c65f83c709b62b Mg_pv/POTCAR          
   COPYR  = (c) Copyright 13Apr2007 Georg Kresse                                                    
   COPYR  = This file is part of the software VASP. Any use, copying, and all other rights are regul
   COPYR  = If you do not have a valid VASP license, you may not use, copy or distribute this file. 
   VRHFIN =Mg: p6s2                                                                                 
   LEXCH  = PE                                                                                      
   EATOM  =  1056.7344 eV,   77.6678 Ry                                                             
                                                                                                    
   TITEL  = PAW_PBE Mg_pv 13Apr2007                                                                 
   LULTRA =        F    use ultrasoft PP ?                                                          
   IUNSCR =        1    unscreen: 0-lin 1-nonlin 2-no                                               
   RPACOR =    1.500    partial core radius                                                         
   POMASS =   24.305; ZVAL   =    8.000    mass and valenz                                          
   RCORE  =    2.000    outmost cutoff radius                                                       
   RWIGS  =    2.000; RWIGS  =    1.058    wigner-seitz radius (au A)                               
   ENMAX  =  403.929; ENMIN  =  302.947 eV                                                          
   RCLOC  =    1.506    cutoff for local pot                                                        
   LCOR   =        T    correct aug charges                                                         
   LPAW   =        T    paw PP                                                                      
   EAUG   =  758.780                                                                                
   DEXC   =    0.000                                                                                
   RMAX   =    2.045    core radius for proj-oper                                                   
   RAUG   =    1.300    factor for augmentation sphere                                              
   RDEP   =    2.025    radius for radial grids                                                     
   RDEPT  =    1.557    core radius for aug-charge                                                  
                                                                                                    
   Atomic configuration                                                                             
    5 entries                                                                                       
     n  l   j            E        occ.                                                              
     1  0  0.50     -1259.6230   2.0000                                                             
     2  0  0.50       -79.8442   2.0000                                                             
     2  1  1.50       -46.6121   6.0000                                                             
     3  0  0.50        -4.7055   2.0000                                                             
     3  2  1.50        -1.3606   0.0000                                                             
   Description                                                                                      
     l       E           TYP  RCUT    TYP  RCUT                                                     
     1    -46.6121073     23  1.600                                                                 
     1      2.7211652     23  1.600                                                                 
     0     -4.7054661     23  2.000                                                                 
     0     61.2262170     23  2.000                                                                 
     2     -1.3605826     23  2.000                                                                 
  local pseudopotential read in
  partial core-charges read in
  partial kinetic energy density read in
  atomic valenz-charges read in
  non local Contribution for L=           1  read in
    real space projection operators read in
  non local Contribution for L=           1  read in
    real space projection operators read in
  non local Contribution for L=           0  read in
    real space projection operators read in
  non local Contribution for L=           0  read in
    real space projection operators read in
  non local Contribution for L=           2  read in
    real space projection operators read in
    PAW grid and wavefunctions read in

   number of l-projection  operators is LMAX  =           5
   number of lm-projection operators is LMMAX =          13

 POTCAR:    PAW_PBE O 08Apr2002                   
   SHA256 =  818f92134a0a090dccd8ba1447fa70422a3b330e708bb4f08108d8ae51209ddf O/POTCAR              
   COPYR  = (c) Copyright 08Apr2002 Georg Kresse                                                    
   COPYR  = This file is part of the software VASP. Any use, copying, and all other rights are regul
   COPYR  = If you do not have a valid VASP license, you may not use, copy or distribute this file. 
   VRHFIN =O: s2p4                                                                                  
   LEXCH  = PE                                                                                      
   EATOM  =   432.3788 eV,   31.7789 Ry                                                             
                                                                                                    
   TITEL  = PAW_PBE O 08Apr2002                                                                     
   LULTRA =        F    use ultrasoft PP ?                                                          
   IUNSCR =        1    unscreen: 0-lin 1-nonlin 2-no                                               
   RPACOR =    1.200    partial core radius                                                         
   POMASS =   16.000; ZVAL   =    6.000    mass and valenz                                          
   RCORE  =    1.520    outmost cutoff radius                                                       
   RWIGS  =    1.550; RWIGS  =    0.820    wigner-seitz radius (au A)                               
   ENMAX  =  400.000; ENMIN  =  300.000 eV                                                          
   ICORE  =        2    local potential                                                             
   LCOR   =        T    correct aug charges                                                         
   LPAW   =        T    paw PP                                                                      
   EAUG   =  605.392                                                                                
   DEXC   =    0.000                                                                                
   RMAX   =    1.553    core radius for proj-oper                                                   
   RAUG   =    1.300    factor for augmentation sphere                                              
   RDEP   =    1.550    radius for radial grids                                                     
   RDEPT  =    1.329    core radius for aug-charge                                                  
                                                                                                    
   Atomic configuration                                                                             
    4 entries                                                                                       
     n  l   j            E        occ.                                                              
     1  0  0.50      -514.6923   2.0000                                                             
     2  0  0.50       -23.9615   2.0000                                                             
     2  1  0.50        -9.0305   4.0000                                                             
     3  2  1.50        -9.5241   0.0000                                                             
   Description                                                                                      
     l       E           TYP  RCUT    TYP  RCUT                                                     
     0    -23.9615318     23  1.200                                                                 
     0     -9.5240782     23  1.200                                                                 
     1     -9.0304911     23  1.520                                                                 
     1      8.1634956     23  1.520                                                                 
     2     -9.5240782      7  1.500                                                                 
  local pseudopotential read in
  partial core-charges read in
  partial kinetic energy density read in
  kinetic energy density of atom read in
  atomic valenz-charges read in
  non local Contribution for L=           0  read in
    real space projection operators read in
  non local Contribution for L=           0  read in
    real space projection operators read in
  non local Contribution for L=           1  read in
    real space projection operators read in
  non local Contribution for L=           1  read in
    real space projection operators read in
    PAW grid and wavefunctions read in

   number of l-projection  operators is LMAX  =           4
   number of lm-projection operators is LMMAX =           8

 -----------------------------------------------------------------------------
|                                                                             |
|               ----> ADVICE to this user running VASP <----                  |
|                                                                             |
|     You have a (more or less) 'large supercell' and for larger cells it     |
|     might be more efficient to use real-space projection operators.         |
|     Therefore, try LREAL= Auto in the INCAR file.                           |
|     Mind: For very accurate calculation, you might also keep the            |
|     reciprocal projection scheme (i.e. LREAL=.FALSE.).                      |
|                                                                             |
 -----------------------------------------------------------------------------

 -----------------------------------------------------------------------------
|                                                                             |
|               ----> ADVICE to this user running VASP <----                  |
|                                                                             |
|     You enforced a specific xc type in the INCAR file but a different       |
|     type was found in the POTCAR file.                                      |
|     I HOPE YOU KNOW WHAT YOU ARE DOING!                                     |
|                                                                             |
 -----------------------------------------------------------------------------

  PAW_PBE C 08Apr2002                   :
 energy of atom  1       EATOM= -147.1560
 kinetic energy error for atom=    0.0057 (will be added to EATOM!!)
  PAW_PBE H 15Jun2001                   :
 energy of atom  2       EATOM=  -12.4884
 kinetic energy error for atom=    0.0004 (will be added to EATOM!!)
  PAW_PBE Mg_pv 13Apr2007               :
 energy of atom  3       EATOM=-1056.7344
 kinetic energy error for atom=    0.0221 (will be added to EATOM!!)
  PAW_PBE O 08Apr2002                   :
 energy of atom  4       EATOM= -432.3788
 kinetic energy error for atom=    0.0168 (will be added to EATOM!!)


 POSCAR:  C  H Mg  O
  positions in direct lattice
  No initial velocities read in
 exchange correlation table for  LEXCH =       43
   RHO(1)=    0.500       N(1)  =     2000
   RHO(2)=  100.500       N(2)  =     4000



--------------------------------------------------------------------------------------------------------


 ion  position               nearest neighbor table
   1  0.500  0.500  0.791-   3 1.09   2 1.09   5 1.09   4 1.09
   2  0.500  0.607  0.820-   1 1.09
   3  0.500  0.393  0.820-   1 1.09
   4  0.608  0.500  0.762-   1 1.09
   5  0.392  0.500  0.762-   1 1.09
   6  0.250  0.000  0.353-  40 2.09  41 2.09  48 2.09  57 2.09  38 2.09
   7  0.500  0.250  0.353-  40 2.09  41 2.09  49 2.09  56 2.09  39 2.09
   8  0.250  0.250  0.451-  38 2.09  39 2.09  46 2.09  55 2.09  40 2.09  44 2.09
   9  0.500  0.000  0.451-  38 2.09  39 2.09  47 2.09  54 2.09  41 2.09  45 2.09
  10  0.250  0.000  0.550-  45 2.09  61 2.09  44 2.09  52 2.09  38 2.10  42 2.12
  11  0.500  0.250  0.550-  53 2.09  44 2.09  60 2.09  45 2.09  39 2.10  43 2.12
  12  0.250  0.250  0.647-  44 2.08  42 2.09  43 2.09  59 2.09  50 2.09
  13  0.500  0.000  0.647-  45 2.08  51 2.09  43 2.09  42 2.09  58 2.09
  14  0.250  0.500  0.353-  40 2.09  48 2.09  49 2.09  65 2.09  46 2.09
  15  0.500  0.750  0.353-  41 2.09  48 2.09  49 2.09  64 2.09  47 2.09
  16  0.250  0.750  0.451-  38 2.09  46 2.09  47 2.09  63 2.09  48 2.09  52 2.09
  17  0.500  0.500  0.451-  39 2.09  46 2.09  47 2.09  62 2.09  49 2.09  53 2.10
  18  0.250  0.500  0.550-  53 2.09  44 2.09  52 2.09  69 2.09  46 2.10  50 2.12
  19  0.500  0.750  0.550-  53 2.09  68 2.09  52 2.09  45 2.09  47 2.10  51 2.12
  20  0.250  0.750  0.647-  52 2.08  42 2.09  51 2.09  67 2.09  50 2.09
  21  0.500  0.500  0.648-  43 2.09  51 2.09  66 2.09  50 2.09  53 2.09
  22  0.750  0.000  0.353-  41 2.09  56 2.09  57 2.09  64 2.09  54 2.09
  23  0.000  0.250  0.353-  40 2.09  56 2.09  57 2.09  65 2.09  55 2.09
  24  0.750  0.250  0.451-  39 2.09  54 2.09  55 2.09  62 2.09  56 2.09  60 2.09
  25  0.000  0.000  0.451-  38 2.09  54 2.09  55 2.09  63 2.09  57 2.09  61 2.10
  26  0.750  0.000  0.550-  45 2.09  61 2.09  60 2.09  68 2.09  54 2.10  58 2.12
  27  1.000  0.250  0.550-  60 2.09  44 2.09  61 2.09  69 2.09  55 2.10  59 2.12
  28  0.750  0.250  0.647-  60 2.08  58 2.09  43 2.09  59 2.09  66 2.09
  29  1.000  1.000  0.647-  61 2.08  67 2.09  59 2.09  58 2.09  42 2.09
  30  0.750  0.500  0.353-  49 2.09  56 2.09  64 2.09  65 2.09  62 2.09
  31  0.000  0.750  0.353-  48 2.09  57 2.09  64 2.09  65 2.09  63 2.09
  32  0.750  0.750  0.451-  47 2.09  54 2.09  62 2.09  63 2.09  64 2.09  68 2.09
  33  0.000  0.500  0.451-  46 2.09  55 2.09  62 2.09  63 2.09  65 2.09  69 2.10
  34  0.750  0.500  0.550-  53 2.09  60 2.09  68 2.09  69 2.09  62 2.10  66 2.12
  35  1.000  0.750  0.550-  68 2.09  52 2.09  61 2.09  69 2.09  63 2.10  67 2.12
  36  0.750  0.750  0.647-  68 2.08  58 2.09  51 2.09  67 2.09  66 2.09
  37  1.000  0.500  0.647-  69 2.08  50 2.08  66 2.08  67 2.09  59 2.09
  38  0.250  0.000  0.451-   8 2.09   9 2.09  16 2.09  25 2.09   6 2.09  10 2.10
  39  0.500  0.250  0.451-   8 2.09   9 2.09  17 2.09  24 2.09   7 2.09  11 2.10
  40  0.250  0.250  0.353-   6 2.09   7 2.09  14 2.09  23 2.09   8 2.09
  41  0.500  0.000  0.353-   6 2.09   7 2.09  15 2.09  22 2.09   9 2.09
  42  0.250  0.000  0.650-  12 2.09  20 2.09  29 2.09  13 2.09  10 2.12
  43  0.500  0.250  0.649-  13 2.09  12 2.09  28 2.09  21 2.09  11 2.12
  44  0.250  0.250  0.549-  12 2.08  27 2.09  18 2.09  10 2.09  11 2.09   8 2.09
  45  0.500  0.000  0.549-  13 2.08  26 2.09  10 2.09  11 2.09  19 2.09   9 2.09
  46  0.250  0.500  0.451-   8 2.09  16 2.09  17 2.09  33 2.09  14 2.09  18 2.10
  47  0.500  0.750  0.451-   9 2.09  16 2.09  17 2.09  32 2.09  15 2.09  19 2.10
  48  0.250  0.750  0.353-   6 2.09  14 2.09  15 2.09  31 2.09  16 2.09
  49  0.500  0.500  0.353-   7 2.09  14 2.09  15 2.09  30 2.09  17 2.09
  50  0.250  0.500  0.650-  37 2.08  12 2.09  20 2.09  21 2.09  18 2.12
  51  0.500  0.750  0.649-  13 2.09  20 2.09  36 2.09  21 2.09  19 2.12
  52  0.250  0.750  0.549-  20 2.08  35 2.09  18 2.09  10 2.09  19 2.09  16 2.09
  53  0.500  0.500  0.550-  11 2.09  19 2.09  18 2.09  34 2.09  21 2.09  17 2.10
  54  0.750  0.000  0.451-   9 2.09  24 2.09  25 2.09  32 2.09  22 2.09  26 2.10
  55  0.000  0.250  0.451-   8 2.09  24 2.09  25 2.09  33 2.09  23 2.09  27 2.10
  56  0.750  0.250  0.353-   7 2.09  22 2.09  23 2.09  30 2.09  24 2.09
  57  0.000  0.000  0.353-   6 2.09  22 2.09  23 2.09  31 2.09  25 2.09
  58  0.750  0.000  0.650-  28 2.09  36 2.09  29 2.09  13 2.09  26 2.12
  59  1.000  0.250  0.650-  29 2.09  28 2.09  12 2.09  37 2.09  27 2.12
  60  0.750  0.250  0.549-  28 2.08  27 2.09  34 2.09  26 2.09  11 2.09  24 2.09
  61  1.000  0.000  0.549-  29 2.08  27 2.09  35 2.09  26 2.09  10 2.09  25 2.10
  62  0.750  0.500  0.451-  17 2.09  24 2.09  32 2.09  33 2.09  30 2.09  34 2.10
  63  0.000  0.750  0.451-  16 2.09  25 2.09  32 2.09  33 2.09  31 2.09  35 2.10
  64  0.750  0.750  0.353-  15 2.09  22 2.09  30 2.09  31 2.09  32 2.09
  65  0.000  0.500  0.353-  14 2.09  23 2.09  30 2.09  31 2.09  33 2.09
  66  0.750  0.500  0.650-  37 2.08  28 2.09  36 2.09  21 2.09  34 2.12
  67  1.000  0.750  0.650-  29 2.09  36 2.09  20 2.09  37 2.09  35 2.12
  68  0.750  0.750  0.549-  36 2.08  35 2.09  34 2.09  26 2.09  19 2.09  32 2.09
  69  1.000  0.500  0.549-  37 2.08  27 2.09  35 2.09  34 2.09  18 2.09  33 2.10


IMPORTANT INFORMATION: All symmetrisations will be switched off!
NOSYMM: (Re-)initialisation of all symmetry stuff for point group C_1.


----------------------------------------------------------------------------------------

                                     Primitive cell                                     

  volume of cell :    1482.1129

  direct lattice vectors                    reciprocal lattice vectors
     8.349111827  0.000000000  0.000000000     0.119773219  0.000000000  0.000000000
     0.000000000  8.349111827  0.000000000     0.000000000  0.119773219  0.000000000
     0.000000000  0.000000000 21.261833870     0.000000000  0.000000000  0.047032632

  length of vectors
     8.349111827  8.349111827 21.261833870     0.119773219  0.119773219  0.047032632

  position of ions in fractional coordinates (direct lattice)
     0.499999845  0.499999895  0.790985147
     0.500000026  0.606873873  0.820340115
     0.500000007  0.393126242  0.820340086
     0.607710071  0.500000027  0.761840837
     0.392290109  0.500000032  0.761840868
     0.250000000  0.000000000  0.352744737
     0.500000000  0.250000000  0.352744737
     0.250000000  0.250000000  0.450914912
     0.500000000  0.000000000  0.450914912
     0.250002059  0.000000021  0.549701940
     0.499999985  0.250125161  0.549775393
     0.250052983  0.249810988  0.647256905
     0.499999998  0.000000017  0.647286844
     0.250000000  0.500000000  0.352744737
     0.500000000  0.750000000  0.352744737
     0.250000000  0.750000000  0.450914912
     0.500000000  0.500000000  0.450914912
     0.250118172  0.499999977  0.549775604
     0.500000000  0.749874868  0.549775364
     0.250053002  0.750189031  0.647256894
     0.500000008  0.499999949  0.647956803
     0.750000000  0.000000000  0.352744737
     0.000000000  0.250000000  0.352744737
     0.750000000  0.250000000  0.450914912
     0.000000000  0.000000000  0.450914912
     0.749997956  0.000000020  0.549701949
     0.999999991  0.249987696  0.549722026
     0.749947068  0.249810996  0.647256912
     0.999999968  0.999999984  0.647396083
     0.750000000  0.500000000  0.352744737
     0.000000000  0.750000000  0.352744737
     0.750000000  0.750000000  0.450914912
     0.000000000  0.500000000  0.450914912
     0.749881839  0.499999992  0.549775619
     0.999999987  0.750012315  0.549721997
     0.749947072  0.750189020  0.647256912
     0.999999997  0.500000019  0.647300533
     0.250000000  0.000000000  0.450914912
     0.500000000  0.250000000  0.450914912
     0.250000000  0.250000000  0.352744737
     0.500000000  0.000000000  0.352744737
     0.249940563  0.000000012  0.649608281
     0.500000000  0.249734324  0.649381278
     0.249916718  0.250009585  0.549418272
     0.500000016  0.000000041  0.549347396
     0.250000000  0.500000000  0.450914912
     0.500000000  0.750000000  0.450914912
     0.250000000  0.750000000  0.352744737
     0.500000000  0.500000000  0.352744737
     0.249632364  0.499999972  0.649687261
     0.499999991  0.750265729  0.649381281
     0.249916704  0.749990416  0.549418280
     0.500000002  0.499999951  0.549569470
     0.750000000  0.000000000  0.450914912
     0.000000000  0.250000000  0.450914912
     0.750000000  0.250000000  0.352744737
     0.000000000  0.000000000  0.352744737
     0.750059501  0.000000017  0.649608277
     0.999999995  0.249924609  0.649612784
     0.750083283  0.250009563  0.549418263
     0.999999989  0.000000014  0.549473329
     0.750000000  0.500000000  0.450914912
     0.000000000  0.750000000  0.450914912
     0.750000000  0.750000000  0.352744737
     0.000000000  0.500000000  0.352744737
     0.750367624  0.499999984  0.649687255
     0.999999980  0.750075386  0.649612778
     0.750083279  0.749990421  0.549418288
     0.999999990  0.499999963  0.549448751

  ion indices of the primitive-cell ions
   primitive index   ion index
                 1           1
                 2           2
                 3           3
                 4           4
                 5           5
                 6           6
                 7           7
                 8           8
                 9           9
                10          10
                11          11
                12          12
                13          13
                14          14
                15          15
                16          16
                17          17
                18          18
                19          19
                20          20
                21          21
                22          22
                23          23
                24          24
                25          25
                26          26
                27          27
                28          28
                29          29
                30          30
                31          31
                32          32
                33          33
                34          34
                35          35
                36          36
                37          37
                38          38
                39          39
                40          40
                41          41
                42          42
                43          43
                44          44
                45          45
                46          46
                47          47
                48          48
                49          49
                50          50
                51          51
                52          52
                53          53
                54          54
                55          55
                56          56
                57          57
                58          58
                59          59
                60          60
                61          61
                62          62
                63          63
                64          64
                65          65
                66          66
                67          67
                68          68
                69          69

----------------------------------------------------------------------------------------



 KPOINTS: pymatgen v2020.8.13 with grid density = 

Automatic generation of k-mesh.
 Grid dimensions read from file:
 generate k-points for:    2    2    1

 Generating k-lattice:

  Cartesian coordinates                     Fractional coordinates (reciprocal lattice)
     0.059886610  0.000000000  0.000000000     0.500000000  0.000000000  0.000000000
     0.000000000  0.059886610  0.000000000     0.000000000  0.500000000  0.000000000
     0.000000000  0.000000000  0.047032632     0.000000000  0.000000000  1.000000000

  Length of vectors
     0.059886610  0.059886610  0.047032632

  Shift w.r.t. Gamma in fractional coordinates (k-lattice)
     0.000000000  0.000000000  0.000000000

 
 Subroutine IBZKPT returns following result:
 ===========================================
 
 Found      4 irreducible k-points:
 
 Following reciprocal coordinates:
            Coordinates               Weight
  0.000000  0.000000  0.000000      1.000000
  0.500000  0.000000  0.000000      1.000000
  0.000000  0.500000  0.000000      1.000000
  0.500000  0.500000  0.000000      1.000000
 
 Following cartesian coordinates:
            Coordinates               Weight
  0.000000  0.000000  0.000000      1.000000
  0.059887  0.000000  0.000000      1.000000
  0.000000  0.059887  0.000000      1.000000
  0.059887  0.059887  0.000000      1.000000
 


--------------------------------------------------------------------------------------------------------




 Dimension of arrays:
   k-points           NKPTS =      4   k-points in BZ     NKDIM =      4   number of bands    NBANDS=    320
   number of dos      NEDOS =    301   number of ions     NIONS =     69
   non local maximal  LDIM  =      5   non local SUM 2l+1 LMDIM =     13
   total plane-waves  NPLWV = 882000
   max r-space proj   IRMAX =      1   max aug-charges    IRDMAX=  11926
   dimension x,y,z NGX =    70 NGY =   70 NGZ =  180
   dimension x,y,z NGXF=   140 NGYF=  140 NGZF=  360
   support grid    NGXF=   140 NGYF=  140 NGZF=  360
   ions per type =               1   4  32  32
   NGX,Y,Z   is equivalent  to a cutoff of  13.94, 13.94, 14.07 a.u.
   NGXF,Y,Z  is equivalent  to a cutoff of  27.88, 27.88, 28.15 a.u.

 SYSTEM =  MgO-rocksalt                            
 POSCAR =   C  H Mg  O                             

--------------------------------------------------------------------------------------------------------


  energy-cutoff  :      600.00
  volume of cell :     1482.11
      direct lattice vectors                 reciprocal lattice vectors
     8.349111827  0.000000000  0.000000000     0.119773219  0.000000000  0.000000000
     0.000000000  8.349111827  0.000000000     0.000000000  0.119773219  0.000000000
     0.000000000  0.000000000 21.261833870     0.000000000  0.000000000  0.047032632

  length of vectors
     8.349111827  8.349111827 21.261833870     0.119773219  0.119773219  0.047032632



 k-points in units of 2pi/SCALE and weight: pymatgen v2020.8.13 with grid density = 
   0.00000000  0.00000000  0.00000000       0.250
   0.05988661  0.00000000  0.00000000       0.250
   0.00000000  0.05988661  0.00000000       0.250
   0.05988661  0.05988661  0.00000000       0.250

 k-points in reciprocal lattice and weights: pymatgen v2020.8.13 with grid density = 
   0.00000000  0.00000000  0.00000000       0.250
   0.50000000  0.00000000  0.00000000       0.250
   0.00000000  0.50000000  0.00000000       0.250
   0.50000000  0.50000000  0.00000000       0.250

 position of ions in fractional coordinates (direct lattice) 
   0.49999984  0.49999990  0.79098515
   0.50000003  0.60687387  0.82034011
   0.50000001  0.39312624  0.82034009
   0.60771007  0.50000003  0.76184084
   0.39229011  0.50000003  0.76184087
   0.25000000  0.00000000  0.35274474
   0.50000000  0.25000000  0.35274474
   0.25000000  0.25000000  0.45091491
   0.50000000  0.00000000  0.45091491
   0.25000206  0.00000002  0.54970194
   0.49999999  0.25012516  0.54977539
   0.25005298  0.24981099  0.64725690
   0.50000000  0.00000002  0.64728684
   0.25000000  0.50000000  0.35274474
   0.50000000  0.75000000  0.35274474
   0.25000000  0.75000000  0.45091491
   0.50000000  0.50000000  0.45091491
   0.25011817  0.49999998  0.54977560
   0.50000000  0.74987487  0.54977536
   0.25005300  0.75018903  0.64725689
   0.50000001  0.49999995  0.64795680
   0.75000000  0.00000000  0.35274474
   0.00000000  0.25000000  0.35274474
   0.75000000  0.25000000  0.45091491
   0.00000000  0.00000000  0.45091491
   0.74999796  0.00000002  0.54970195
   0.99999999  0.24998770  0.54972203
   0.74994707  0.24981100  0.64725691
   0.99999997  0.99999998  0.64739608
   0.75000000  0.50000000  0.35274474
   0.00000000  0.75000000  0.35274474
   0.75000000  0.75000000  0.45091491
   0.00000000  0.50000000  0.45091491
   0.74988184  0.49999999  0.54977562
   0.99999999  0.75001232  0.54972200
   0.74994707  0.75018902  0.64725691
   1.00000000  0.50000002  0.64730053
   0.25000000  0.00000000  0.45091491
   0.50000000  0.25000000  0.45091491
   0.25000000  0.25000000  0.35274474
   0.50000000  0.00000000  0.35274474
   0.24994056  0.00000001  0.64960828
   0.50000000  0.24973432  0.64938128
   0.24991672  0.25000959  0.54941827
   0.50000002  0.00000004  0.54934740
   0.25000000  0.50000000  0.45091491
   0.50000000  0.75000000  0.45091491
   0.25000000  0.75000000  0.35274474
   0.50000000  0.50000000  0.35274474
   0.24963236  0.49999997  0.64968726
   0.49999999  0.75026573  0.64938128
   0.24991670  0.74999042  0.54941828
   0.50000000  0.49999995  0.54956947
   0.75000000  0.00000000  0.45091491
   0.00000000  0.25000000  0.45091491
   0.75000000  0.25000000  0.35274474
   0.00000000  0.00000000  0.35274474
   0.75005950  0.00000002  0.64960828
   1.00000000  0.24992461  0.64961278
   0.75008328  0.25000956  0.54941826
   0.99999999  0.00000001  0.54947333
   0.75000000  0.50000000  0.45091491
   0.00000000  0.75000000  0.45091491
   0.75000000  0.75000000  0.35274474
   0.00000000  0.50000000  0.35274474
   0.75036762  0.49999998  0.64968726
   0.99999998  0.75007539  0.64961278
   0.75008328  0.74999042  0.54941829
   0.99999999  0.49999996  0.54944875

 position of ions in cartesian coordinates  (Angst):
   4.17455462  4.17455504 16.81779478
   4.17455613  5.06685783 17.44193524
   4.17455597  3.28225496 17.44193462
   5.07383934  4.17455613 16.19813332
   3.27527399  4.17455618 16.19813396
   2.08727796  0.00000000  7.50000000
   4.17455591  2.08727796  7.50000000
   2.08727796  2.08727796  9.58727796
   4.17455591  0.00000000  9.58727796
   2.08729515  0.00000018 11.68767132
   4.17455579  2.08832294 11.68923308
   2.08772032  2.08569988 13.76186878
   4.17455590  0.00000014 13.76250534
   2.08727796  4.17455591  7.50000000
   4.17455591  6.26183387  7.50000000
   2.08727796  6.26183387  9.58727796
   4.17455591  4.17455591  9.58727796
   2.08826458  4.17455572 11.68923756
   4.17455591  6.26078913 11.68923246
   2.08772048  6.26341211 13.76186856
   4.17455598  4.17455549 13.77674991
   6.26183387  0.00000000  7.50000000
   0.00000000  2.08727796  7.50000000
   6.26183387  2.08727796  9.58727796
   0.00000000  0.00000000  9.58727796
   6.26181681  0.00000017 11.68767152
   8.34911175  2.08717523 11.68809840
   6.26139194  2.08569994 13.76186893
   8.34911156  8.34911169 13.76482796
   6.26183387  4.17455591  7.50000000
   0.00000000  6.26183387  7.50000000
   6.26183387  6.26183387  9.58727796
   0.00000000  4.17455591  9.58727796
   6.26084733  4.17455585 11.68923788
   8.34911172  6.26193669 11.68809779
   6.26139197  6.26341202 13.76186893
   8.34911180  4.17455607 13.76279640
   2.08727796  0.00000000  9.58727796
   4.17455591  2.08727796  9.58727796
   2.08727796  2.08727796  7.50000000
   4.17455591  0.00000000  7.50000000
   2.08678171  0.00000010 13.81186335
   4.17455592  2.08505980 13.80703685
   2.08658262  2.08735798 11.68164002
   4.17455605  0.00000034 11.68013307
   2.08727796  4.17455591  9.58727796
   4.17455591  6.26183387  9.58727796
   2.08727796  6.26183387  7.50000000
   4.17455591  4.17455591  7.50000000
   2.08420852  4.17455568 13.81354261
   4.17455584  6.26405247 13.80703691
   2.08658251  6.26175385 11.68164019
   4.17455593  4.17455551 11.68485476
   6.26183387  0.00000000  9.58727796
   0.00000000  2.08727796  9.58727796
   6.26183387  2.08727796  7.50000000
   0.00000000  0.00000000  7.50000000
   6.26233065  0.00000014 13.81186327
   8.34911179  2.08664851 13.81195909
   6.26252921  2.08735780 11.68163983
   8.34911173  0.00000011 11.68281064
   6.26183387  4.17455591  9.58727796
   0.00000000  6.26183387  9.58727796
   6.26183387  6.26183387  7.50000000
   0.00000000  4.17455591  7.50000000
   6.26490320  4.17455578 13.81354248
   8.34911166  6.26246327 13.81195897
   6.26252917  6.26175390 11.68164037
   8.34911174  4.17455561 11.68228806



--------------------------------------------------------------------------------------------------------

--------------------------------------- Iteration      FINAL  ---------------------------------------


--------------------OUTCAR has been truncated-------------------------


--------------------OUTCAR has been truncated-------------------------


--------------------OUTCAR has been truncated-------------------------


--------------------OUTCAR has been truncated-------------------------


--------------------OUTCAR has been truncated-------------------------


--------------------OUTCAR has been truncated-------------------------


--------------------OUTCAR has been truncated-------------------------


--------------------OUTCAR has been truncated-------------------------


--------------------OUTCAR has been truncated-------------------------


--------------------OUTCAR has been truncated-------------------------


  FORCE on cell =-STRESS in cart. coord.  units (eV):
  Direction    XX          YY          ZZ          XY          YZ          ZX
  --------------------------------------------------------------------------------------
  Alpha Z   922.87098   922.87098   922.87098
  Ewald  163555.29303163552.19122************     0.00001    -0.00004     0.00019
  Hartree173667.48098173665.74903************     0.00001     0.00008     0.00000
  E(xc)   -2487.66855 -2487.68215 -2487.89420     0.00000    -0.00000     0.00000
  Local  ************************347480.44549    -0.00001    -0.00009    -0.00012
  n-local -2846.15808 -2846.14928 -2866.09663     0.00000     0.00000    -0.00001
  augment  1051.23191  1051.23416  1041.66647    -0.00000     0.00000    -0.00000
  Kinetic  7426.54750  7426.61455  7462.29080    -0.00000     0.00001    -0.00002
  Fock        0.00000     0.00000     0.00000     0.00000     0.00000     0.00000
  -------------------------------------------------------------------------------------
  Total      -9.89843    -9.88514    12.06427     0.00000    -0.00004     0.00004
  in kB     -10.70029   -10.68593    13.04158     0.00000    -0.00004     0.00005
  external pressure =       -2.78 kB  Pullay stress =        0.00 kB


 VOLUME and BASIS-vectors are now :
 -----------------------------------------------------------------------------
  energy-cutoff  :      600.00
  volume of cell :     1482.11
      direct lattice vectors                 reciprocal lattice vectors
     8.349111827  0.000000000  0.000000000     0.119773219  0.000000000  0.000000000
     0.000000000  8.349111827  0.000000000     0.000000000  0.119773219  0.000000000
     0.000000000  0.000000000 21.261833870     0.000000000  0.000000000  0.047032632

  length of vectors
     8.349111827  8.349111827 21.261833870     0.119773219  0.119773219  0.047032632


 FORCES acting on ions:
    Electron-Ion                     Ewald-Force                    Non-Local-Force
 -----------------------------------------------------------------------------------------------
   -.526E-04 -.465E-04 -.974E+03   0.971E-04 0.781E-04 0.974E+03   0.626E-04 0.441E-04 -.116E+00
   -.632E-04 -.433E+02 -.241E+03   0.677E-04 0.481E+02 0.244E+03   -.950E-05 -.466E+01 -.325E+01
   -.552E-04 0.433E+02 -.241E+03   0.599E-04 -.481E+02 0.244E+03   -.845E-05 0.466E+01 -.325E+01
   -.435E+02 -.510E-04 -.247E+03   0.484E+02 0.549E-04 0.243E+03   -.472E+01 -.665E-05 0.311E+01
   0.435E+02 -.550E-04 -.247E+03   -.484E+02 0.586E-04 0.243E+03   0.472E+01 -.711E-05 0.311E+01
   0.143E+00 0.771E-05 0.213E+04   -.143E+00 -.471E-05 -.213E+04   -.252E-03 -.459E-06 -.684E+01
   0.161E-05 0.127E+00 0.213E+04   0.101E-05 -.126E+00 -.213E+04   0.379E-05 -.102E-02 -.684E+01
   0.579E+00 0.521E+00 0.729E+03   -.575E+00 -.516E+00 -.730E+03   -.244E-02 -.360E-02 0.464E+00
   0.377E-05 0.314E-04 0.729E+03   0.566E-06 -.249E-04 -.730E+03   -.763E-06 -.534E-05 0.421E+00
   0.242E+01 0.133E-03 -.669E+03   -.240E+01 -.127E-03 0.669E+03   -.119E-01 -.105E-04 -.169E+00
   -.490E-04 0.395E+01 -.663E+03   0.519E-04 -.393E+01 0.663E+03   0.280E-06 -.228E-01 -.342E+00
   0.151E+02 0.153E+02 -.205E+04   -.151E+02 -.154E+02 0.204E+04   -.253E-01 0.652E-01 0.580E+01
   -.955E-04 0.859E-04 -.206E+04   0.889E-04 -.926E-04 0.205E+04   0.816E-05 0.619E-05 0.578E+01
   0.150E+00 -.529E-05 0.213E+04   -.149E+00 0.518E-05 -.213E+04   -.125E-02 0.506E-06 -.684E+01
   0.529E-05 -.127E+00 0.213E+04   0.137E-05 0.126E+00 -.213E+04   0.159E-05 0.101E-02 -.684E+01
   0.579E+00 -.521E+00 0.729E+03   -.575E+00 0.516E+00 -.730E+03   -.244E-02 0.361E-02 0.464E+00
   -.144E-04 -.467E-04 0.730E+03   0.182E-04 0.397E-04 -.730E+03   -.490E-06 0.455E-05 0.496E+00
   0.396E+01 -.194E-03 -.663E+03   -.395E+01 0.187E-03 0.664E+03   -.208E-01 0.958E-05 -.205E+00
   0.189E-04 -.395E+01 -.663E+03   -.123E-04 0.393E+01 0.663E+03   -.820E-05 0.228E-01 -.342E+00
   0.151E+02 -.153E+02 -.205E+04   -.151E+02 0.154E+02 0.204E+04   -.253E-01 -.652E-01 0.580E+01
   0.349E-04 -.354E-03 -.200E+04   -.307E-04 0.345E-03 0.199E+04   -.266E-05 0.145E-04 0.572E+01
   -.143E+00 0.256E-05 0.213E+04   0.143E+00 -.540E-05 -.213E+04   0.249E-03 -.880E-06 -.684E+01
   0.826E-06 0.120E+00 0.213E+04   -.388E-06 -.120E+00 -.213E+04   -.116E-05 0.436E-05 -.684E+01
   -.579E+00 0.521E+00 0.729E+03   0.575E+00 -.516E+00 -.730E+03   0.244E-02 -.361E-02 0.464E+00
   -.151E-04 0.114E-04 0.728E+03   0.938E-05 -.813E-05 -.728E+03   0.395E-05 0.746E-06 0.486E+00
   -.242E+01 0.143E-03 -.669E+03   0.240E+01 -.136E-03 0.669E+03   0.119E-01 -.729E-05 -.169E+00
   -.609E-04 0.234E+01 -.669E+03   0.575E-04 -.233E+01 0.670E+03   0.192E-05 -.657E-02 -.184E+00
   -.151E+02 0.153E+02 -.205E+04   0.151E+02 -.154E+02 0.204E+04   0.253E-01 0.652E-01 0.580E+01
   -.259E-03 0.417E-04 -.207E+04   0.247E-03 -.401E-04 0.206E+04   0.145E-04 0.843E-06 0.578E+01
   -.150E+00 -.766E-06 0.213E+04   0.149E+00 0.551E-05 -.213E+04   0.125E-02 0.411E-05 -.684E+01
   -.386E-05 -.120E+00 0.213E+04   -.104E-05 0.120E+00 -.213E+04   -.292E-05 -.351E-05 -.684E+01
   -.579E+00 -.521E+00 0.729E+03   0.575E+00 0.516E+00 -.730E+03   0.244E-02 0.360E-02 0.464E+00
   0.183E-05 -.248E-04 0.729E+03   -.599E-05 0.209E-04 -.729E+03   0.406E-06 0.354E-05 0.462E+00
   -.396E+01 -.110E-03 -.663E+03   0.395E+01 0.107E-03 0.664E+03   0.208E-01 0.298E-06 -.205E+00
   -.721E-04 -.234E+01 -.669E+03   0.683E-04 0.233E+01 0.670E+03   0.382E-05 0.656E-02 -.184E+00
   -.151E+02 -.153E+02 -.205E+04   0.151E+02 0.154E+02 0.204E+04   0.253E-01 -.652E-01 0.580E+01
   -.749E-04 -.527E-04 -.206E+04   0.757E-04 0.552E-04 0.205E+04   -.395E-05 -.264E-05 0.578E+01
   0.457E+00 0.236E-04 0.546E+03   -.447E+00 -.246E-04 -.546E+03   -.147E-01 -.184E-06 -.777E-01
   -.629E-05 0.420E+00 0.547E+03   0.682E-05 -.432E+00 -.547E+03   -.205E-06 0.166E-01 -.985E-01
   0.109E+00 0.927E-01 0.160E+04   -.108E+00 -.920E-01 -.161E+04   -.147E-02 -.963E-03 0.358E+01
   0.318E-06 0.622E-05 0.160E+04   0.333E-06 -.381E-05 -.161E+04   -.131E-06 -.229E-05 0.358E+01
   0.608E+01 0.682E-04 -.157E+04   -.607E+01 -.625E-04 0.158E+04   -.163E-01 -.232E-05 -.521E+01
   -.651E-04 0.195E+02 -.155E+04   0.704E-04 -.194E+02 0.155E+04   -.222E-05 -.771E-01 -.525E+01
   0.235E+01 0.231E+01 -.493E+03   -.232E+01 -.230E+01 0.493E+03   -.217E-01 -.842E-02 0.330E+00
   0.121E-04 0.120E-03 -.493E+03   -.977E-05 -.119E-03 0.493E+03   -.396E-05 -.597E-05 0.296E+00
   0.503E+00 -.348E-04 0.547E+03   -.509E+00 0.314E-04 -.546E+03   0.821E-02 0.347E-05 -.913E-01
   0.497E-06 -.420E+00 0.547E+03   0.388E-05 0.432E+00 -.547E+03   0.957E-07 -.166E-01 -.985E-01
   0.109E+00 -.927E-01 0.160E+04   -.108E+00 0.920E-01 -.161E+04   -.147E-02 0.960E-03 0.358E+01
   -.633E-05 -.114E-04 0.160E+04   0.172E-05 0.417E-05 -.161E+04   0.494E-07 0.601E-05 0.358E+01
   0.197E+02 -.173E-03 -.155E+04   -.196E+02 0.176E-03 0.155E+04   -.666E-01 -.209E-05 -.518E+01
   -.840E-04 -.195E+02 -.155E+04   0.922E-04 0.194E+02 0.155E+04   -.400E-05 0.771E-01 -.525E+01
   0.235E+01 -.231E+01 -.493E+03   -.232E+01 0.230E+01 0.493E+03   -.217E-01 0.842E-02 0.330E+00
   -.672E-05 -.228E-03 -.490E+03   0.147E-04 0.234E-03 0.489E+03   -.483E-05 -.184E-05 0.149E+00
   -.457E+00 0.334E-04 0.546E+03   0.447E+00 -.307E-04 -.546E+03   0.147E-01 -.536E-05 -.777E-01
   -.866E-05 0.370E+00 0.546E+03   0.642E-05 -.365E+00 -.546E+03   0.170E-05 -.693E-02 -.826E-01
   -.109E+00 0.927E-01 0.160E+04   0.108E+00 -.920E-01 -.161E+04   0.146E-02 -.959E-03 0.358E+01
   -.110E-06 0.331E-05 0.160E+04   0.153E-07 -.264E-05 -.161E+04   0.540E-06 0.133E-06 0.358E+01
   -.608E+01 0.586E-04 -.157E+04   0.607E+01 -.597E-04 0.158E+04   0.163E-01 -.328E-06 -.521E+01
   -.107E-03 0.636E+01 -.157E+04   0.116E-03 -.634E+01 0.158E+04   -.719E-05 -.274E-01 -.520E+01
   -.235E+01 0.231E+01 -.493E+03   0.232E+01 -.230E+01 0.493E+03   0.217E-01 -.842E-02 0.330E+00
   -.978E-04 0.554E-04 -.498E+03   0.948E-04 -.554E-04 0.498E+03   -.707E-06 -.435E-05 0.285E+00
   -.503E+00 -.282E-04 0.547E+03   0.509E+00 0.278E-04 -.546E+03   -.821E-02 0.477E-05 -.913E-01
   -.740E-05 -.370E+00 0.546E+03   0.153E-05 0.365E+00 -.546E+03   -.807E-06 0.693E-02 -.826E-01
   -.109E+00 -.927E-01 0.160E+04   0.108E+00 0.920E-01 -.161E+04   0.146E-02 0.957E-03 0.358E+01
   0.443E-05 -.253E-05 0.160E+04   -.134E-05 0.292E-05 -.161E+04   -.284E-05 0.393E-05 0.358E+01
   -.197E+02 -.114E-03 -.155E+04   0.196E+02 0.119E-03 0.155E+04   0.666E-01 -.176E-05 -.518E+01
   -.191E-03 -.636E+01 -.157E+04   0.201E-03 0.634E+01 0.158E+04   -.109E-04 0.274E-01 -.520E+01
   -.235E+01 -.231E+01 -.493E+03   0.232E+01 0.230E+01 0.493E+03   0.217E-01 0.842E-02 0.330E+00
   -.489E-04 -.125E-03 -.494E+03   0.519E-04 0.126E-03 0.494E+03   -.254E-05 0.325E-05 0.312E+00
 -----------------------------------------------------------------------------------------------
   -.535E-04 -.460E-04 0.183E+02   0.185E-12 0.156E-12 0.483E-11   0.543E-04 0.475E-04 -.183E+02


 POSITION                                       TOTAL-FORCE (eV/Angst)
 -----------------------------------------------------------------------------------
      4.17455      4.17456     16.81779         0.000106      0.000075      0.013752
      4.17456      5.06686     17.44194        -0.000005      0.226982      0.165648
      4.17456      3.28225     17.44193        -0.000004     -0.227052      0.165692
      5.07384      4.17456     16.19813         0.221920     -0.000003     -0.137112
      3.27527      4.17456     16.19813        -0.222017     -0.000004     -0.137172
      2.08728      0.00000      7.50000         0.000145      0.000003      0.160544
      4.17456      2.08728      7.50000         0.000006      0.000302      0.161380
      2.08728      2.08728      9.58728         0.001442      0.001653      0.044943
      4.17456      0.00000      9.58728         0.000004      0.000001      0.048160
      2.08730      0.00000     11.68767         0.004528     -0.000005      0.016613
      4.17456      2.08832     11.68923         0.000003     -0.003879      0.017855
      2.08772      2.08570     13.76187        -0.001285     -0.000798      0.217930
      4.17456      0.00000     13.76251         0.000001     -0.000000      0.217518
      2.08728      4.17456      7.50000         0.000414      0.000000      0.160930
      4.17456      6.26183      7.50000         0.000008     -0.000307      0.161380
      2.08728      6.26183      9.58728         0.001444     -0.001652      0.044943
      4.17456      4.17456      9.58728         0.000003     -0.000002      0.051974
      2.08826      4.17456     11.68924        -0.002906      0.000002      0.020790
      4.17456      6.26079     11.68923        -0.000002      0.003878      0.017867
      2.08772      6.26341     13.76187        -0.001286      0.000798      0.217927
      4.17456      4.17456     13.77675         0.000002      0.000006      0.194367
      6.26183      0.00000      7.50000        -0.000147     -0.000004      0.160545
      0.00000      2.08728      7.50000        -0.000001      0.000049      0.160507
      6.26183      2.08728      9.58728        -0.001444      0.001653      0.044935
      0.00000      0.00000      9.58728        -0.000002      0.000004      0.044075
      6.26182      0.00000     11.68767        -0.004533     -0.000001      0.016611
      8.34911      2.08718     11.68810        -0.000002      0.004322      0.017108
      6.26139      2.08570     13.76187         0.001282     -0.000799      0.217924
      8.34911      8.34911     13.76483         0.000002      0.000002      0.220271
      6.26183      4.17456      7.50000        -0.000409      0.000009      0.160932
      0.00000      6.26183      7.50000        -0.000008     -0.000052      0.160498
      6.26183      6.26183      9.58728        -0.001447     -0.001655      0.044931
      0.00000      4.17456      9.58728        -0.000004     -0.000000      0.050377
      6.26085      4.17456     11.68924         0.002910     -0.000002      0.020790
      8.34911      6.26194     11.68810        -0.000000     -0.004329      0.017115
      6.26139      6.26341     13.76187         0.001274      0.000793      0.217928
      8.34911      4.17456     13.76280        -0.000003     -0.000000      0.217482
      2.08728      0.00000      9.58728        -0.004378     -0.000001      0.072426
      4.17456      2.08728      9.58728         0.000000      0.004633      0.074674
      2.08728      2.08728      7.50000        -0.000420     -0.000283     -0.551027
      4.17456      0.00000      7.50000         0.000001      0.000000     -0.551154
      2.08678      0.00000     13.81186         0.000872      0.000003      0.033952
      4.17456      2.08506     13.80704         0.000003      0.001862      0.036709
      2.08658      2.08736     11.68164        -0.000320     -0.001486     -0.005126
      4.17456      0.00000     11.68013        -0.000002     -0.000005     -0.000261
      2.08728      4.17456      9.58728         0.002011     -0.000000      0.076802
      4.17456      6.26183      9.58728         0.000004     -0.004628      0.074682
      2.08728      6.26183      7.50000        -0.000421      0.000282     -0.551025
      4.17456      4.17456      7.50000        -0.000005     -0.000001     -0.551595
      2.08421      4.17456     13.81354         0.001363      0.000001      0.025251
      4.17456      6.26405     13.80704         0.000004     -0.001869      0.036704
      2.08658      6.26175     11.68164        -0.000320      0.001485     -0.005127
      4.17456      4.17456     11.68485         0.000003      0.000005     -0.006693
      6.26183      0.00000      9.58728         0.004385     -0.000003      0.072429
      0.00000      2.08728      9.58728        -0.000001     -0.001839      0.073188
      6.26183      2.08728      7.50000         0.000418     -0.000284     -0.551023
      0.00000      0.00000      7.50000         0.000000      0.000001     -0.550605
      6.26233      0.00000     13.81186        -0.000874     -0.000001      0.033946
      8.34911      2.08665     13.81196         0.000002      0.001632      0.038395
      6.26253      2.08736     11.68164         0.000322     -0.001480     -0.005121
      8.34911      0.00000     11.68281        -0.000004     -0.000004     -0.012611
      6.26183      4.17456      9.58728        -0.002013      0.000004      0.076801
      0.00000      6.26183      9.58728        -0.000007      0.001842      0.073191
      6.26183      6.26183      7.50000         0.000421      0.000282     -0.551018
      0.00000      4.17456      7.50000         0.000000      0.000004     -0.550677
      6.26490      4.17456     13.81354        -0.001359      0.000003      0.025244
      8.34911      6.26246     13.81196        -0.000001     -0.001634      0.038391
      6.26253      6.26175     11.68164         0.000322      0.001483     -0.005130
      8.34911      4.17456     11.68229         0.000000      0.000004     -0.012550
 -----------------------------------------------------------------------------------
    total drift:                                0.000001      0.000002      0.015224


--------------------------------------------------------------------------------------------------------



  FREE ENERGIE OF THE ION-ELECTRON SYSTEM (eV)
  ---------------------------------------------------
  free  energy   TOTEN  =      -287.85419499 eV

  energy  without entropy=     -287.85419499  energy(sigma->0) =     -287.85419499



--------------------------------------------------------------------------------------------------------


    POTLOK:  cpu time      2.3532: real time      2.3540


--------------------------------------------------------------------------------------------------------


     LOOP+:  cpu time    161.4524: real time    161.8652
    4ORBIT:  cpu time      0.0000: real time      0.0000

 total amount of memory used by VASP MPI-rank0    66448. kBytes
=======================================================================

   base      :      30000. kBytes
   nonl-proj :      17183. kBytes
   fftplans  :       4921. kBytes
   grid      :       8190. kBytes
   one-center:         73. kBytes
   wavefun   :       6081. kBytes

  
  
 General timing and accounting informations for this job:
 ========================================================
  
                  Total CPU time used (sec):      194.484
                            User time (sec):      192.601
                          System time (sec):        1.883
                         Elapsed time (sec):      205.953
  
                   Maximum memory used (kb):      272348.
                   Average memory used (kb):          N/A
  
                          Minor page faults:        62404
                          Major page faults:           52
                 Voluntary context switches:        12920
