 vasp.6.3.0 20Jan22 (build Aug 21 2024 11:13:42) complex                         
 executed on        HPECrayEX_GCC date 2024.11.27  01:07:59
 running  512 mpi-ranks, with    1 threads/rank
 distrk:  each k-point on  512 cores,    1 groups
 distr:  one band on NCORE=  16 cores,   32 groups


--------------------------------------------------------------------------------------------------------


 INCAR:
   SYSTEM = TiO2
   ISMEAR = 0
   SIGMA = 0.05
   EDIFF = 1E-4
   ALGO = ALL
   ISTART = 0
   IBRION = -1
   NSW = 0
   ISYM = 0
   ISIF = 2
   EDIFFG = -0.01
   DIPOL = 0.5 0.5 0.5
   IDIPOL = 3
   LDIPOL = .TRUE.
   METAGGA = R2SCAN
   LUSE_VDW = .TRUE.
   BPARAM = 11.95
   CPARAM = 0.0093
   LASPH = .TRUE.
   ENCUT = 600
   PREC = Accurate
   LASPH = .TRUE.
   LREAL = .FALSE.
   ISPIN = 1
   NELM = 200
   NELMIN = 8
   NCORE = 16
   KPAR = 1
   LWAVE = .FALSE.
   LCHARG = .FALSE.

 POTCAR:    PAW_PBE Ti_pv 07Sep2000               
 POTCAR:    PAW_PBE O 08Apr2002                   
 -----------------------------------------------------------------------------
|                                                                             |
|               ----> ADVICE to this user running VASP <----                  |
|                                                                             |
|     You have switched on vdW-DFT.                                           |
|     This routine was written and supplied by Jiri Klimes. We recommend      |
|     that you carefully read and cite the following publications:            |
|       J. Klimes, D.R. Bowler, A. Michelides                                 |
|          J. Phys.: Cond Matt. 22 022201 (2010)                              |
|       J. Klimes, D.R. Bowler, A. Michelides                                 |
|          Phys. Rev. B. 83, 195131 (2011)                                    |
|     and references therein.                                                 |
|                                                                             |
 -----------------------------------------------------------------------------

 POTCAR:    PAW_PBE Ti_pv 07Sep2000               
   SHA256 =  f757a1b2c6d082f4c628fa3d987464a8763bf92e53844ac0500b0e2ddc9ce5c0 Ti_pv/POTCAR          
   COPYR  = (c) Copyright 07Sep2000 Georg Kresse                                                    
   COPYR  = This file is part of the software VASP. Any use, copying, and all other rights are regul
   COPYR  = If you do not have a valid VASP license, you may not use, copy or distribute this file. 
   VRHFIN =Ti: d3 s1                                                                                
   LEXCH  = PE                                                                                      
   EATOM  =  1042.5995 eV,   76.6289 Ry                                                             
                                                                                                    
   TITEL  = PAW_PBE Ti_pv 07Sep2000                                                                 
   LULTRA =        F    use ultrasoft PP ?                                                          
   IUNSCR =        1    unscreen: 0-lin 1-nonlin 2-no                                               
   RPACOR =    2.200    partial core radius                                                         
   POMASS =   47.880; ZVAL   =   10.000    mass and valenz                                          
   RCORE  =    2.500    outmost cutoff radius                                                       
   RWIGS  =    2.500; RWIGS  =    1.323    wigner-seitz radius (au A)                               
   ENMAX  =  222.335; ENMIN  =  166.751 eV                                                          
   RCLOC  =    1.701    cutoff for local pot                                                        
   LCOR   =        T    correct aug charges                                                         
   LPAW   =        T    paw PP                                                                      
   EAUG   =  482.848                                                                                
   DEXC   =    0.000                                                                                
   RMAX   =    2.564    core radius for proj-oper                                                   
   RAUG   =    1.300    factor for augmentation sphere                                              
   RDEP   =    2.538    radius for radial grids                                                     
   RDEPT  =    1.952    core radius for aug-charge                                                  
                                                                                                    
   Atomic configuration                                                                             
    8 entries                                                                                       
     n  l   j            E        occ.                                                              
     1  0  0.50     -4865.3608   2.0000                                                             
     2  0  0.50      -533.1368   2.0000                                                             
     2  1  1.50      -440.5031   6.0000                                                             
     3  0  0.50       -59.3186   2.0000                                                             
     3  1  1.50       -35.7012   6.0000                                                             
     3  2  2.50        -1.9157   3.0000                                                             
     4  0  0.50        -3.7291   1.0000                                                             
     4  3  2.50        -1.3606   0.0000                                                             
   Description                                                                                      
     l       E           TYP  RCUT    TYP  RCUT                                                     
     1    -35.7012140     23  2.300                                                                 
     1     -1.3605826     23  2.300                                                                 
     2     -1.9156996     23  2.500                                                                 
     2     -0.4063033     23  2.500                                                                 
     0     -3.7290856     23  2.500                                                                 
     0     20.4087390     23  2.500                                                                 
  local pseudopotential read in
  partial core-charges read in
  partial kinetic energy density read in
  atomic valenz-charges read in
  non local Contribution for L=           1  read in
    real space projection operators read in
  non local Contribution for L=           1  read in
    real space projection operators read in
  non local Contribution for L=           2  read in
    real space projection operators read in
  non local Contribution for L=           2  read in
    real space projection operators read in
  non local Contribution for L=           0  read in
    real space projection operators read in
  non local Contribution for L=           0  read in
    real space projection operators read in
    PAW grid and wavefunctions read in

   number of l-projection  operators is LMAX  =           6
   number of lm-projection operators is LMMAX =          18

 POTCAR:    PAW_PBE O 08Apr2002                   
   SHA256 =  818f92134a0a090dccd8ba1447fa70422a3b330e708bb4f08108d8ae51209ddf O/POTCAR              
   COPYR  = (c) Copyright 08Apr2002 Georg Kresse                                                    
   COPYR  = This file is part of the software VASP. Any use, copying, and all other rights are regul
   COPYR  = If you do not have a valid VASP license, you may not use, copy or distribute this file. 
   VRHFIN =O: s2p4                                                                                  
   LEXCH  = PE                                                                                      
   EATOM  =   432.3788 eV,   31.7789 Ry                                                             
                                                                                                    
   TITEL  = PAW_PBE O 08Apr2002                                                                     
   LULTRA =        F    use ultrasoft PP ?                                                          
   IUNSCR =        1    unscreen: 0-lin 1-nonlin 2-no                                               
   RPACOR =    1.200    partial core radius                                                         
   POMASS =   16.000; ZVAL   =    6.000    mass and valenz                                          
   RCORE  =    1.520    outmost cutoff radius                                                       
   RWIGS  =    1.550; RWIGS  =    0.820    wigner-seitz radius (au A)                               
   ENMAX  =  400.000; ENMIN  =  300.000 eV                                                          
   ICORE  =        2    local potential                                                             
   LCOR   =        T    correct aug charges                                                         
   LPAW   =        T    paw PP                                                                      
   EAUG   =  605.392                                                                                
   DEXC   =    0.000                                                                                
   RMAX   =    1.553    core radius for proj-oper                                                   
   RAUG   =    1.300    factor for augmentation sphere                                              
   RDEP   =    1.550    radius for radial grids                                                     
   RDEPT  =    1.329    core radius for aug-charge                                                  
                                                                                                    
   Atomic configuration                                                                             
    4 entries                                                                                       
     n  l   j            E        occ.                                                              
     1  0  0.50      -514.6923   2.0000                                                             
     2  0  0.50       -23.9615   2.0000                                                             
     2  1  0.50        -9.0305   4.0000                                                             
     3  2  1.50        -9.5241   0.0000                                                             
   Description                                                                                      
     l       E           TYP  RCUT    TYP  RCUT                                                     
     0    -23.9615318     23  1.200                                                                 
     0     -9.5240782     23  1.200                                                                 
     1     -9.0304911     23  1.520                                                                 
     1      8.1634956     23  1.520                                                                 
     2     -9.5240782      7  1.500                                                                 
  local pseudopotential read in
  partial core-charges read in
  partial kinetic energy density read in
  kinetic energy density of atom read in
  atomic valenz-charges read in
  non local Contribution for L=           0  read in
    real space projection operators read in
  non local Contribution for L=           0  read in
    real space projection operators read in
  non local Contribution for L=           1  read in
    real space projection operators read in
  non local Contribution for L=           1  read in
    real space projection operators read in
    PAW grid and wavefunctions read in

   number of l-projection  operators is LMAX  =           4
   number of lm-projection operators is LMMAX =           8

 -----------------------------------------------------------------------------
|                                                                             |
|               ----> ADVICE to this user running VASP <----                  |
|                                                                             |
|     You have a (more or less) 'large supercell' and for larger cells it     |
|     might be more efficient to use real-space projection operators.         |
|     Therefore, try LREAL= Auto in the INCAR file.                           |
|     Mind: For very accurate calculation, you might also keep the            |
|     reciprocal projection scheme (i.e. LREAL=.FALSE.).                      |
|                                                                             |
 -----------------------------------------------------------------------------

  PAW_PBE Ti_pv 07Sep2000               :
 energy of atom  1       EATOM=-1042.5995
 kinetic energy error for atom=    0.0007 (will be added to EATOM!!)
  PAW_PBE O 08Apr2002                   :
 energy of atom  2       EATOM= -432.3788
 kinetic energy error for atom=    0.0168 (will be added to EATOM!!)


 POSCAR: Ti  O
  positions in direct lattice
  No initial velocities read in

 METAGGA = R2SCA    LMAXTAU =  6    LMIXTAU =  F

 exchange correlation table for  LEXCH =        8
   RHO(1)=    0.500       N(1)  =     2000
   RHO(2)=  100.500       N(2)  =     4000



--------------------------------------------------------------------------------------------------------


 ion  position               nearest neighbor table
   1  0.807  0.833  0.295-  85 1.93  53 1.93  51 1.93  50 1.99  52 1.99   4 3.04  18 3.04   2 3.04

   2  0.591  0.667  0.327-  49 1.93 116 1.93  52 1.93  54 1.93  53 1.99  55 1.99   3 3.04  33 3.04
                             1 3.04   7 3.07
   3  0.307  0.667  0.295- 121 1.93  57 1.93  55 1.93  49 1.99  56 1.99   2 3.04  36 3.04   4 3.04

   4  0.091  0.833  0.327-  88 1.93  50 1.93  56 1.93  58 1.93  57 1.99  51 1.99  19 3.04   3 3.04
                             1 3.04   5 3.07
   5  0.945  0.833  0.422-  59 1.93  93 1.93  61 1.93  51 1.97  60 1.98  58 1.98   8 3.00   6 3.04
                            22 3.04   4 3.07
   6  0.727  0.666  0.451-  54 1.90 124 1.93  60 1.94  62 1.95  63 1.99  61 1.99   7 3.01   5 3.04
                            37 3.05  11 3.09
   7  0.444  0.666  0.422-  63 1.93 129 1.93  65 1.93  55 1.96  64 1.98  54 1.99   6 3.01   8 3.04
                            40 3.05   2 3.07
   8  0.226  0.833  0.452-  58 1.90  96 1.94  64 1.94  66 1.96  59 1.97  65 1.99   5 3.00   7 3.04
                            23 3.04   9 3.09
   9  0.086  0.834  0.550-  67 1.93 101 1.93  69 1.93  68 1.97  66 1.99  59 1.99  12 2.95  10 3.04
                            26 3.04   8 3.09
  10  0.866  0.666  0.575-  62 1.87 132 1.93  68 1.94  71 1.95  70 1.99  69 1.99  11 2.98   9 3.04
                            41 3.05  15 3.15
  11  0.585  0.667  0.549- 137 1.93  73 1.93  71 1.93  63 1.97  72 1.97  62 2.00  10 2.98  12 3.04
                            44 3.05   6 3.09
  12  0.365  0.833  0.577-  66 1.87 104 1.94  72 1.94  67 1.95  74 1.98  73 2.00   9 2.95  27 3.04
                            11 3.04
  13  0.231  0.833  0.680-  75 1.86  77 1.93 109 1.94  76 2.00  67 2.08  74 2.08  16 2.85  30 3.06
                            14 3.08
  14  0.001  0.666  0.700-  70 1.78  78 1.84 140 1.96  76 1.98  77 2.05  15 2.86  13 3.08  45 3.09

  15  0.729  0.666  0.676-  78 1.89 144 1.92  80 1.94  79 1.99  71 2.02  70 2.08  14 2.86  16 3.07
                            48 3.07  10 3.15
  16  0.504  0.834  0.700-  74 1.79  75 1.83  79 1.96 111 1.96  80 2.04  13 2.85  31 3.06  15 3.07

  17  0.807  0.167  0.295-  85 1.93 117 1.93  83 1.93  82 1.99  84 1.99  20 3.04  18 3.04  34 3.04

  18  0.591  0.000  0.327-  81 1.93  52 1.93  84 1.93  86 1.93  85 1.99  87 1.99  19 3.04  17 3.04
                             1 3.04  23 3.07
  19  0.307  0.000  0.295-  57 1.93  89 1.93  87 1.93  81 1.99  88 1.99  18 3.04  20 3.04   4 3.04

  20  0.091  0.167  0.327-  88 1.93  82 1.93 120 1.93  90 1.93  89 1.99  83 1.99  19 3.04  35 3.04
                            17 3.04  21 3.07
  21  0.945  0.167  0.422-  91 1.93  93 1.93 125 1.93  83 1.97  92 1.98  90 1.98  24 3.00  38 3.04
                            22 3.04  20 3.07
  22  0.726  1.000  0.451-  86 1.90  92 1.94  60 1.94  94 1.95  95 1.98  93 1.99  23 3.00   5 3.04
                            21 3.04  27 3.09
  23  0.444  1.000  0.422-  95 1.92  97 1.93  65 1.93  87 1.97  96 1.98  86 1.99  22 3.00  24 3.04
                             8 3.04  18 3.07
  24  0.226  0.167  0.452-  90 1.90  96 1.94 128 1.94  98 1.96  91 1.97  97 1.99  21 3.00  39 3.04
                            23 3.04  25 3.09
  25  0.086  0.166  0.550-  99 1.93 101 1.93 133 1.93 100 1.97  98 1.99  91 1.99  28 2.95  42 3.04
                            26 3.04  24 3.09
  26  0.865  1.000  0.576-  94 1.87  68 1.94 100 1.94 103 1.95 102 1.99 101 2.01  27 2.96  25 3.04
                             9 3.04  31 3.17
  27  0.585  1.000  0.549- 103 1.93 105 1.93  73 1.93 104 1.98  95 1.98  94 2.00  26 2.96  28 3.04
                            12 3.04  22 3.09
  28  0.365  0.167  0.577-  98 1.87 104 1.94 136 1.94  99 1.95 106 1.98 105 2.00  25 2.95  27 3.04
                            43 3.04
  29  0.231  0.167  0.680- 107 1.86 141 1.93 109 1.94 108 2.00  99 2.08 106 2.08  32 2.85  30 3.06
                            46 3.08
  30  0.003  0.000  0.700- 102 1.79 110 1.83 108 1.98  76 1.98 109 2.03  31 2.84  13 3.06  29 3.06

  31  0.732  0.000  0.679- 110 1.86 112 1.93  80 1.93 111 2.00 102 2.07 103 2.07  30 2.84  32 3.06
                            16 3.06  26 3.17
  32  0.504  0.166  0.700- 106 1.79 107 1.83 143 1.96 111 1.96 112 2.04  29 2.85  31 3.06  47 3.07

  33  0.807  0.500  0.295-  53 1.93 117 1.93 115 1.93 114 1.99 116 1.99  36 3.04   2 3.04  34 3.04

  34  0.591  0.333  0.327- 113 1.93 116 1.93  84 1.93 118 1.93 117 1.99 119 1.99  35 3.04  33 3.04
                            17 3.04  39 3.07
  35  0.307  0.333  0.295- 121 1.93  89 1.93 119 1.93 113 1.99 120 1.99  34 3.04  36 3.04  20 3.04

  36  0.091  0.500  0.327-  56 1.93 120 1.93 114 1.93 122 1.93 121 1.99 115 1.99   3 3.04  35 3.04
                            33 3.04  37 3.05
  37  0.946  0.500  0.422- 123 1.93  61 1.93 125 1.93 115 1.97 122 1.97 124 1.99  40 3.00   6 3.05
                            38 3.05  36 3.05
  38  0.727  0.334  0.451- 118 1.90 124 1.93  92 1.94 126 1.95 127 1.99 125 1.99  39 3.01  21 3.04
                            37 3.05  43 3.09
  39  0.444  0.334  0.422- 127 1.93 129 1.93  97 1.93 119 1.96 128 1.98 118 1.99  38 3.01  24 3.04
                            40 3.05  34 3.07
  40  0.226  0.500  0.453- 122 1.93 128 1.94  64 1.94 123 1.96 130 1.96 129 2.00  37 3.00  39 3.05
                             7 3.05  41 3.06
  41  0.089  0.500  0.550- 131 1.92 133 1.93  69 1.93 130 1.97 132 2.00 123 2.00  44 2.97  42 3.05
                            10 3.05  40 3.06
  42  0.866  0.334  0.575- 126 1.87 132 1.93 100 1.94 135 1.95 134 1.99 133 1.99  43 2.98  25 3.04
                            41 3.05  47 3.15
  43  0.585  0.333  0.549- 137 1.93 105 1.93 135 1.93 127 1.97 136 1.97 126 2.00  42 2.98  28 3.04
                            44 3.05  38 3.09
  44  0.367  0.500  0.580- 130 1.93  72 1.94 136 1.94 131 1.94 138 1.97 137 2.01  41 2.97  11 3.05
                            43 3.05  45 3.12
  45  0.235  0.500  0.680- 139 1.86 141 1.93  77 1.93 140 2.02 138 2.03 131 2.08  48 2.88  14 3.09
                            46 3.09  44 3.12
  46  0.001  0.334  0.700- 134 1.78 142 1.84 140 1.96 108 1.98 141 2.05  47 2.86  29 3.08  45 3.09

  47  0.729  0.334  0.676- 142 1.89 144 1.92 112 1.94 143 1.99 135 2.02 134 2.08  46 2.86  32 3.07
                            48 3.07  42 3.15
  48  0.506  0.500  0.706- 139 1.82 138 1.88  79 1.97 143 1.97 144 2.09  45 2.88  47 3.07  15 3.07

  49  0.487  0.667  0.269-   2 1.93   3 1.99
  50  0.987  0.833  0.269-   4 1.93   1 1.99
  51  0.911  0.833  0.353-   1 1.93   5 1.97   4 1.99
  52  0.627  0.833  0.321-  18 1.93   2 1.93   1 1.99
  53  0.771  0.667  0.300-  33 1.93   1 1.93   2 1.99
  54  0.623  0.667  0.395-   6 1.90   2 1.93   7 1.99
  55  0.411  0.667  0.353-   3 1.93   7 1.96   2 1.99
  56  0.127  0.667  0.321-  36 1.93   4 1.93   3 1.99
  57  0.271  0.833  0.300-  19 1.93   3 1.93   4 1.99
  58  0.123  0.833  0.395-   8 1.90   4 1.93   5 1.98
  59  0.050  0.834  0.480-   5 1.93   8 1.97   9 1.99
  60  0.764  0.833  0.447-  22 1.94   6 1.94   5 1.98
  61  0.909  0.667  0.427-   5 1.93  37 1.93   6 1.99
  62  0.763  0.666  0.520-  10 1.87   6 1.95  11 2.00
  63  0.549  0.666  0.480-   7 1.93  11 1.97   6 1.99
  64  0.264  0.667  0.448-  40 1.94   8 1.94   7 1.98
  65  0.408  0.833  0.427-   7 1.93  23 1.93   8 1.99
  66  0.263  0.833  0.521-  12 1.87   8 1.96   9 1.99
  67  0.193  0.833  0.607-   9 1.93  12 1.95  13 2.08
  68  0.904  0.833  0.572-  26 1.94  10 1.94   9 1.97
  69  0.051  0.667  0.553-  41 1.93   9 1.93  10 1.99
  70  0.912  0.668  0.645-  14 1.78  10 1.99  15 2.08
  71  0.694  0.670  0.605-  11 1.93  10 1.95  15 2.02
  72  0.405  0.667  0.574-  44 1.94  12 1.94  11 1.97
  73  0.549  0.833  0.553-  27 1.93  11 1.93  12 2.00
  74  0.411  0.834  0.646-  16 1.79  12 1.98  13 2.08
  75  0.347  0.833  0.731-  16 1.83  13 1.86
  76  0.051  0.833  0.708-  30 1.98  14 1.98  13 2.00
  77  0.194  0.666  0.681-  13 1.93  45 1.93  14 2.05
  78  0.842  0.660  0.730-  14 1.84  15 1.89
  79  0.554  0.668  0.707-  16 1.96  48 1.97  15 1.99
  80  0.694  0.834  0.679-  31 1.93  15 1.94  16 2.04
  81  0.487  0.000  0.269-  18 1.93  19 1.99
  82  0.987  0.167  0.269-  20 1.93  17 1.99
  83  0.911  0.167  0.353-  17 1.93  21 1.97  20 1.99
  84  0.627  0.167  0.321-  18 1.93  34 1.93  17 1.99
  85  0.771  0.000  0.300-   1 1.93  17 1.93  18 1.99
  86  0.623  0.000  0.395-  22 1.90  18 1.93  23 1.99
  87  0.411  0.000  0.353-  19 1.93  23 1.97  18 1.99
  88  0.127  0.000  0.321-   4 1.93  20 1.93  19 1.99
  89  0.271  0.167  0.300-  19 1.93  35 1.93  20 1.99
  90  0.123  0.167  0.395-  24 1.90  20 1.93  21 1.98
  91  0.050  0.166  0.480-  21 1.93  24 1.97  25 1.99
  92  0.764  0.167  0.447-  22 1.94  38 1.94  21 1.98
  93  0.909  1.000  0.427-   5 1.93  21 1.93  22 1.99
  94  0.763  1.000  0.520-  26 1.87  22 1.95  27 2.00
  95  0.549  1.000  0.479-  23 1.92  22 1.98  27 1.98
  96  0.264  1.000  0.448-   8 1.94  24 1.94  23 1.98
  97  0.408  0.167  0.427-  39 1.93  23 1.93  24 1.99
  98  0.263  0.167  0.521-  28 1.87  24 1.96  25 1.99
  99  0.193  0.167  0.607-  25 1.93  28 1.95  29 2.08
 100  0.904  0.167  0.572-  26 1.94  42 1.94  25 1.97
 101  0.051  1.000  0.553-  25 1.93   9 1.93  26 2.01
 102  0.912  1.000  0.645-  30 1.79  26 1.99  31 2.07
 103  0.693  1.000  0.606-  27 1.93  26 1.95  31 2.07
 104  0.404  1.000  0.574-  28 1.94  12 1.94  27 1.98
 105  0.549  0.167  0.553-  27 1.93  43 1.93  28 2.00
 106  0.411  0.166  0.646-  32 1.79  28 1.98  29 2.08
 107  0.347  0.167  0.731-  32 1.83  29 1.86
 108  0.051  0.167  0.708-  30 1.98  46 1.98  29 2.00
 109  0.194  0.000  0.681-  29 1.94  13 1.94  30 2.03
 110  0.846  0.000  0.730-  30 1.83  31 1.86
 111  0.554  0.000  0.708-  16 1.96  32 1.96  31 2.00
 112  0.694  0.166  0.679-  31 1.93  47 1.94  32 2.04
 113  0.487  0.333  0.269-  34 1.93  35 1.99
 114  0.987  0.500  0.269-  36 1.93  33 1.99
 115  0.911  0.500  0.353-  33 1.93  37 1.97  36 1.99
 116  0.627  0.500  0.321-   2 1.93  34 1.93  33 1.99
 117  0.771  0.333  0.300-  33 1.93  17 1.93  34 1.99
 118  0.623  0.333  0.395-  38 1.90  34 1.93  39 1.99
 119  0.411  0.333  0.353-  35 1.93  39 1.96  34 1.99
 120  0.127  0.333  0.321-  36 1.93  20 1.93  35 1.99
 121  0.271  0.500  0.300-   3 1.93  35 1.93  36 1.99
 122  0.123  0.500  0.395-  40 1.93  36 1.93  37 1.97
 123  0.050  0.500  0.480-  37 1.93  40 1.96  41 2.00
 124  0.764  0.500  0.447-   6 1.93  38 1.93  37 1.99
 125  0.909  0.333  0.427-  21 1.93  37 1.93  38 1.99
 126  0.763  0.334  0.520-  42 1.87  38 1.95  43 2.00
 127  0.549  0.334  0.480-  39 1.93  43 1.97  38 1.99
 128  0.264  0.333  0.448-  40 1.94  24 1.94  39 1.98
 129  0.408  0.500  0.427-  39 1.93   7 1.93  40 2.00
 130  0.265  0.500  0.522-  44 1.93  40 1.96  41 1.97
 131  0.193  0.500  0.607-  41 1.92  44 1.94  45 2.08
 132  0.905  0.500  0.573-  42 1.93  10 1.93  41 2.00
 133  0.051  0.333  0.553-  41 1.93  25 1.93  42 1.99
 134  0.912  0.332  0.645-  46 1.78  42 1.99  47 2.08
 135  0.694  0.330  0.605-  43 1.93  42 1.95  47 2.02
 136  0.405  0.333  0.574-  44 1.94  28 1.94  43 1.97
 137  0.550  0.500  0.554-  11 1.93  43 1.93  44 2.01
 138  0.413  0.500  0.648-  48 1.88  44 1.97  45 2.03
 139  0.345  0.500  0.733-  48 1.82  45 1.86
 140  0.052  0.500  0.707-  14 1.96  46 1.96  45 2.02
 141  0.194  0.334  0.681-  29 1.93  45 1.93  46 2.05
 142  0.842  0.340  0.730-  46 1.84  47 1.89
 143  0.554  0.332  0.707-  32 1.96  48 1.97  47 1.99
 144  0.691  0.500  0.675-  15 1.92  47 1.92  48 2.09


IMPORTANT INFORMATION: All symmetrisations will be switched off!
NOSYMM: (Re-)initialisation of all symmetry stuff for point group C_1.


----------------------------------------------------------------------------------------

                                     Primitive cell                                     

  volume of cell :    3249.0644

  direct lattice vectors                    reciprocal lattice vectors
    10.255507753  0.000000000  0.000000000     0.097508580 -0.000000000  0.000000000
     0.000000000 11.355710084  0.000000000     0.000000000  0.088061424  0.000000000
     0.000000000  0.000000000 27.898885647     0.000000000  0.000000000  0.035843726

  length of vectors
    10.255507753 11.355710084 27.898885647     0.097508580  0.088061424  0.035843726

  position of ions in fractional coordinates (direct lattice)
     0.807253528  0.833333333  0.295092107
     0.591310949  0.666666667  0.326616398
     0.307253528  0.666666667  0.295092107
     0.091310949  0.833333333  0.326616398
     0.944878233  0.833425622  0.422412715
     0.727006472  0.666301186  0.451300811
     0.444095055  0.666477109  0.422250949
     0.226028531  0.833301983  0.451803954
     0.086330099  0.833551980  0.549825083
     0.866119220  0.666338659  0.575315459
     0.584509820  0.666521818  0.548776781
     0.364855700  0.833352496  0.576684857
     0.231233992  0.832666798  0.679845144
     0.000845598  0.665636080  0.699746852
     0.729030369  0.665713897  0.676196569
     0.503900168  0.834210268  0.699893731
     0.807253528  0.166666667  0.295092107
     0.591310949  0.000000000  0.326616398
     0.307253528  0.000000000  0.295092107
     0.091310949  0.166666667  0.326616398
     0.944878234  0.166574405  0.422412710
     0.726409399  0.999999999  0.451483622
     0.444376964  0.999999999  0.422379353
     0.226028571  0.166698040  0.451803936
     0.086330025  0.166447958  0.549825078
     0.864817249  0.999999966  0.575906570
     0.585104680  0.999999990  0.549331449
     0.364855702  0.166647423  0.576684834
     0.231234022  0.167333237  0.679845145
     0.003213776  0.000000020  0.699688749
     0.732178886  0.000000119  0.678725720
     0.503900201  0.165789890  0.699893795
     0.807253528  0.500000000  0.295092107
     0.591310949  0.333333333  0.326616398
     0.307253528  0.333333333  0.295092107
     0.091310949  0.500000000  0.326616398
     0.946198441  0.500000027  0.422247285
     0.727006470  0.333698788  0.451300817
     0.444095096  0.333522919  0.422250947
     0.226432774  0.499999990  0.452854723
     0.089052444  0.499999927  0.550082348
     0.866119190  0.333661351  0.575315505
     0.584509823  0.333478183  0.548776779
     0.366968920  0.500000021  0.579738981
     0.234614906  0.499999885  0.680365887
     0.000845377  0.334363908  0.699746974
     0.729030400  0.334286137  0.676196628
     0.506329733  0.500000014  0.706112795
     0.487164047  0.666666667  0.268827942
     0.987164047  0.833333333  0.268827942
     0.911400429  0.833333333  0.352880564
     0.627343008  0.833333333  0.321356272
     0.771221468  0.666666667  0.300352233
     0.623393731  0.666666667  0.394925107
     0.411400429  0.666666667  0.352880564
     0.127343008  0.666666667  0.321356272
     0.271221468  0.833333333  0.300352233
     0.123393731  0.833333333  0.394925107
     0.049657792  0.833555696  0.479677943
     0.764200321  0.833273714  0.447299437
     0.908985927  0.666612032  0.426745617
     0.763313134  0.665786063  0.519941036
     0.549187387  0.666099643  0.479548651
     0.263941405  0.666576671  0.447755951
     0.408076668  0.833226976  0.426666435
     0.263484761  0.833008765  0.520761027
     0.192867978  0.832951813  0.606651119
     0.904222509  0.833454400  0.572410630
     0.050942730  0.666504922  0.553011738
     0.912397435  0.668031080  0.644658978
     0.694074748  0.669555171  0.605140347
     0.404829983  0.666517657  0.574228199
     0.548567344  0.833356623  0.552538465
     0.411425431  0.834299657  0.645629657
     0.346983198  0.833026655  0.730956082
     0.051423165  0.832639597  0.707561508
     0.193629382  0.666261291  0.680994837
     0.841507429  0.660249870  0.729801790
     0.554428276  0.668371202  0.707246761
     0.694300356  0.833668942  0.678864517
     0.487164047  0.000000000  0.268827942
     0.987164047  0.166666667  0.268827942
     0.911400429  0.166666667  0.352880564
     0.627343008  0.166666667  0.321356272
     0.771221468  0.000000000  0.300352233
     0.623393731  0.000000000  0.394925107
     0.411400429  0.000000000  0.352880564
     0.127343008  0.000000000  0.321356272
     0.271221468  0.166666667  0.300352233
     0.123393731  0.166666667  0.394925107
     0.049657810  0.166444289  0.479677936
     0.764200292  0.166726273  0.447299422
     0.908566270  0.999999997  0.426650716
     0.762892953  0.999999990  0.520244115
     0.549265897  0.999999970  0.479485919
     0.263997016  0.999999991  0.447701341
     0.408076690  0.166773024  0.426666424
     0.263484754  0.166991233  0.520761005
     0.192868016  0.167048047  0.606651106
     0.904222481  0.166545559  0.572410631
     0.050723883  0.999999985  0.553203301
     0.912269034  0.999999888  0.645011717
     0.693282576  0.999999943  0.605776967
     0.403888406  0.999999988  0.573501997
     0.548567399  0.166643339  0.552538450
     0.411425417  0.165700504  0.645629643
     0.346983114  0.166973539  0.730956110
     0.051423071  0.167360301  0.707561495
     0.193923451  0.000000022  0.680667099
     0.846141258  0.000000145  0.730439174
     0.554132835  0.000000016  0.707900501
     0.694300417  0.166331211  0.678864635
     0.487164047  0.333333333  0.268827942
     0.987164047  0.500000000  0.268827942
     0.911400429  0.500000000  0.352880564
     0.627343008  0.500000000  0.321356272
     0.771221468  0.333333333  0.300352233
     0.623393731  0.333333333  0.394925107
     0.411400429  0.333333333  0.352880564
     0.127343008  0.333333333  0.321356272
     0.271221468  0.500000000  0.300352233
     0.123393731  0.500000000  0.394925107
     0.050286707  0.499999994  0.479930634
     0.764289904  0.500000002  0.446955208
     0.908985922  0.333387959  0.426745613
     0.763313179  0.334213913  0.519941042
     0.549187433  0.333900423  0.479548652
     0.263941380  0.333423326  0.447755912
     0.408024352  0.499999987  0.426693235
     0.264834079  0.499999990  0.521752501
     0.193447910  0.500000024  0.607420579
     0.904674555  0.500000000  0.573084254
     0.050942793  0.333495040  0.553011753
     0.912397370  0.331968955  0.644659048
     0.694074703  0.330445004  0.605140361
     0.404829964  0.333482343  0.574228132
     0.550316336  0.500000022  0.553911535
     0.412569623  0.499999919  0.648382056
     0.345209203  0.499999862  0.733133786
     0.051537776  0.500000084  0.707431853
     0.193629319  0.333738689  0.680994946
     0.841507571  0.339750183  0.729801818
     0.554428314  0.331628671  0.707246828
     0.691230273  0.500000161  0.674818354

  ion indices of the primitive-cell ions
   primitive index   ion index
                 1           1
                 2           2
                 3           3
                 4           4
                 5           5
                 6           6
                 7           7
                 8           8
                 9           9
                10          10
                11          11
                12          12
                13          13
                14          14
                15          15
                16          16
                17          17
                18          18
                19          19
                20          20
                21          21
                22          22
                23          23
                24          24
                25          25
                26          26
                27          27
                28          28
                29          29
                30          30
                31          31
                32          32
                33          33
                34          34
                35          35
                36          36
                37          37
                38          38
                39          39
                40          40
                41          41
                42          42
                43          43
                44          44
                45          45
                46          46
                47          47
                48          48
                49          49
                50          50
                51          51
                52          52
                53          53
                54          54
                55          55
                56          56
                57          57
                58          58
                59          59
                60          60
                61          61
                62          62
                63          63
                64          64
                65          65
                66          66
                67          67
                68          68
                69          69
                70          70
                71          71
                72          72
                73          73
                74          74
                75          75
                76          76
                77          77
                78          78
                79          79
                80          80
                81          81
                82          82
                83          83
                84          84
                85          85
                86          86
                87          87
                88          88
                89          89
                90          90
                91          91
                92          92
                93          93
                94          94
                95          95
                96          96
                97          97
                98          98
                99          99
               100         100
               101         101
               102         102
               103         103
               104         104
               105         105
               106         106
               107         107
               108         108
               109         109
               110         110
               111         111
               112         112
               113         113
               114         114
               115         115
               116         116
               117         117
               118         118
               119         119
               120         120
               121         121
               122         122
               123         123
               124         124
               125         125
               126         126
               127         127
               128         128
               129         129
               130         130
               131         131
               132         132
               133         133
               134         134
               135         135
               136         136
               137         137
               138         138
               139         139
               140         140
               141         141
               142         142
               143         143
               144         144

----------------------------------------------------------------------------------------



 KPOINTS: pymatgen v2020.8.13 with grid density = 

Automatic generation of k-mesh.
 Grid dimensions read from file:
 generate k-points for:    3    3    1

 Generating k-lattice:

  Cartesian coordinates                     Fractional coordinates (reciprocal lattice)
     0.032502860 -0.000000000  0.000000000     0.333333333  0.000000000  0.000000000
     0.000000000  0.029353808  0.000000000     0.000000000  0.333333333  0.000000000
     0.000000000  0.000000000  0.035843726     0.000000000  0.000000000  1.000000000

  Length of vectors
     0.032502860  0.029353808  0.035843726

  Shift w.r.t. Gamma in fractional coordinates (k-lattice)
     0.000000000  0.000000000  0.000000000

 
 Subroutine IBZKPT returns following result:
 ===========================================
 
 Found      5 irreducible k-points:
 
 Following reciprocal coordinates:
            Coordinates               Weight
  0.000000  0.000000  0.000000      1.000000
  0.333333  0.000000  0.000000      2.000000
  0.000000  0.333333  0.000000      2.000000
  0.333333  0.333333  0.000000      2.000000
  0.333333 -0.333333  0.000000      2.000000
 
 Following cartesian coordinates:
            Coordinates               Weight
  0.000000  0.000000  0.000000      1.000000
  0.032503  0.000000  0.000000      2.000000
  0.000000  0.029354  0.000000      2.000000
  0.032503  0.029354  0.000000      2.000000
  0.032503 -0.029354  0.000000      2.000000
 


--------------------------------------------------------------------------------------------------------




 Dimension of arrays:
   k-points           NKPTS =      5   k-points in BZ     NKDIM =      5   number of bands    NBANDS=    640
   number of dos      NEDOS =    301   number of ions     NIONS =    144
   non local maximal  LDIM  =      6   non local SUM 2l+1 LMDIM =     18
   total plane-waves  NPLWV = ******
   max r-space proj   IRMAX =      1   max aug-charges    IRDMAX=  21782
   dimension x,y,z NGX =    84 NGY =   96 NGZ =  224
   dimension x,y,z NGXF=   168 NGYF=  192 NGZF=  448
   support grid    NGXF=   168 NGYF=  192 NGZF=  448
   ions per type =              48  96
   NGX,Y,Z   is equivalent  to a cutoff of  13.62, 14.05, 13.35 a.u.
   NGXF,Y,Z  is equivalent  to a cutoff of  27.23, 28.11, 26.70 a.u.

 SYSTEM =  TiO2                                    
 POSCAR =  Ti  O                                   

--------------------------------------------------------------------------------------------------------


  energy-cutoff  :      600.00
  volume of cell :     3249.06
      direct lattice vectors                 reciprocal lattice vectors
    10.255507753  0.000000000  0.000000000     0.097508580 -0.000000000  0.000000000
     0.000000000 11.355710084  0.000000000     0.000000000  0.088061424  0.000000000
     0.000000000  0.000000000 27.898885647     0.000000000  0.000000000  0.035843726

  length of vectors
    10.255507753 11.355710084 27.898885647     0.097508580  0.088061424  0.035843726



 k-points in units of 2pi/SCALE and weight: pymatgen v2020.8.13 with grid density = 
   0.00000000  0.00000000  0.00000000       0.111
   0.03250286  0.00000000  0.00000000       0.222
   0.00000000  0.02935381  0.00000000       0.222
   0.03250286  0.02935381  0.00000000       0.222
   0.03250286 -0.02935381  0.00000000       0.222

 k-points in reciprocal lattice and weights: pymatgen v2020.8.13 with grid density = 
   0.00000000  0.00000000  0.00000000       0.111
   0.33333333  0.00000000  0.00000000       0.222
   0.00000000  0.33333333  0.00000000       0.222
   0.33333333  0.33333333  0.00000000       0.222
   0.33333333 -0.33333333  0.00000000       0.222

 position of ions in fractional coordinates (direct lattice) 
   0.80725353  0.83333333  0.29509211
   0.59131095  0.66666667  0.32661640
   0.30725353  0.66666667  0.29509211
   0.09131095  0.83333333  0.32661640
   0.94487823  0.83342562  0.42241272
   0.72700647  0.66630119  0.45130081
   0.44409506  0.66647711  0.42225095
   0.22602853  0.83330198  0.45180395
   0.08633010  0.83355198  0.54982508
   0.86611922  0.66633866  0.57531546
   0.58450982  0.66652182  0.54877678
   0.36485570  0.83335250  0.57668486
   0.23123399  0.83266680  0.67984514
   0.00084560  0.66563608  0.69974685
   0.72903037  0.66571390  0.67619657
   0.50390017  0.83421027  0.69989373
   0.80725353  0.16666667  0.29509211
   0.59131095  0.00000000  0.32661640
   0.30725353  0.00000000  0.29509211
   0.09131095  0.16666667  0.32661640
   0.94487823  0.16657440  0.42241271
   0.72640940  1.00000000  0.45148362
   0.44437696  1.00000000  0.42237935
   0.22602857  0.16669804  0.45180394
   0.08633003  0.16644796  0.54982508
   0.86481725  0.99999997  0.57590657
   0.58510468  0.99999999  0.54933145
   0.36485570  0.16664742  0.57668483
   0.23123402  0.16733324  0.67984515
   0.00321378  0.00000002  0.69968875
   0.73217889  0.00000012  0.67872572
   0.50390020  0.16578989  0.69989379
   0.80725353  0.50000000  0.29509211
   0.59131095  0.33333333  0.32661640
   0.30725353  0.33333333  0.29509211
   0.09131095  0.50000000  0.32661640
   0.94619844  0.50000003  0.42224729
   0.72700647  0.33369879  0.45130082
   0.44409510  0.33352292  0.42225095
   0.22643277  0.49999999  0.45285472
   0.08905244  0.49999993  0.55008235
   0.86611919  0.33366135  0.57531551
   0.58450982  0.33347818  0.54877678
   0.36696892  0.50000002  0.57973898
   0.23461491  0.49999989  0.68036589
   0.00084538  0.33436391  0.69974697
   0.72903040  0.33428614  0.67619663
   0.50632973  0.50000001  0.70611279
   0.48716405  0.66666667  0.26882794
   0.98716405  0.83333333  0.26882794
   0.91140043  0.83333333  0.35288056
   0.62734301  0.83333333  0.32135627
   0.77122147  0.66666667  0.30035223
   0.62339373  0.66666667  0.39492511
   0.41140043  0.66666667  0.35288056
   0.12734301  0.66666667  0.32135627
   0.27122147  0.83333333  0.30035223
   0.12339373  0.83333333  0.39492511
   0.04965779  0.83355570  0.47967794
   0.76420032  0.83327371  0.44729944
   0.90898593  0.66661203  0.42674562
   0.76331313  0.66578606  0.51994104
   0.54918739  0.66609964  0.47954865
   0.26394141  0.66657667  0.44775595
   0.40807667  0.83322698  0.42666644
   0.26348476  0.83300876  0.52076103
   0.19286798  0.83295181  0.60665112
   0.90422251  0.83345440  0.57241063
   0.05094273  0.66650492  0.55301174
   0.91239744  0.66803108  0.64465898
   0.69407475  0.66955517  0.60514035
   0.40482998  0.66651766  0.57422820
   0.54856734  0.83335662  0.55253846
   0.41142543  0.83429966  0.64562966
   0.34698320  0.83302665  0.73095608
   0.05142317  0.83263960  0.70756151
   0.19362938  0.66626129  0.68099484
   0.84150743  0.66024987  0.72980179
   0.55442828  0.66837120  0.70724676
   0.69430036  0.83366894  0.67886452
   0.48716405  0.00000000  0.26882794
   0.98716405  0.16666667  0.26882794
   0.91140043  0.16666667  0.35288056
   0.62734301  0.16666667  0.32135627
   0.77122147  0.00000000  0.30035223
   0.62339373  0.00000000  0.39492511
   0.41140043  0.00000000  0.35288056
   0.12734301  0.00000000  0.32135627
   0.27122147  0.16666667  0.30035223
   0.12339373  0.16666667  0.39492511
   0.04965781  0.16644429  0.47967794
   0.76420029  0.16672627  0.44729942
   0.90856627  1.00000000  0.42665072
   0.76289295  0.99999999  0.52024412
   0.54926590  0.99999997  0.47948592
   0.26399702  0.99999999  0.44770134
   0.40807669  0.16677302  0.42666642
   0.26348475  0.16699123  0.52076101
   0.19286802  0.16704805  0.60665111
   0.90422248  0.16654556  0.57241063
   0.05072388  0.99999998  0.55320330
   0.91226903  0.99999989  0.64501172
   0.69328258  0.99999994  0.60577697
   0.40388841  0.99999999  0.57350200
   0.54856740  0.16664334  0.55253845
   0.41142542  0.16570050  0.64562964
   0.34698311  0.16697354  0.73095611
   0.05142307  0.16736030  0.70756150
   0.19392345  0.00000002  0.68066710
   0.84614126  0.00000015  0.73043917
   0.55413283  0.00000002  0.70790050
   0.69430042  0.16633121  0.67886463
   0.48716405  0.33333333  0.26882794
   0.98716405  0.50000000  0.26882794
   0.91140043  0.50000000  0.35288056
   0.62734301  0.50000000  0.32135627
   0.77122147  0.33333333  0.30035223
   0.62339373  0.33333333  0.39492511
   0.41140043  0.33333333  0.35288056
   0.12734301  0.33333333  0.32135627
   0.27122147  0.50000000  0.30035223
   0.12339373  0.50000000  0.39492511
   0.05028671  0.49999999  0.47993063
   0.76428990  0.50000000  0.44695521
   0.90898592  0.33338796  0.42674561
   0.76331318  0.33421391  0.51994104
   0.54918743  0.33390042  0.47954865
   0.26394138  0.33342333  0.44775591
   0.40802435  0.49999999  0.42669323
   0.26483408  0.49999999  0.52175250
   0.19344791  0.50000002  0.60742058
   0.90467455  0.50000000  0.57308425
   0.05094279  0.33349504  0.55301175
   0.91239737  0.33196896  0.64465905
   0.69407470  0.33044500  0.60514036
   0.40482996  0.33348234  0.57422813
   0.55031634  0.50000002  0.55391154
   0.41256962  0.49999992  0.64838206
   0.34520920  0.49999986  0.73313379
   0.05153778  0.50000008  0.70743185
   0.19362932  0.33373869  0.68099495
   0.84150757  0.33975018  0.72980182
   0.55442831  0.33162867  0.70724683
   0.69123027  0.50000016  0.67481835

 position of ions in cartesian coordinates  (Angst):
   8.27879481  9.46309174  8.23274095
   6.06419402  7.57047339  9.11223354
   3.15104093  7.57047339  8.23274095
   0.93644014  9.46309174  9.11223354
   9.69020605  9.46413974 11.78484404
   7.45582051  7.56632309 12.59078971
   4.55442028  7.56832083 11.78033093
   2.31803736  9.46273573 12.60482686
   0.88535899  9.46557463 15.33950710
   8.88249238  7.56674863 16.05066021
   5.99444499  7.56882853 15.31026067
   3.74178046  9.46330934 16.08886488
   2.37142200  9.45552276 18.96692193
   0.00867204  7.55877035 19.52215740
   7.47657660  7.55965401 18.86513076
   5.16775208  9.47304995 19.52625517
   8.27879481  1.89261835  8.23274095
   6.06419402  0.00000000  9.11223354
   3.15104093  0.00000000  8.23274095
   0.93644014  1.89261835  9.11223354
   9.69020605  1.89157065 11.78484388
   7.44969722 11.35571007 12.59588994
   4.55731140 11.35571007 11.78391326
   2.31803776  1.89297461 12.60482635
   0.88535824  1.89013475 15.33950698
   8.86914000 11.35570970 16.06715154
   6.00054558 11.35570997 15.32573529
   3.74178048  1.89239982 16.08886425
   2.37142231  1.90018772 18.96692196
   0.03295890  0.00000023 19.52053640
   7.50886624  0.00000136 18.93569125
   5.16775242  1.88266192 19.52625695
   8.27879481  5.67785504  8.23274095
   6.06419402  3.78523669  9.11223354
   3.15104093  3.78523669  8.23274095
   0.93644014  5.67785504  9.11223354
   9.70374545  5.67785535 11.78022872
   7.45582049  3.78938669 12.59078988
   4.55442070  3.78738957 11.78033088
   2.32218307  5.67785493 12.63414214
   0.91327803  5.67785421 15.34668453
   8.88249206  3.78896157 16.05066149
   5.99444503  3.78688157 15.31026060
   3.76345261  5.67785528 16.17407154
   2.40609498  5.67785374 18.98145009
   0.00866977  3.79693961 19.52216080
   7.47657692  3.79605646 18.86513239
   5.19266850  5.67785520 19.69976011
   4.99611466  7.57047339  7.50000000
  10.12386854  9.46309174  7.50000000
   9.34687417  9.46309174  9.84497449
   6.43372108  9.46309174  8.96548189
   7.90926774  7.57047339  8.37949260
   6.39321924  7.57047339 11.01797039
   4.21912029  7.57047339  9.84497449
   1.30596721  7.57047339  8.96548189
   2.78151387  9.46309174  8.37949260
   1.26546536  9.46309174 11.01797039
   0.50926587  9.46561683 13.38248009
   7.83726231  9.46241472 12.47915583
   9.32211222  7.56985297 11.90572716
   7.82816376  7.56047351 14.50577552
   5.63219551  7.56403444 13.37887299
   2.70685313  7.56945143 12.49189208
   4.18503344  9.46188397 11.90351809
   2.70217001  9.45940603 14.52865235
   1.97795904  9.45875930 16.92489020
   9.27326095  9.46446654 15.96961870
   0.52244356  7.56863666 15.42841123
   9.35709897  7.58596727 17.98526710
   7.11808896  7.60327441 16.88274135
   4.15173703  7.56878128 16.02032687
   5.62583665  9.46335621 15.41520745
   4.21937669  9.47406503 18.01234797
   3.55848888  9.45960918 20.39286013
   0.52737067  9.45521386 19.74017759
   1.98576763  7.56587006 18.99899709
   8.63008596  7.49760611 20.36065668
   5.68594349  7.58982960 19.73139650
   7.12040268  9.46690282 18.93956353
   4.99611466  0.00000000  7.50000000
  10.12386854  1.89261835  7.50000000
   9.34687417  1.89261835  9.84497449
   6.43372108  1.89261835  8.96548189
   7.90926774  0.00000000  8.37949260
   6.39321924  0.00000000 11.01797039
   4.21912029  0.00000000  9.84497449
   1.30596721  0.00000000  8.96548189
   2.78151387  1.89261835  8.37949260
   1.26546536  1.89261835 11.01797039
   0.50926606  1.89009309 13.38247988
   7.83726202  1.89329522 12.47915544
   9.31780843 11.35571005 11.90307954
   7.82385460 11.35570998 14.51423108
   5.63300066 11.35570974 13.37712282
   2.70742345 11.35570998 12.49036851
   4.18503366  1.89382611 11.90351778
   2.70216994  1.89630403 14.52865174
   1.97795944  1.89694919 16.92488983
   9.27326066  1.89124309 15.96961874
   0.52019918 11.35570991 15.43375564
   9.35578215 11.35570881 17.99510812
   7.10996483 11.35570944 16.90050233
   4.14208068 11.35570994 16.00006664
   5.62583721  1.89235345 15.41520703
   4.21937656  1.88164689 18.01234759
   3.55848802  1.89610310 20.39286092
   0.52736970  1.90049505 19.74017724
   1.98878346  0.00000025 18.98985357
   8.67760823  0.00000165 20.37843900
   5.68291358  0.00000018 19.74963512
   7.12040330  1.88880901 18.93956681
   4.99611466  3.78523669  7.50000000
  10.12386854  5.67785504  7.50000000
   9.34687417  5.67785504  9.84497449
   6.43372108  5.67785504  8.96548189
   7.90926774  3.78523669  8.37949260
   6.39321924  3.78523669 11.01797039
   4.21912029  3.78523669  9.84497449
   1.30596721  3.78523669  8.96548189
   2.78151387  5.67785504  8.37949260
   1.26546536  5.67785504 11.01797039
   0.51571571  5.67785498 13.38952987
   7.83818104  5.67785507 12.46955225
   9.32211217  3.78585701 11.90572705
   7.82816422  3.79523630 14.50577568
   5.63219598  3.79167640 13.37887299
   2.70685287  3.78625863 12.49189098
   4.18449690  5.67785489 11.90426577
   2.71600795  5.67785493 14.55631337
   1.98390654  5.67785531 16.94635729
   9.27789691  5.67785504 15.98841206
   0.52244421  3.78707299 15.42841166
   9.35709831  3.76974321 17.98526906
   7.11808850  3.75243766 16.88274173
   4.15173683  3.78692881 16.02032498
   5.64377345  5.67785529 15.45351458
   4.23111097  5.67785412 18.08913682
   3.54029566  5.67785348 20.45361566
   0.52854606  5.67785599 19.73656038
   1.98576698  3.78983980 18.99900012
   8.63008742  3.85810458 20.36065747
   5.68594388  3.76587905 19.73139838
   7.08891743  5.67785687 18.82668010



--------------------------------------------------------------------------------------------------------

--------------------------------------- Iteration      FINAL  ---------------------------------------


--------------------OUTCAR has been truncated-------------------------


--------------------OUTCAR has been truncated-------------------------


--------------------OUTCAR has been truncated-------------------------


--------------------OUTCAR has been truncated-------------------------


--------------------OUTCAR has been truncated-------------------------


--------------------OUTCAR has been truncated-------------------------


--------------------OUTCAR has been truncated-------------------------


--------------------OUTCAR has been truncated-------------------------


--------------------OUTCAR has been truncated-------------------------


--------------------OUTCAR has been truncated-------------------------


  FORCE on cell =-STRESS in cart. coord.  units (eV):
  Direction    XX          YY          ZZ          XY          YZ          ZX
  --------------------------------------------------------------------------------------
  Alpha Z  2423.90019  2423.90019  2423.90019
  Ewald  491919.89544485241.10369************     0.00191     0.00098 -2068.03604
  Hartree512746.92221508751.77275************     0.00108     0.00054 -1353.99707
  E(xc)   -5477.27318 -5477.02414 -5475.52515    -0.00000     0.00001    -1.33745
  Local  ************************************    -0.00294    -0.00155  3429.43084
  n-local -3112.70693 -3085.71508 -3131.17747     0.00003    -0.00001     1.40753
  augment  3305.41303  3302.29387  3296.55399    -0.00003     0.00002    -2.57163
  Kinetic 17046.59321 17117.57518 17163.99004    -0.00019     0.00008   -14.85742
  Fock        0.00000     0.00000     0.00000     0.00000     0.00000     0.00000
  -------------------------------------------------------------------------------------
  Total     -50.85283   -21.81189   -18.00329    -0.00015     0.00007    -9.96124
  in kB     -25.07653   -10.75587    -8.87777    -0.00007     0.00004    -4.91208
  external pressure =      -14.90 kB  Pullay stress =        0.00 kB


 VOLUME and BASIS-vectors are now :
 -----------------------------------------------------------------------------
  energy-cutoff  :      600.00
  volume of cell :     3249.06
      direct lattice vectors                 reciprocal lattice vectors
    10.255507753  0.000000000  0.000000000     0.097508580 -0.000000000  0.000000000
     0.000000000 11.355710084  0.000000000     0.000000000  0.088061424  0.000000000
     0.000000000  0.000000000 27.898885647     0.000000000  0.000000000  0.035843726

  length of vectors
    10.255507753 11.355710084 27.898885647     0.097508580  0.088061424  0.035843726


 FORCES acting on ions:
    Electron-Ion                     Ewald-Force                    Non-Local-Force
 -----------------------------------------------------------------------------------------------
   0.657E+01 0.274E-01 0.339E+04   -.134E+01 -.242E-01 -.338E+04   -.114E+01 -.703E-03 -.349E+01
   0.430E+01 -.569E-01 0.278E+04   -.594E+01 0.607E-01 -.278E+04   -.904E-01 -.112E-02 -.737E-01
   0.657E+01 0.244E+00 0.338E+04   -.139E+01 -.247E+00 -.338E+04   -.114E+01 0.888E-03 -.348E+01
   0.288E+01 0.221E+00 0.278E+04   -.457E+01 -.226E+00 -.278E+04   -.816E-01 0.114E-02 -.775E-01
   0.479E+00 0.330E+00 0.125E+04   -.625E+00 -.323E+00 -.125E+04   0.140E+00 -.276E-02 -.649E-02
   0.233E+01 -.126E+01 0.785E+03   -.228E+01 0.124E+01 -.785E+03   -.329E-01 0.262E-01 -.118E+00
   0.204E+01 0.457E+00 0.125E+04   -.216E+01 -.459E+00 -.125E+04   0.127E+00 0.708E-02 -.264E-01
   -.456E+01 0.929E+00 0.775E+03   0.457E+01 -.919E+00 -.775E+03   -.582E-02 -.778E-03 -.111E+00
   -.602E+01 0.175E+00 -.813E+03   0.573E+01 -.162E+00 0.813E+03   0.271E+00 -.311E-02 0.111E+00
   -.554E+01 0.129E+01 -.121E+04   0.563E+01 -.124E+01 0.121E+04   -.449E-01 -.403E-01 -.205E+00
   0.172E+01 0.197E+01 -.787E+03   -.187E+01 -.193E+01 0.787E+03   0.208E+00 -.280E-02 0.760E-01
   0.275E+00 0.210E+01 -.124E+04   -.219E+00 -.204E+01 0.124E+04   -.600E-01 -.182E-01 -.233E+00
   0.235E+02 -.101E+01 -.283E+04   -.246E+02 0.103E+01 0.283E+04   0.964E+00 0.126E-01 -.145E+00
   -.626E+02 -.955E+01 -.323E+04   0.621E+02 0.934E+01 0.323E+04   0.142E+00 0.179E+00 0.922E+00
   0.116E+02 -.728E+01 -.279E+04   -.119E+02 0.740E+01 0.279E+04   0.760E+00 -.220E-01 -.503E-01
   -.697E+02 -.287E+01 -.323E+04   0.697E+02 0.307E+01 0.323E+04   0.118E+00 -.445E-01 0.940E+00
   0.657E+01 -.275E-01 0.339E+04   -.134E+01 0.242E-01 -.338E+04   -.114E+01 0.703E-03 -.349E+01
   0.418E+01 0.410E-04 0.278E+04   -.584E+01 -.124E-04 -.278E+04   -.837E-01 -.535E-05 -.803E-01
   0.644E+01 -.936E-04 0.338E+04   -.123E+01 -.116E-04 -.338E+04   -.114E+01 0.162E-04 -.349E+01
   0.288E+01 -.221E+00 0.278E+04   -.457E+01 0.226E+00 -.278E+04   -.816E-01 -.112E-02 -.775E-01
   0.479E+00 -.330E+00 0.125E+04   -.625E+00 0.323E+00 -.125E+04   0.140E+00 0.276E-02 -.650E-02
   -.556E+00 -.694E-04 0.781E+03   0.558E+00 0.535E-04 -.781E+03   0.374E-02 0.171E-04 -.121E+00
   0.218E+01 0.500E-05 0.125E+04   -.231E+01 0.191E-04 -.125E+04   0.128E+00 0.171E-05 -.241E-01
   -.456E+01 -.929E+00 0.775E+03   0.457E+01 0.919E+00 -.775E+03   -.583E-02 0.783E-03 -.111E+00
   -.602E+01 -.175E+00 -.813E+03   0.573E+01 0.162E+00 0.813E+03   0.271E+00 0.311E-02 0.111E+00
   -.452E+01 -.269E-03 -.123E+04   0.456E+01 0.311E-03 0.123E+04   -.192E-01 0.134E-04 -.216E+00
   -.225E+01 -.154E-03 -.803E+03   0.203E+01 0.167E-03 0.802E+03   0.246E+00 0.319E-05 0.135E+00
   0.275E+00 -.210E+01 -.124E+04   -.219E+00 0.204E+01 0.124E+04   -.600E-01 0.182E-01 -.233E+00
   0.235E+02 0.101E+01 -.283E+04   -.246E+02 -.103E+01 0.283E+04   0.964E+00 -.126E-01 -.145E+00
   -.679E+02 0.650E-03 -.323E+04   0.679E+02 -.589E-03 0.323E+04   0.862E-01 0.160E-04 0.920E+00
   0.160E+02 0.157E-03 -.282E+04   -.168E+02 -.113E-03 0.282E+04   0.860E+00 0.204E-04 -.903E-01
   -.697E+02 0.287E+01 -.323E+04   0.697E+02 -.307E+01 0.323E+04   0.118E+00 0.445E-01 0.940E+00
   0.653E+01 -.454E-04 0.339E+04   -.130E+01 0.184E-05 -.338E+04   -.114E+01 -.135E-04 -.348E+01
   0.430E+01 0.569E-01 0.278E+04   -.594E+01 -.607E-01 -.278E+04   -.903E-01 0.115E-02 -.737E-01
   0.657E+01 -.244E+00 0.338E+04   -.139E+01 0.247E+00 -.338E+04   -.114E+01 -.889E-03 -.348E+01
   0.195E+01 -.104E-04 0.278E+04   -.359E+01 0.903E-05 -.278E+04   -.980E-01 -.141E-05 -.732E-01
   0.672E+00 0.117E-03 0.125E+04   -.815E+00 -.140E-03 -.125E+04   0.126E+00 -.930E-06 0.377E-01
   0.233E+01 0.126E+01 0.785E+03   -.228E+01 -.124E+01 -.785E+03   -.329E-01 -.262E-01 -.118E+00
   0.204E+01 -.457E+00 0.125E+04   -.216E+01 0.458E+00 -.125E+04   0.127E+00 -.707E-02 -.264E-01
   -.701E+01 -.448E-04 0.757E+03   0.704E+01 0.132E-04 -.757E+03   -.278E-01 0.291E-05 -.154E-01
   -.333E+01 0.948E-04 -.820E+03   0.302E+01 -.108E-03 0.820E+03   0.210E+00 0.237E-05 0.138E+00
   -.554E+01 -.129E+01 -.121E+04   0.563E+01 0.124E+01 0.121E+04   -.449E-01 0.402E-01 -.205E+00
   0.172E+01 -.197E+01 -.787E+03   -.187E+01 0.193E+01 0.787E+03   0.208E+00 0.280E-02 0.760E-01
   -.357E+01 0.174E-03 -.129E+04   0.358E+01 -.213E-03 0.129E+04   -.676E-01 -.550E-06 0.287E-01
   0.260E+02 -.333E-03 -.284E+04   -.274E+02 0.298E-03 0.284E+04   0.857E+00 -.120E-05 -.621E-01
   -.626E+02 0.955E+01 -.323E+04   0.621E+02 -.934E+01 0.323E+04   0.142E+00 -.179E+00 0.922E+00
   0.116E+02 0.727E+01 -.279E+04   -.119E+02 -.740E+01 0.279E+04   0.760E+00 0.221E-01 -.503E-01
   -.802E+02 -.445E-04 -.333E+04   0.790E+02 0.677E-04 0.333E+04   0.687E+00 -.392E-05 0.249E+01
   -.332E+02 0.306E-01 0.229E+04   0.383E+02 -.297E-01 -.230E+04   -.703E+01 -.102E-02 0.179E+02
   -.335E+02 0.303E-01 0.229E+04   0.386E+02 -.313E-01 -.231E+04   -.702E+01 0.124E-02 0.178E+02
   0.835E+02 0.165E+00 0.138E+04   -.884E+02 -.168E+00 -.138E+04   0.392E+01 0.492E-03 -.440E+01
   0.759E+02 0.137E-01 0.169E+04   -.830E+02 -.101E-01 -.169E+04   0.757E+01 -.709E-02 -.276E+01
   -.875E+02 -.248E-01 0.195E+04   0.949E+02 0.246E-01 -.195E+04   -.710E+01 -.667E-03 -.329E+00
   -.724E+02 -.680E+00 0.105E+04   0.783E+02 0.725E+00 -.106E+04   -.596E+01 -.395E-01 0.419E+01
   0.842E+02 0.221E+00 0.138E+04   -.891E+02 -.204E+00 -.138E+04   0.388E+01 -.201E-01 -.422E+01
   0.750E+02 0.193E+00 0.169E+04   -.822E+02 -.200E+00 -.169E+04   0.759E+01 0.178E-01 -.277E+01
   -.877E+02 0.956E-01 0.195E+04   0.950E+02 -.930E-01 -.195E+04   -.707E+01 -.754E-02 -.334E+00
   -.770E+02 0.401E+00 0.105E+04   0.832E+02 -.403E+00 -.106E+04   -.616E+01 -.253E-03 0.430E+01
   0.806E+02 -.255E+00 0.148E+03   -.873E+02 0.296E+00 -.144E+03   0.673E+01 -.435E-01 -.487E+01
   0.816E+02 0.323E+00 0.476E+03   -.883E+02 -.372E+00 -.473E+03   0.674E+01 0.473E-01 -.300E+01
   -.819E+02 0.304E+00 0.741E+03   0.886E+02 -.300E+00 -.744E+03   -.669E+01 -.863E-02 0.267E+01
   -.675E+02 0.193E+01 -.146E+03   0.726E+02 -.210E+01 0.141E+03   -.510E+01 0.163E+00 0.487E+01
   0.815E+02 0.210E+01 0.155E+03   -.879E+02 -.218E+01 -.151E+03   0.636E+01 0.783E-01 -.388E+01
   0.787E+02 0.143E+01 0.472E+03   -.853E+02 -.141E+01 -.469E+03   0.661E+01 -.294E-01 -.287E+01
   -.800E+02 0.387E+00 0.742E+03   0.866E+02 -.379E+00 -.745E+03   -.655E+01 -.102E-01 0.273E+01
   -.721E+02 0.196E+01 -.151E+03   0.777E+02 -.206E+01 0.146E+03   -.559E+01 0.918E-01 0.538E+01
   0.833E+02 0.917E+00 -.110E+04   -.897E+02 -.965E+00 0.111E+04   0.637E+01 0.445E-01 -.716E+01
   0.806E+02 -.538E+00 -.734E+03   -.875E+02 0.447E+00 0.737E+03   0.695E+01 0.910E-01 -.301E+01
   -.842E+02 0.865E+00 -.482E+03   0.908E+02 -.810E+00 0.479E+03   -.656E+01 -.761E-01 0.272E+01
   -.638E+02 -.685E+01 -.132E+04   0.663E+02 0.754E+01 0.131E+04   -.264E+01 -.695E+00 0.923E+01
   0.842E+02 -.931E+01 -.107E+04   -.906E+02 0.102E+02 0.108E+04   0.637E+01 -.868E+00 -.554E+01
   0.803E+02 0.181E+01 -.754E+03   -.869E+02 -.170E+01 0.757E+03   0.658E+01 -.177E+00 -.306E+01
   -.794E+02 0.338E+00 -.474E+03   0.859E+02 -.378E+00 0.471E+03   -.644E+01 0.268E-01 0.286E+01
   -.537E+02 -.210E+01 -.132E+04   0.555E+02 0.232E+01 0.131E+04   -.180E+01 -.229E+00 0.923E+01
   0.477E+02 -.114E+01 -.231E+04   -.531E+02 0.111E+01 0.233E+04   0.549E+01 0.198E-01 -.218E+02
   0.658E+02 0.120E+01 -.204E+04   -.708E+02 -.132E+01 0.205E+04   0.505E+01 0.182E+00 -.775E+01
   -.582E+02 -.708E+00 -.169E+04   0.631E+02 0.646E+00 0.169E+04   -.470E+01 -.279E-01 0.274E+01
   0.516E+02 0.560E+01 -.230E+04   -.581E+02 -.684E+01 0.232E+04   0.664E+01 0.138E+01 -.215E+02
   0.583E+02 -.116E+01 -.203E+04   -.630E+02 0.153E+01 0.204E+04   0.453E+01 -.953E+00 -.637E+01
   -.665E+02 0.172E+01 -.168E+04   0.723E+02 -.208E+01 0.167E+04   -.583E+01 0.361E+00 0.294E+01
   -.333E+02 -.617E-04 0.229E+04   0.384E+02 -.395E-05 -.230E+04   -.702E+01 0.695E-04 0.178E+02
   -.335E+02 -.304E-01 0.229E+04   0.386E+02 0.313E-01 -.231E+04   -.702E+01 -.119E-02 0.178E+02
   0.835E+02 -.165E+00 0.138E+04   -.884E+02 0.168E+00 -.138E+04   0.392E+01 -.425E-03 -.440E+01
   0.759E+02 -.137E-01 0.169E+04   -.830E+02 0.101E-01 -.169E+04   0.757E+01 0.709E-02 -.276E+01
   -.875E+02 0.263E-04 0.195E+04   0.948E+02 -.394E-05 -.195E+04   -.709E+01 0.741E-05 -.336E+00
   -.734E+02 0.103E-04 0.105E+04   0.794E+02 -.883E-05 -.106E+04   -.601E+01 -.322E-05 0.425E+01
   0.838E+02 0.185E-04 0.138E+04   -.887E+02 -.165E-04 -.138E+04   0.387E+01 0.202E-04 -.435E+01
   0.752E+02 0.229E-04 0.169E+04   -.824E+02 -.800E-05 -.169E+04   0.758E+01 0.253E-04 -.275E+01
   -.877E+02 -.955E-01 0.195E+04   0.950E+02 0.930E-01 -.195E+04   -.707E+01 0.754E-02 -.334E+00
   -.770E+02 -.401E+00 0.105E+04   0.832E+02 0.403E+00 -.106E+04   -.616E+01 0.264E-03 0.430E+01
   0.806E+02 0.255E+00 0.148E+03   -.873E+02 -.296E+00 -.144E+03   0.673E+01 0.435E-01 -.487E+01
   0.816E+02 -.323E+00 0.476E+03   -.883E+02 0.372E+00 -.473E+03   0.674E+01 -.473E-01 -.300E+01
   -.804E+02 -.117E-03 0.743E+03   0.869E+02 0.117E-03 -.746E+03   -.657E+01 -.901E-05 0.275E+01
   -.692E+02 -.129E-03 -.148E+03   0.745E+02 0.123E-03 0.143E+03   -.533E+01 0.399E-05 0.512E+01
   0.804E+02 0.126E-04 0.152E+03   -.868E+02 -.145E-04 -.148E+03   0.643E+01 -.151E-05 -.458E+01
   0.787E+02 -.989E-04 0.472E+03   -.853E+02 0.992E-04 -.469E+03   0.658E+01 -.535E-05 -.305E+01
   -.800E+02 -.387E+00 0.742E+03   0.866E+02 0.379E+00 -.745E+03   -.655E+01 0.102E-01 0.273E+01
   -.721E+02 -.196E+01 -.151E+03   0.777E+02 0.206E+01 0.146E+03   -.559E+01 -.919E-01 0.538E+01
   0.833E+02 -.917E+00 -.110E+04   -.897E+02 0.965E+00 0.111E+04   0.637E+01 -.445E-01 -.716E+01
   0.806E+02 0.537E+00 -.734E+03   -.875E+02 -.446E+00 0.737E+03   0.695E+01 -.910E-01 -.301E+01
   -.817E+02 -.173E-04 -.486E+03   0.880E+02 0.106E-04 0.484E+03   -.633E+01 0.249E-04 0.251E+01
   -.602E+02 0.260E-03 -.132E+04   0.625E+02 -.299E-03 0.131E+04   -.233E+01 0.792E-04 0.937E+01
   0.834E+02 -.136E-03 -.109E+04   -.898E+02 0.126E-03 0.110E+04   0.640E+01 0.426E-04 -.710E+01
   0.801E+02 -.196E-04 -.747E+03   -.866E+02 0.100E-04 0.751E+03   0.657E+01 0.196E-04 -.318E+01
   -.794E+02 -.339E+00 -.474E+03   0.859E+02 0.379E+00 0.471E+03   -.644E+01 -.268E-01 0.286E+01
   -.537E+02 0.210E+01 -.132E+04   0.555E+02 -.232E+01 0.131E+04   -.180E+01 0.229E+00 0.923E+01
   0.477E+02 0.114E+01 -.231E+04   -.531E+02 -.111E+01 0.233E+04   0.549E+01 -.198E-01 -.218E+02
   0.658E+02 -.120E+01 -.204E+04   -.708E+02 0.133E+01 0.205E+04   0.505E+01 -.182E+00 -.775E+01
   -.637E+02 0.670E-05 -.169E+04   0.696E+02 0.636E-05 0.169E+04   -.585E+01 -.486E-05 0.301E+01
   0.481E+02 0.163E-03 -.231E+04   -.538E+02 -.164E-03 0.233E+04   0.573E+01 0.767E-05 -.219E+02
   0.573E+02 -.424E-04 -.205E+04   -.616E+02 0.675E-04 0.205E+04   0.431E+01 0.237E-04 -.826E+01
   -.665E+02 -.172E+01 -.168E+04   0.723E+02 0.208E+01 0.167E+04   -.583E+01 -.361E+00 0.294E+01
   -.332E+02 -.306E-01 0.229E+04   0.383E+02 0.297E-01 -.230E+04   -.703E+01 0.103E-02 0.179E+02
   -.336E+02 -.701E-05 0.229E+04   0.387E+02 0.209E-05 -.231E+04   -.703E+01 -.207E-04 0.178E+02
   0.840E+02 0.587E-04 0.139E+04   -.890E+02 -.247E-04 -.138E+04   0.402E+01 -.452E-04 -.439E+01
   0.760E+02 -.668E-04 0.169E+04   -.831E+02 0.683E-05 -.169E+04   0.756E+01 0.456E-05 -.275E+01
   -.875E+02 0.248E-01 0.195E+04   0.949E+02 -.246E-01 -.195E+04   -.710E+01 0.654E-03 -.329E+00
   -.724E+02 0.680E+00 0.105E+04   0.783E+02 -.725E+00 -.106E+04   -.596E+01 0.395E-01 0.419E+01
   0.842E+02 -.221E+00 0.138E+04   -.891E+02 0.204E+00 -.138E+04   0.388E+01 0.201E-01 -.422E+01
   0.750E+02 -.193E+00 0.169E+04   -.822E+02 0.200E+00 -.169E+04   0.759E+01 -.179E-01 -.277E+01
   -.876E+02 -.390E-04 0.195E+04   0.949E+02 0.877E-05 -.195E+04   -.706E+01 -.211E-04 -.353E+00
   -.841E+02 -.371E-04 0.105E+04   0.912E+02 0.140E-04 -.105E+04   -.696E+01 0.159E-05 0.404E+01
   0.840E+02 0.403E-04 0.146E+03   -.914E+02 -.506E-04 -.141E+03   0.739E+01 0.126E-04 -.488E+01
   0.793E+02 0.157E-03 0.482E+03   -.857E+02 -.144E-03 -.479E+03   0.643E+01 -.187E-05 -.269E+01
   -.819E+02 -.304E+00 0.741E+03   0.886E+02 0.300E+00 -.744E+03   -.669E+01 0.858E-02 0.267E+01
   -.675E+02 -.193E+01 -.146E+03   0.726E+02 0.210E+01 0.141E+03   -.510E+01 -.163E+00 0.487E+01
   0.815E+02 -.210E+01 0.155E+03   -.879E+02 0.218E+01 -.151E+03   0.636E+01 -.783E-01 -.388E+01
   0.787E+02 -.143E+01 0.472E+03   -.853E+02 0.141E+01 -.469E+03   0.661E+01 0.294E-01 -.287E+01
   -.770E+02 -.144E-03 0.742E+03   0.833E+02 0.152E-03 -.744E+03   -.629E+01 -.199E-04 0.280E+01
   -.854E+02 0.453E-04 -.166E+03   0.926E+02 -.289E-04 0.162E+03   -.721E+01 -.222E-04 0.448E+01
   0.877E+02 0.820E-04 -.110E+04   -.950E+02 -.495E-04 0.111E+04   0.743E+01 -.343E-04 -.697E+01
   0.740E+02 0.175E-03 -.742E+03   -.801E+02 -.153E-03 0.745E+03   0.616E+01 -.230E-04 -.319E+01
   -.842E+02 -.865E+00 -.482E+03   0.908E+02 0.810E+00 0.479E+03   -.656E+01 0.761E-01 0.272E+01
   -.638E+02 0.685E+01 -.132E+04   0.663E+02 -.754E+01 0.131E+04   -.264E+01 0.695E+00 0.923E+01
   0.842E+02 0.931E+01 -.107E+04   -.906E+02 -.102E+02 0.108E+04   0.637E+01 0.868E+00 -.554E+01
   0.803E+02 -.181E+01 -.754E+03   -.869E+02 0.170E+01 0.757E+03   0.658E+01 0.177E+00 -.306E+01
   -.760E+02 0.184E-03 -.492E+03   0.823E+02 -.201E-03 0.490E+03   -.637E+01 0.187E-04 0.226E+01
   -.740E+02 0.194E-03 -.136E+04   0.791E+02 -.208E-03 0.135E+04   -.468E+01 -.615E-05 0.786E+01
   0.604E+02 -.143E-03 -.231E+04   -.674E+02 0.100E-03 0.233E+04   0.743E+01 0.111E-04 -.208E+02
   0.571E+02 0.210E-03 -.203E+04   -.613E+02 -.230E-03 0.204E+04   0.433E+01 0.639E-05 -.757E+01
   -.582E+02 0.708E+00 -.169E+04   0.631E+02 -.646E+00 0.169E+04   -.470E+01 0.279E-01 0.274E+01
   0.516E+02 -.560E+01 -.230E+04   -.581E+02 0.684E+01 0.232E+04   0.664E+01 -.138E+01 -.215E+02
   0.583E+02 0.116E+01 -.203E+04   -.630E+02 -.153E+01 0.204E+04   0.453E+01 0.953E+00 -.637E+01
   -.452E+02 0.866E-03 -.162E+04   0.490E+02 -.940E-03 0.161E+04   -.418E+01 0.125E-04 0.634E+01
 -----------------------------------------------------------------------------------------------
   -.130E+02 -.230E-03 0.666E+02   0.000E+00 -.173E-11 0.364E-11   0.130E+02 0.152E-03 -.666E+02


 POSITION                                       TOTAL-FORCE (eV/Angst)
 -----------------------------------------------------------------------------------
      8.27879      9.46309      8.23274         4.054535      0.002485      1.750730
      6.06419      7.57047      9.11223        -1.713097      0.002590     -1.987893
      3.15104      7.57047      8.23274         4.019678     -0.002028      1.728561
      0.93644      9.46309      9.11223        -1.754001     -0.003954     -1.988853
      9.69021      9.46414     11.78484        -0.002436      0.004065      0.003833
      7.45582      7.56632     12.59079         0.006872      0.001557      0.014755
      4.55442      7.56832     11.78033         0.005489      0.004693     -0.004777
      2.31804      9.46274     12.60483        -0.002305      0.009605      0.006483
      0.88536      9.46557     15.33951        -0.019472      0.011124      0.015786
      8.88249      7.56675     16.05066         0.024243      0.008755      0.102467
      5.99444      7.56883     15.31026         0.054580      0.035095     -0.000793
      3.74178      9.46331     16.08886        -0.020338      0.040155      0.003069
      2.37142      9.45552     18.96692        -0.090439      0.032844      0.028675
      0.00867      7.55877     19.52216        -0.400766     -0.032797      0.249806
      7.47658      7.55965     18.86513         0.494818      0.093336      0.516676
      5.16775      9.47305     19.52626         0.019036      0.158059      0.036833
      8.27879      1.89262      8.23274         4.054367     -0.002535      1.751094
      6.06419      0.00000      9.11223        -1.735956      0.000024     -1.983813
      3.15104      0.00000      8.23274         4.044714     -0.000090      1.743602
      0.93644      1.89262      9.11223        -1.753955      0.004068     -1.988746
      9.69021      1.89157     11.78484        -0.002401     -0.004088      0.003825
      7.44970     11.35571     12.59589        -0.000812      0.000002      0.015336
      4.55731     11.35571     11.78391         0.002013      0.000027      0.006532
      2.31804      1.89297     12.60483        -0.002331     -0.009579      0.006461
      0.88536      1.89013     15.33951        -0.019480     -0.011143      0.015780
      8.86914     11.35571     16.06715         0.003729      0.000057      0.051378
      6.00055     11.35571     15.32574         0.022952      0.000017      0.016587
      3.74178      1.89240     16.08886        -0.020339     -0.040106      0.003047
      2.37142      1.90019     18.96692        -0.090424     -0.032841      0.028689
      0.03296      0.00000     19.52054        -0.019751      0.000078      0.065846
      7.50887      0.00000     18.93569         0.055576      0.000066      0.055410
      5.16775      1.88266     19.52626         0.019128     -0.158079      0.036827
      8.27879      5.67786      8.23274         4.062660     -0.000057      1.744832
      6.06419      3.78524      9.11223        -1.713055     -0.002535     -1.987912
      3.15104      3.78524      8.23274         4.019814      0.001973      1.728890
      0.93644      5.67786      9.11223        -1.723677     -0.000002     -1.922885
      9.70375      5.67786     11.78023        -0.010851     -0.000024     -0.004308
      7.45582      3.78939     12.59079         0.006828     -0.001593      0.014721
      4.55442      3.78739     11.78033         0.005531     -0.004688     -0.004812
      2.32218      5.67785     12.63414        -0.010660     -0.000029     -0.040045
      0.91328      5.67785     15.34668        -0.091002     -0.000011     -0.030125
      8.88249      3.78896     16.05066         0.024270     -0.008782      0.102471
      5.99445      3.78688     15.31026         0.054544     -0.035092     -0.000745
      3.76345      5.67786     16.17407        -0.073127     -0.000039     -0.305481
      2.40609      5.67785     18.98145        -0.489552     -0.000037     -0.101939
      0.00867      3.79694     19.52216        -0.400796      0.032806      0.249660
      7.47658      3.79606     18.86513         0.494721     -0.093357      0.516609
      5.19267      5.67786     19.69976        -0.672840      0.000020     -1.873734
      4.99611      7.57047      7.50000        -1.903071     -0.000103      1.163819
     10.12387      9.46309      7.50000        -1.897111      0.000287      1.157429
      9.34687      9.46309      9.84497        -1.020721     -0.002424     -0.171200
      6.43372      9.46309      8.96548         0.387390     -0.003518     -0.070291
      7.90927      7.57047      8.37949         0.259590     -0.000909     -1.109280
      6.39322      7.57047     11.01797        -0.082123      0.004849      0.369749
      4.21912      7.57047      9.84497        -1.030254     -0.002812     -0.163153
      1.30597      7.57047      8.96548         0.400191      0.010031     -0.078584
      2.78151      9.46309      8.37949         0.271862     -0.004918     -1.111772
      1.26547      9.46309     11.01797         0.008935     -0.003089      0.444162
      0.50927      9.46562     13.38248        -0.001012     -0.002519     -0.008577
      7.83726      9.46241     12.47916        -0.001746     -0.001828     -0.001315
      9.32211      7.56985     11.90573         0.001782     -0.004514     -0.002120
      7.82816      7.56047     14.50578        -0.021998     -0.000711     -0.023259
      5.63220      7.56403     13.37887        -0.006158     -0.004332     -0.001207
      2.70685      7.56945     12.49189        -0.002703     -0.012328      0.005675
      4.18503      9.46188     11.90352        -0.000556     -0.001931     -0.000397
      2.70217      9.45941     14.52865         0.008558     -0.004359      0.001025
      1.97796      9.45876     16.92489         0.011931     -0.004045     -0.017971
      9.27326      9.46447     15.96962         0.004629     -0.000026     -0.014864
      0.52244      7.56864     15.42841         0.018486     -0.021529     -0.011884
      9.35710      7.58597     17.98527        -0.060490     -0.009405     -0.171136
      7.11809      7.60327     16.88274        -0.053624     -0.022490     -0.059006
      4.15174      7.56878     16.02033        -0.020216     -0.061909      0.025137
      5.62584      9.46336     15.41521        -0.004363     -0.013234     -0.000158
      4.21938      9.47407     18.01235         0.026775     -0.013193     -0.001333
      3.55849      9.45961     20.39286         0.031415     -0.011424     -0.001193
      0.52737      9.45521     19.74018         0.067269      0.055342     -0.033528
      1.98577      7.56587     18.99900         0.158536     -0.089476     -0.031626
      8.63009      7.49761     20.36066         0.210960      0.143075     -0.509154
      5.68594      7.58983     19.73140        -0.138431     -0.578521      0.295371
      7.12040      9.46690     18.93956        -0.070509     -0.003151     -0.014500
      4.99611      0.00000      7.50000        -1.900707      0.000004      1.158950
     10.12387      1.89262      7.50000        -1.897099     -0.000268      1.157460
      9.34687      1.89262      9.84497        -1.020673      0.002434     -0.171255
      6.43372      1.89262      8.96548         0.387442      0.003507     -0.070271
      7.90927      0.00000      8.37949         0.263247      0.000030     -1.111343
      6.39322      0.00000     11.01797        -0.055646     -0.000001      0.376038
      4.21912      0.00000      9.84497        -1.029090      0.000023     -0.171469
      1.30597      0.00000      8.96548         0.394243      0.000041     -0.070877
      2.78151      1.89262      8.37949         0.271846      0.005002     -1.111726
      1.26547      1.89262     11.01797         0.008953      0.003078      0.444104
      0.50927      1.89009     13.38248        -0.000991      0.002523     -0.008549
      7.83726      1.89330     12.47916        -0.001747      0.001785     -0.001324
      9.31781     11.35571     11.90308         0.000295     -0.000009      0.001405
      7.82385     11.35571     14.51423        -0.011902     -0.000002     -0.020109
      5.63300     11.35571     13.37712        -0.004073     -0.000003     -0.007225
      2.70742     11.35571     12.49037        -0.000008     -0.000005      0.000014
      4.18503      1.89383     11.90352        -0.000577      0.001945     -0.000412
      2.70217      1.89630     14.52865         0.008560      0.004356      0.001004
      1.97796      1.89695     16.92489         0.011908      0.004030     -0.017978
      9.27326      1.89124     15.96962         0.004610      0.000031     -0.014857
      0.52020     11.35571     15.43376         0.010198      0.000019     -0.007595
      9.35578     11.35571     17.99511        -0.019771      0.000041     -0.044746
      7.10996     11.35571     16.90050        -0.016657      0.000034     -0.034548
      4.14208     11.35571     16.00007        -0.006249      0.000011      0.002509
      5.62584      1.89235     15.41521        -0.004366      0.013267     -0.000156
      4.21938      1.88165     18.01235         0.026814      0.013243     -0.001265
      3.55849      1.89610     20.39286         0.031406      0.011442     -0.001194
      0.52737      1.90050     19.74018         0.067252     -0.055371     -0.033512
      1.98878      0.00000     18.98985         0.038126      0.000009     -0.017457
      8.67761      0.00000     20.37844        -0.015578      0.000007     -0.052701
      5.68291      0.00000     19.74964        -0.050330      0.000049     -0.018413
      7.12040      1.88881     18.93957        -0.070566      0.003185     -0.014468
      4.99611      3.78524      7.50000        -1.903121      0.000082      1.163872
     10.12387      5.67786      7.50000        -1.910616     -0.000025      1.146718
      9.34687      5.67786      9.84497        -1.031708     -0.000011     -0.175284
      6.43372      5.67786      8.96548         0.384639     -0.000055     -0.069537
      7.90927      3.78524      8.37949         0.259598      0.000934     -1.109255
      6.39322      3.78524     11.01797        -0.082146     -0.004868      0.369714
      4.21912      3.78524      9.84497        -1.030269      0.002798     -0.163159
      1.30597      3.78524      8.96548         0.400206     -0.010094     -0.078570
      2.78151      5.67786      8.37949         0.277280     -0.000051     -1.117643
      1.26547      5.67786     11.01797         0.075713     -0.000021      0.581830
      0.51572      5.67785     13.38953         0.013977      0.000003      0.020082
      7.83818      5.67786     12.46955         0.001870      0.000012      0.000623
      9.32211      3.78586     11.90573         0.001806      0.004507     -0.002155
      7.82816      3.79524     14.50578        -0.021993      0.000703     -0.023226
      5.63220      3.79168     13.37887        -0.006184      0.004354     -0.001193
      2.70685      3.78626     12.49189        -0.002709      0.012297      0.005672
      4.18450      5.67785     11.90427        -0.002692     -0.000012      0.006693
      2.71601      5.67785     14.55631         0.060975     -0.000005      0.077232
      1.98391      5.67786     16.94636         0.107568     -0.000001      0.080843
      9.27790      5.67786     15.98841         0.018015     -0.000000     -0.021854
      0.52244      3.78707     15.42841         0.018468      0.021524     -0.011878
      9.35710      3.76974     17.98527        -0.060494      0.009416     -0.171070
      7.11809      3.75244     16.88274        -0.053648      0.022478     -0.058971
      4.15174      3.78693     16.02032        -0.020206      0.061915      0.025136
      5.64377      5.67786     15.45351        -0.041032      0.000003      0.017986
      4.23111      5.67785     18.08914         0.358996     -0.000019      0.714432
      3.54030      5.67785     20.45362         0.451798     -0.000031      0.261649
      0.52855      5.67786     19.73656         0.185613     -0.000013     -0.077867
      1.98577      3.78984     18.99900         0.158555      0.089497     -0.031611
      8.63009      3.85810     20.36066         0.210905     -0.143072     -0.509145
      5.68594      3.76588     19.73140        -0.138417      0.578478      0.295355
      7.08892      5.67786     18.82668        -0.369072     -0.000060      0.473275
 -----------------------------------------------------------------------------------
    total drift:                               -0.010455     -0.000077     -0.040569


--------------------------------------------------------------------------------------------------------



  FREE ENERGIE OF THE ION-ELECTRON SYSTEM (eV)
  ---------------------------------------------------
  free  energy   TOTEN  =     -1624.55339827 eV

  energy  without entropy=    -1624.55339827  energy(sigma->0) =    -1624.55339827



--------------------------------------------------------------------------------------------------------


    POTLOK:  cpu time      1.5893: real time      1.5896


--------------------------------------------------------------------------------------------------------


     LOOP+:  cpu time    742.4402: real time    742.8772
    4ORBIT:  cpu time      0.0000: real time      0.0000

 total amount of memory used by VASP MPI-rank0   110221. kBytes
=======================================================================

   base      :      30000. kBytes
   nonl-proj :      25519. kBytes
   fftplans  :       6412. kBytes
   grid      :      14821. kBytes
   one-center:        139. kBytes
   wavefun   :      33330. kBytes

  
  
 General timing and accounting informations for this job:
 ========================================================
  
                  Total CPU time used (sec):      797.345
                            User time (sec):      792.299
                          System time (sec):        5.046
                         Elapsed time (sec):      810.205
  
                   Maximum memory used (kb):      418112.
                   Average memory used (kb):          N/A
  
                          Minor page faults:       381015
                          Major page faults:          589
                 Voluntary context switches:        10638
