 vasp.6.3.0 20Jan22 (build Apr  1 2022 16:44:48) complex                         
 executed on        HPECrayEX_GCC date 2022.11.13  16:03:59
 running  512 mpi-ranks, with    1 threads/rank
 distrk:  each k-point on  512 cores,    1 groups
 distr:  one band on NCORE=   8 cores,   64 groups


--------------------------------------------------------------------------------------------------------


 INCAR:
   SYSTEM = MgO-rocksalt
   ISMEAR = 0
   SIGMA = 0.05
   EDIFF = 1E-6
   ALGO = ALL
   ISTART = 0
   IBRION = -1
   NSW = 0
   ISYM = 0
   DIPOL = 0.5 0.5 0.5
   IDIPOL = 3
   LDIPOL = .TRUE.
   GGA = PE
   IVDW = 1
   VDW_C6 = 0.63 0.70
   VDW_R0 = 1.243 1.342
   ENCUT = 600
   PREC = Accurate
   LASPH = .TRUE.
   LREAL = .FALSE.
   ISPIN = 2
   MAGMOM = 0.0 0.0 0.0 0.0 0.0 0.0 0.0 0.0 0.0 0.0 0.0 0.0 0.0 0.0 0.0 0.0 0.0 0.0 0.0 0.0 0.0 0.0 0.0 0.0 0.0 0.0 0.0 0.0 0.0 0.0 0.0 0.0 0.0 0.0 0.0 0.0 0.0 0.0 0.0 0.0 0.0 0.0 0.0 0.0 0.0 0.0 0.0 0.0 0.0 0.0 0.0 0.0 0.0 0.0 0.0 0.0 0.0 0.0 0.0 0.0 0.0 0.0 0.0 0.0
   NELM = 200
   NELMIN = 8
   NCORE = 8
   KPAR = 1
   LWAVE = .FALSE.
   LCHARG = .FALSE.

 POTCAR:    PAW_PBE Mg_pv 13Apr2007               
 POTCAR:    PAW_PBE O 08Apr2002                   
 POTCAR:    PAW_PBE Mg_pv 13Apr2007               
   SHA256 =  f474ac0dd33840b9ae76c01d57fea79fdf77cdfbb07d5ade72c65f83c709b62b Mg_pv/POTCAR          
   COPYR  = (c) Copyright 13Apr2007 Georg Kresse                                                    
   COPYR  = This file is part of the software VASP. Any use, copying, and all other rights are regul
   COPYR  = If you do not have a valid VASP license, you may not use, copy or distribute this file. 
   VRHFIN =Mg: p6s2                                                                                 
   LEXCH  = PE                                                                                      
   EATOM  =  1056.7344 eV,   77.6678 Ry                                                             
                                                                                                    
   TITEL  = PAW_PBE Mg_pv 13Apr2007                                                                 
   LULTRA =        F    use ultrasoft PP ?                                                          
   IUNSCR =        1    unscreen: 0-lin 1-nonlin 2-no                                               
   RPACOR =    1.500    partial core radius                                                         
   POMASS =   24.305; ZVAL   =    8.000    mass and valenz                                          
   RCORE  =    2.000    outmost cutoff radius                                                       
   RWIGS  =    2.000; RWIGS  =    1.058    wigner-seitz radius (au A)                               
   ENMAX  =  403.929; ENMIN  =  302.947 eV                                                          
   RCLOC  =    1.506    cutoff for local pot                                                        
   LCOR   =        T    correct aug charges                                                         
   LPAW   =        T    paw PP                                                                      
   EAUG   =  758.780                                                                                
   DEXC   =    0.000                                                                                
   RMAX   =    2.045    core radius for proj-oper                                                   
   RAUG   =    1.300    factor for augmentation sphere                                              
   RDEP   =    2.025    radius for radial grids                                                     
   RDEPT  =    1.557    core radius for aug-charge                                                  
                                                                                                    
   Atomic configuration                                                                             
    5 entries                                                                                       
     n  l   j            E        occ.                                                              
     1  0  0.50     -1259.6230   2.0000                                                             
     2  0  0.50       -79.8442   2.0000                                                             
     2  1  1.50       -46.6121   6.0000                                                             
     3  0  0.50        -4.7055   2.0000                                                             
     3  2  1.50        -1.3606   0.0000                                                             
   Description                                                                                      
     l       E           TYP  RCUT    TYP  RCUT                                                     
     1    -46.6121073     23  1.600                                                                 
     1      2.7211652     23  1.600                                                                 
     0     -4.7054661     23  2.000                                                                 
     0     61.2262170     23  2.000                                                                 
     2     -1.3605826     23  2.000                                                                 
  local pseudopotential read in
  partial core-charges read in
  partial kinetic energy density read in
  atomic valenz-charges read in
  non local Contribution for L=           1  read in
    real space projection operators read in
  non local Contribution for L=           1  read in
    real space projection operators read in
  non local Contribution for L=           0  read in
    real space projection operators read in
  non local Contribution for L=           0  read in
    real space projection operators read in
  non local Contribution for L=           2  read in
    real space projection operators read in
    PAW grid and wavefunctions read in

   number of l-projection  operators is LMAX  =           5
   number of lm-projection operators is LMMAX =          13

 POTCAR:    PAW_PBE O 08Apr2002                   
   SHA256 =  818f92134a0a090dccd8ba1447fa70422a3b330e708bb4f08108d8ae51209ddf O/POTCAR              
   COPYR  = (c) Copyright 08Apr2002 Georg Kresse                                                    
   COPYR  = This file is part of the software VASP. Any use, copying, and all other rights are regul
   COPYR  = If you do not have a valid VASP license, you may not use, copy or distribute this file. 
   VRHFIN =O: s2p4                                                                                  
   LEXCH  = PE                                                                                      
   EATOM  =   432.3788 eV,   31.7789 Ry                                                             
                                                                                                    
   TITEL  = PAW_PBE O 08Apr2002                                                                     
   LULTRA =        F    use ultrasoft PP ?                                                          
   IUNSCR =        1    unscreen: 0-lin 1-nonlin 2-no                                               
   RPACOR =    1.200    partial core radius                                                         
   POMASS =   16.000; ZVAL   =    6.000    mass and valenz                                          
   RCORE  =    1.520    outmost cutoff radius                                                       
   RWIGS  =    1.550; RWIGS  =    0.820    wigner-seitz radius (au A)                               
   ENMAX  =  400.000; ENMIN  =  300.000 eV                                                          
   ICORE  =        2    local potential                                                             
   LCOR   =        T    correct aug charges                                                         
   LPAW   =        T    paw PP                                                                      
   EAUG   =  605.392                                                                                
   DEXC   =    0.000                                                                                
   RMAX   =    1.553    core radius for proj-oper                                                   
   RAUG   =    1.300    factor for augmentation sphere                                              
   RDEP   =    1.550    radius for radial grids                                                     
   RDEPT  =    1.329    core radius for aug-charge                                                  
                                                                                                    
   Atomic configuration                                                                             
    4 entries                                                                                       
     n  l   j            E        occ.                                                              
     1  0  0.50      -514.6923   2.0000                                                             
     2  0  0.50       -23.9615   2.0000                                                             
     2  1  0.50        -9.0305   4.0000                                                             
     3  2  1.50        -9.5241   0.0000                                                             
   Description                                                                                      
     l       E           TYP  RCUT    TYP  RCUT                                                     
     0    -23.9615318     23  1.200                                                                 
     0     -9.5240782     23  1.200                                                                 
     1     -9.0304911     23  1.520                                                                 
     1      8.1634956     23  1.520                                                                 
     2     -9.5240782      7  1.500                                                                 
  local pseudopotential read in
  partial core-charges read in
  partial kinetic energy density read in
  kinetic energy density of atom read in
  atomic valenz-charges read in
  non local Contribution for L=           0  read in
    real space projection operators read in
  non local Contribution for L=           0  read in
    real space projection operators read in
  non local Contribution for L=           1  read in
    real space projection operators read in
  non local Contribution for L=           1  read in
    real space projection operators read in
    PAW grid and wavefunctions read in

   number of l-projection  operators is LMAX  =           4
   number of lm-projection operators is LMMAX =           8

 -----------------------------------------------------------------------------
|                                                                             |
|               ----> ADVICE to this user running VASP <----                  |
|                                                                             |
|     You have a (more or less) 'large supercell' and for larger cells it     |
|     might be more efficient to use real-space projection operators.         |
|     Therefore, try LREAL= Auto in the INCAR file.                           |
|     Mind: For very accurate calculation, you might also keep the            |
|     reciprocal projection scheme (i.e. LREAL=.FALSE.).                      |
|                                                                             |
 -----------------------------------------------------------------------------

  PAW_PBE Mg_pv 13Apr2007               :
 energy of atom  1       EATOM=-1056.7344
 kinetic energy error for atom=    0.0221 (will be added to EATOM!!)
  PAW_PBE O 08Apr2002                   :
 energy of atom  2       EATOM= -432.3788
 kinetic energy error for atom=    0.0168 (will be added to EATOM!!)


 POSCAR: Mg  O
  positions in direct lattice
  No initial velocities read in
 exchange correlation table for  LEXCH =        8
   RHO(1)=    0.500       N(1)  =     2000
   RHO(2)=  100.500       N(2)  =     4000



--------------------------------------------------------------------------------------------------------


 ion  position               nearest neighbor table
   1  0.250  0.000  0.352-  35 2.10  36 2.10  43 2.10  52 2.10  33 2.10
   2  0.500  0.250  0.352-  35 2.10  36 2.10  44 2.10  51 2.10  34 2.10
   3  0.250  0.250  0.451-  33 2.10  34 2.10  41 2.10  50 2.10  35 2.10  39 2.11
   4  0.500  0.000  0.451-  33 2.10  34 2.10  42 2.10  49 2.10  36 2.10  40 2.10
   5  0.250  0.000  0.550-  56 2.10  39 2.10  40 2.10  47 2.10  33 2.11  37 2.13
   6  0.500  0.250  0.550-  48 2.10  39 2.10  55 2.10  40 2.10  34 2.11  38 2.13
   7  0.250  0.250  0.648-  39 2.09  37 2.10  54 2.10  38 2.10  45 2.10
   8  0.500  0.000  0.647-  40 2.09  46 2.10  38 2.10  37 2.10  53 2.10
   9  0.250  0.500  0.352-  35 2.10  43 2.10  44 2.10  60 2.10  41 2.10
  10  0.500  0.750  0.352-  36 2.10  43 2.10  44 2.10  59 2.10  42 2.10
  11  0.250  0.750  0.451-  33 2.10  41 2.10  42 2.10  58 2.10  43 2.10  47 2.10
  12  0.500  0.500  0.451-  34 2.10  41 2.10  42 2.10  57 2.10  44 2.10  48 2.11
  13  0.250  0.500  0.550-  48 2.10  39 2.10  47 2.10  64 2.10  41 2.11  45 2.13
  14  0.500  0.750  0.550-  48 2.10  63 2.10  47 2.10  40 2.10  42 2.11  46 2.12
  15  0.250  0.750  0.647-  47 2.09  46 2.10  62 2.10  37 2.10  45 2.10
  16  0.500  0.500  0.648-  38 2.10  45 2.10  48 2.10  46 2.11  61 2.11
  17  0.750  0.000  0.352-  36 2.10  51 2.10  52 2.10  59 2.10  49 2.10
  18  0.000  0.250  0.352-  35 2.10  51 2.10  52 2.10  60 2.10  50 2.10
  19  0.750  0.250  0.451-  34 2.10  49 2.10  50 2.10  57 2.10  51 2.10  55 2.10
  20  0.000  0.000  0.451-  33 2.10  49 2.10  50 2.10  58 2.10  52 2.10  56 2.11
  21  0.750  1.000  0.550-  63 2.10  56 2.10  40 2.10  55 2.10  49 2.11  53 2.13
  22  0.000  0.250  0.550-  56 2.10  39 2.10  64 2.10  55 2.10  50 2.11  54 2.13
  23  0.750  0.250  0.647-  55 2.09  61 2.10  53 2.10  54 2.10  38 2.10
  24  1.000  1.000  0.648-  56 2.09  54 2.10  37 2.10  53 2.10  62 2.10
  25  0.750  0.500  0.352-  44 2.10  51 2.10  59 2.10  60 2.10  57 2.10
  26  0.000  0.750  0.352-  43 2.10  52 2.10  59 2.10  60 2.10  58 2.10
  27  0.750  0.750  0.451-  42 2.10  49 2.10  57 2.10  58 2.10  59 2.10  63 2.11
  28  0.000  0.500  0.451-  41 2.10  50 2.10  57 2.10  58 2.10  60 2.10  64 2.10
  29  0.750  0.500  0.550-  48 2.10  63 2.10  55 2.10  64 2.10  57 2.11  61 2.12
  30  1.000  0.750  0.550-  63 2.10  56 2.10  64 2.10  47 2.10  58 2.11  62 2.13
  31  0.750  0.750  0.648-  62 2.10  53 2.10  63 2.10  61 2.11  46 2.11
  32  0.000  0.500  0.647-  64 2.09  61 2.10  45 2.10  54 2.10  62 2.10
  33  0.250  0.000  0.451-   3 2.10   4 2.10  11 2.10  20 2.10   1 2.10   5 2.11
  34  0.500  0.250  0.451-   3 2.10   4 2.10  12 2.10  19 2.10   2 2.10   6 2.11
  35  0.250  0.250  0.352-   1 2.10   2 2.10   9 2.10  18 2.10   3 2.10
  36  0.500  0.000  0.352-   1 2.10   2 2.10  10 2.10  17 2.10   4 2.10
  37  0.250  0.000  0.650-   7 2.10  24 2.10   8 2.10  15 2.10   5 2.13
  38  0.500  0.250  0.650-   8 2.10   7 2.10  23 2.10  16 2.10   6 2.13
  39  0.250  0.250  0.550-   7 2.09  22 2.10   5 2.10  13 2.10   6 2.10   3 2.11
  40  0.500  0.000  0.549-   8 2.09   5 2.10  21 2.10   6 2.10  14 2.10   4 2.10
  41  0.250  0.500  0.451-   3 2.10  11 2.10  12 2.10  28 2.10   9 2.10  13 2.11
  42  0.500  0.750  0.451-   4 2.10  11 2.10  12 2.10  27 2.10  10 2.10  14 2.11
  43  0.250  0.750  0.352-   1 2.10   9 2.10  10 2.10  26 2.10  11 2.10
  44  0.500  0.500  0.352-   2 2.10   9 2.10  10 2.10  25 2.10  12 2.10
  45  0.250  0.500  0.650-  32 2.10   7 2.10  15 2.10  16 2.10  13 2.13
  46  0.499  0.751  0.649-   8 2.10  15 2.10  16 2.11  31 2.11  14 2.12
  47  0.250  0.750  0.549-  15 2.09   5 2.10  13 2.10  30 2.10  14 2.10  11 2.10
  48  0.500  0.500  0.550-   6 2.10  13 2.10  14 2.10  29 2.10  16 2.10  12 2.11
  49  0.750  0.000  0.451-   4 2.10  19 2.10  20 2.10  27 2.10  17 2.10  21 2.11
  50  0.000  0.250  0.451-   3 2.10  19 2.10  20 2.10  28 2.10  18 2.10  22 2.11
  51  0.750  0.250  0.352-   2 2.10  17 2.10  18 2.10  25 2.10  19 2.10
  52  0.000  0.000  0.352-   1 2.10  17 2.10  18 2.10  26 2.10  20 2.10
  53  0.750  1.000  0.650-  23 2.10  24 2.10   8 2.10  31 2.10  21 2.13
  54  0.000  0.250  0.650-  24 2.10   7 2.10  23 2.10  32 2.10  22 2.13
  55  0.750  0.250  0.549-  23 2.09  22 2.10   6 2.10  21 2.10  29 2.10  19 2.10
  56  1.000  1.000  0.550-  24 2.09   5 2.10  22 2.10  21 2.10  30 2.10  20 2.11
  57  0.750  0.500  0.451-  12 2.10  19 2.10  27 2.10  28 2.10  25 2.10  29 2.11
  58  0.000  0.750  0.451-  11 2.10  20 2.10  27 2.10  28 2.10  26 2.10  30 2.11
  59  0.750  0.750  0.352-  10 2.10  17 2.10  25 2.10  26 2.10  27 2.10
  60  0.000  0.500  0.352-   9 2.10  18 2.10  25 2.10  26 2.10  28 2.10
  61  0.751  0.499  0.649-  32 2.10  23 2.10  16 2.11  31 2.11  29 2.12
  62  1.000  0.750  0.650-  15 2.10  24 2.10  32 2.10  31 2.10  30 2.13
  63  0.750  0.750  0.550-  30 2.10  21 2.10  29 2.10  14 2.10  31 2.10  27 2.11
  64  0.000  0.500  0.549-  32 2.09  22 2.10  30 2.10  13 2.10  29 2.10  28 2.10


IMPORTANT INFORMATION: All symmetrisations will be switched off!
NOSYMM: (Re-)initialisation of all symmetry stuff for point group C_1.


----------------------------------------------------------------------------------------

                                     Primitive cell                                     

  volume of cell :    1504.9259

  direct lattice vectors                    reciprocal lattice vectors
     8.404861995  0.000000000  0.000000000     0.118978753  0.000000000  0.000000000
     0.000000000  8.404861995  0.000000000     0.000000000  0.118978753  0.000000000
     0.000000000  0.000000000 21.303646496     0.000000000  0.000000000  0.046940321

  length of vectors
     8.404861995  8.404861995 21.303646496     0.118978753  0.118978753  0.046940321

  position of ions in fractional coordinates (direct lattice)
     0.250000000  0.000000000  0.352052406
     0.500000000  0.250000000  0.352052406
     0.250000000  0.250000000  0.450684135
     0.500000000  0.000000000  0.450684135
     0.249923310  0.000078096  0.549765924
     0.500048651  0.250277810  0.549820739
     0.250077788  0.250077774  0.647720210
     0.499830449  0.000308408  0.647475850
     0.250000000  0.500000000  0.352052406
     0.500000000  0.750000000  0.352052406
     0.250000000  0.750000000  0.450684135
     0.500000000  0.500000000  0.450684135
     0.250277762  0.500048639  0.549820801
     0.500020078  0.749980691  0.549814322
     0.249692672  0.750171242  0.647475788
     0.500212368  0.500212353  0.648326648
     0.750000000  0.000000000  0.352052406
     0.000000000  0.250000000  0.352052406
     0.750000000  0.250000000  0.450684135
     0.000000000  0.000000000  0.450684135
     0.749952476  0.999724318  0.549820532
     0.000078108  0.249923368  0.549765980
     0.750171541  0.249692721  0.647475874
     0.999924073  0.999924320  0.647720011
     0.750000000  0.500000000  0.352052406
     0.000000000  0.750000000  0.352052406
     0.750000000  0.750000000  0.450684135
     0.000000000  0.500000000  0.450684135
     0.749980770  0.500020117  0.549814343
     0.999724345  0.749952404  0.549820610
     0.749790556  0.749790489  0.648324447
     0.000308414  0.499830680  0.647475823
     0.250000000  0.000000000  0.450684135
     0.500000000  0.250000000  0.450684135
     0.250000000  0.250000000  0.352052406
     0.500000000  0.000000000  0.352052406
     0.249872651  0.000129224  0.649790115
     0.500108082  0.250077901  0.649846632
     0.250036081  0.250036171  0.549547182
     0.499937812  0.000213373  0.549460824
     0.250000000  0.500000000  0.450684135
     0.500000000  0.750000000  0.450684135
     0.250000000  0.750000000  0.352052406
     0.500000000  0.500000000  0.352052406
     0.250077853  0.500108189  0.649846530
     0.499240320  0.750761754  0.649353462
     0.249787584  0.750063084  0.549461146
     0.500034633  0.500034655  0.549612133
     0.750000000  0.000000000  0.450684135
     0.000000000  0.250000000  0.450684135
     0.750000000  0.250000000  0.352052406
     0.000000000  0.000000000  0.352052406
     0.749893939  0.999924042  0.649846159
     0.000129161  0.249872598  0.649790132
     0.750063208  0.249787662  0.549461125
     0.999965596  0.999965567  0.549546849
     0.750000000  0.500000000  0.450684135
     0.000000000  0.750000000  0.450684135
     0.750000000  0.750000000  0.352052406
     0.000000000  0.500000000  0.352052406
     0.750761802  0.499240426  0.649353395
     0.999924021  0.749893754  0.649846006
     0.749966486  0.749966404  0.549611906
     0.000213430  0.499937858  0.549460881

  ion indices of the primitive-cell ions
   primitive index   ion index
                 1           1
                 2           2
                 3           3
                 4           4
                 5           5
                 6           6
                 7           7
                 8           8
                 9           9
                10          10
                11          11
                12          12
                13          13
                14          14
                15          15
                16          16
                17          17
                18          18
                19          19
                20          20
                21          21
                22          22
                23          23
                24          24
                25          25
                26          26
                27          27
                28          28
                29          29
                30          30
                31          31
                32          32
                33          33
                34          34
                35          35
                36          36
                37          37
                38          38
                39          39
                40          40
                41          41
                42          42
                43          43
                44          44
                45          45
                46          46
                47          47
                48          48
                49          49
                50          50
                51          51
                52          52
                53          53
                54          54
                55          55
                56          56
                57          57
                58          58
                59          59
                60          60
                61          61
                62          62
                63          63
                64          64

----------------------------------------------------------------------------------------



 KPOINTS: pymatgen v2020.8.13 with grid density = 

Automatic generation of k-mesh.
 Grid dimensions read from file:
 generate k-points for:    2    2    1

 Generating k-lattice:

  Cartesian coordinates                     Fractional coordinates (reciprocal lattice)
     0.059489377  0.000000000  0.000000000     0.500000000  0.000000000  0.000000000
     0.000000000  0.059489377  0.000000000     0.000000000  0.500000000  0.000000000
     0.000000000  0.000000000  0.046940321     0.000000000  0.000000000  1.000000000

  Length of vectors
     0.059489377  0.059489377  0.046940321

  Shift w.r.t. Gamma in fractional coordinates (k-lattice)
     0.000000000  0.000000000  0.000000000

 
 Subroutine IBZKPT returns following result:
 ===========================================
 
 Found      4 irreducible k-points:
 
 Following reciprocal coordinates:
            Coordinates               Weight
  0.000000  0.000000  0.000000      1.000000
  0.500000  0.000000  0.000000      1.000000
  0.000000  0.500000  0.000000      1.000000
  0.500000  0.500000  0.000000      1.000000
 
 Following cartesian coordinates:
            Coordinates               Weight
  0.000000  0.000000  0.000000      1.000000
  0.059489  0.000000  0.000000      1.000000
  0.000000  0.059489  0.000000      1.000000
  0.059489  0.059489  0.000000      1.000000
 


--------------------------------------------------------------------------------------------------------




 Dimension of arrays:
   k-points           NKPTS =      4   k-points in BZ     NKDIM =      4   number of bands    NBANDS=    320
   number of dos      NEDOS =    301   number of ions     NIONS =     64
   non local maximal  LDIM  =      5   non local SUM 2l+1 LMDIM =     13
   total plane-waves  NPLWV = 882000
   max r-space proj   IRMAX =      1   max aug-charges    IRDMAX=  11749
   dimension x,y,z NGX =    70 NGY =   70 NGZ =  180
   dimension x,y,z NGXF=   140 NGYF=  140 NGZF=  360
   support grid    NGXF=   140 NGYF=  140 NGZF=  360
   ions per type =              32  32
   NGX,Y,Z   is equivalent  to a cutoff of  13.85, 13.85, 14.05 a.u.
   NGXF,Y,Z  is equivalent  to a cutoff of  27.69, 27.69, 28.09 a.u.

 SYSTEM =  MgO-rocksalt                            
 POSCAR =  Mg  O                                   

--------------------------------------------------------------------------------------------------------


  energy-cutoff  :      600.00
  volume of cell :     1504.93
      direct lattice vectors                 reciprocal lattice vectors
     8.404861995  0.000000000  0.000000000     0.118978753  0.000000000  0.000000000
     0.000000000  8.404861995  0.000000000     0.000000000  0.118978753  0.000000000
     0.000000000  0.000000000 21.303646496     0.000000000  0.000000000  0.046940321

  length of vectors
     8.404861995  8.404861995 21.303646496     0.118978753  0.118978753  0.046940321



 k-points in units of 2pi/SCALE and weight: pymatgen v2020.8.13 with grid density = 
   0.00000000  0.00000000  0.00000000       0.250
   0.05948938  0.00000000  0.00000000       0.250
   0.00000000  0.05948938  0.00000000       0.250
   0.05948938  0.05948938  0.00000000       0.250

 k-points in reciprocal lattice and weights: pymatgen v2020.8.13 with grid density = 
   0.00000000  0.00000000  0.00000000       0.250
   0.50000000  0.00000000  0.00000000       0.250
   0.00000000  0.50000000  0.00000000       0.250
   0.50000000  0.50000000  0.00000000       0.250

 position of ions in fractional coordinates (direct lattice) 
   0.25000000  0.00000000  0.35205241
   0.50000000  0.25000000  0.35205241
   0.25000000  0.25000000  0.45068414
   0.50000000  0.00000000  0.45068414
   0.24992331  0.00007810  0.54976592
   0.50004865  0.25027781  0.54982074
   0.25007779  0.25007777  0.64772021
   0.49983045  0.00030841  0.64747585
   0.25000000  0.50000000  0.35205241
   0.50000000  0.75000000  0.35205241
   0.25000000  0.75000000  0.45068414
   0.50000000  0.50000000  0.45068414
   0.25027776  0.50004864  0.54982080
   0.50002008  0.74998069  0.54981432
   0.24969267  0.75017124  0.64747579
   0.50021237  0.50021235  0.64832665
   0.75000000  0.00000000  0.35205241
   0.00000000  0.25000000  0.35205241
   0.75000000  0.25000000  0.45068414
   0.00000000  0.00000000  0.45068414
   0.74995248  0.99972432  0.54982053
   0.00007811  0.24992337  0.54976598
   0.75017154  0.24969272  0.64747587
   0.99992407  0.99992432  0.64772001
   0.75000000  0.50000000  0.35205241
   0.00000000  0.75000000  0.35205241
   0.75000000  0.75000000  0.45068414
   0.00000000  0.50000000  0.45068414
   0.74998077  0.50002012  0.54981434
   0.99972434  0.74995240  0.54982061
   0.74979056  0.74979049  0.64832445
   0.00030841  0.49983068  0.64747582
   0.25000000  0.00000000  0.45068414
   0.50000000  0.25000000  0.45068414
   0.25000000  0.25000000  0.35205241
   0.50000000  0.00000000  0.35205241
   0.24987265  0.00012922  0.64979011
   0.50010808  0.25007790  0.64984663
   0.25003608  0.25003617  0.54954718
   0.49993781  0.00021337  0.54946082
   0.25000000  0.50000000  0.45068414
   0.50000000  0.75000000  0.45068414
   0.25000000  0.75000000  0.35205241
   0.50000000  0.50000000  0.35205241
   0.25007785  0.50010819  0.64984653
   0.49924032  0.75076175  0.64935346
   0.24978758  0.75006308  0.54946115
   0.50003463  0.50003466  0.54961213
   0.75000000  0.00000000  0.45068414
   0.00000000  0.25000000  0.45068414
   0.75000000  0.25000000  0.35205241
   0.00000000  0.00000000  0.35205241
   0.74989394  0.99992404  0.64984616
   0.00012916  0.24987260  0.64979013
   0.75006321  0.24978766  0.54946113
   0.99996560  0.99996557  0.54954685
   0.75000000  0.50000000  0.45068414
   0.00000000  0.75000000  0.45068414
   0.75000000  0.75000000  0.35205241
   0.00000000  0.50000000  0.35205241
   0.75076180  0.49924043  0.64935339
   0.99992402  0.74989375  0.64984601
   0.74996649  0.74996640  0.54961191
   0.00021343  0.49993786  0.54946088

 position of ions in cartesian coordinates  (Angst):
   2.10121550  0.00000000  7.50000000
   4.20243100  2.10121550  7.50000000
   2.10121550  2.10121550  9.60121550
   4.20243100  0.00000000  9.60121550
   2.10057093  0.00065639 11.71201889
   4.20283991  2.10355045 11.71318666
   2.10186929  2.10186918 13.79880238
   4.20100595  0.00259213 13.79359662
   2.10121550  4.20243100  7.50000000
   4.20243100  6.30364650  7.50000000
   2.10121550  6.30364650  9.60121550
   4.20243100  4.20243100  9.60121550
   2.10355005  4.20283980 11.71318797
   4.20259975  6.30348420 11.71304995
   2.09863245  6.30508576 13.79359530
   4.20421592  4.20421579 13.81172173
   6.30364650  0.00000000  7.50000000
   0.00000000  2.10121550  7.50000000
   6.30364650  2.10121550  9.60121550
   0.00000000  0.00000000  9.60121550
   6.30324707  8.40254492 11.71318225
   0.00065649  2.10057142 11.71202010
   6.30508827  2.09863287 13.79359714
   8.40422384  8.40422591 13.79879814
   6.30364650  4.20243100  7.50000000
   0.00000000  6.30364650  7.50000000
   6.30364650  6.30364650  9.60121550
   0.00000000  4.20243100  9.60121550
   6.30348487  4.20260008 11.71305039
   8.40254515  6.30324646 11.71318390
   6.30188615  6.30188558 13.81167483
   0.00259218  4.20100789 13.79359604
   2.10121550  0.00000000  9.60121550
   4.20243100  2.10121550  9.60121550
   2.10121550  2.10121550  7.50000000
   4.20243100  0.00000000  7.50000000
   2.10014515  0.00108611 13.84289890
   4.20333941  2.10187025 13.84410292
   2.10151876  2.10151951 11.70735889
   4.20190832  0.00179337 11.70551917
   2.10121550  4.20243100  9.60121550
   4.20243100  6.30364650  9.60121550
   2.10121550  6.30364650  7.50000000
   4.20243100  4.20243100  7.50000000
   2.10186984  4.20334031 13.84410076
   4.19604599  6.31004893 13.83359660
   2.09943017  6.30417671 11.70552603
   4.20272208  4.20272227 11.70874259
   6.30364650  0.00000000  9.60121550
   0.00000000  2.10121550  9.60121550
   6.30364650  2.10121550  7.50000000
   0.00000000  0.00000000  7.50000000
   6.30275506  8.40422358 13.84409284
   0.00108558  2.10014470 13.84289928
   6.30417775  2.09943083 11.70552557
   8.40457283  8.40457259 11.70735180
   6.30364650  4.20243100  9.60121550
   0.00000000  6.30364650  9.60121550
   6.30364650  6.30364650  7.50000000
   0.00000000  4.20243100  7.50000000
   6.31004934  4.19604688 13.83359517
   8.40422340  6.30275352 13.84408958
   6.30336481  6.30336413 11.70873776
   0.00179385  4.20190870 11.70552036



--------------------------------------------------------------------------------------------------------

--------------------------------------- Iteration      FINAL  ---------------------------------------


--------------------OUTCAR has been truncated-------------------------


--------------------OUTCAR has been truncated-------------------------


--------------------OUTCAR has been truncated-------------------------


--------------------OUTCAR has been truncated-------------------------


--------------------OUTCAR has been truncated-------------------------


--------------------OUTCAR has been truncated-------------------------


--------------------OUTCAR has been truncated-------------------------


--------------------OUTCAR has been truncated-------------------------


--------------------OUTCAR has been truncated-------------------------


--------------------OUTCAR has been truncated-------------------------


  DFT-D2 method for vdW energy calculation
  -------------------------------------------------------------------

  Parameters of vdW forcefield:
         C6(Jnm^6/mol)     R0(A)
   -----------------------------
   Mg       0.630          1.243
   O        0.700          1.342

  vdW correction parametrized for the method pbe       

  IVDW =   1
  VDW_RADIUS =    50.000 A
  VDW_S6 =     0.750
  VDW_SR =     1.000
  VDW_D =    20.000
  LVDW_EWALD = F

  Number of pair interactions contributing to vdW energy:  731240
  Edisp (eV):   -3.69450
    FORVDW:  cpu time      0.1072: real time      0.1072

  FORCE on cell =-STRESS in cart. coord.  units (eV):
  Direction    XX          YY          ZZ          XY          YZ          ZX
  --------------------------------------------------------------------------------------
  Alpha Z   883.92154   883.92154   883.92154
  Ewald  163453.14681163453.14683************     0.03565     0.00317     0.00314
  Hartree173493.91823173493.91824************     0.01660     0.00182     0.00180
  E(xc)   -2458.48047 -2458.48047 -2463.73855    -0.00000     0.00001     0.00001
  Local  ************************347331.23111    -0.05080    -0.00502    -0.00496
  n-local -2811.35945 -2811.35945 -2831.76346     0.00017     0.00011     0.00011
  augment  1047.58719  1047.58719  1038.34785    -0.00012     0.00002     0.00002
  Kinetic  7311.69029  7311.69030  7352.34274    -0.00072    -0.00065    -0.00065
  Fock        0.00000     0.00000     0.00000     0.00000     0.00000     0.00000
  vdW        -5.39982    -5.39982    -4.39048    -0.00011     0.00000     0.00000
  -------------------------------------------------------------------------------------
  Total     -16.20341   -16.20340     7.68853     0.00067    -0.00053    -0.00053
  in kB     -17.25050   -17.25050     8.18538     0.00071    -0.00057    -0.00056
  external pressure =       -8.77 kB  Pullay stress =        0.00 kB


 VOLUME and BASIS-vectors are now :
 -----------------------------------------------------------------------------
  energy-cutoff  :      600.00
  volume of cell :     1504.93
      direct lattice vectors                 reciprocal lattice vectors
     8.404861995  0.000000000  0.000000000     0.118978753  0.000000000  0.000000000
     0.000000000  8.404861995  0.000000000     0.000000000  0.118978753  0.000000000
     0.000000000  0.000000000 21.303646496     0.000000000  0.000000000  0.046940321

  length of vectors
     8.404861995  8.404861995 21.303646496     0.118978753  0.118978753  0.046940321


 FORCES acting on ions:
    Electron-Ion                     Ewald-Force                    Non-Local-Force
 -----------------------------------------------------------------------------------------------
   -.108E-01 0.108E-01 0.209E+04   0.104E-01 -.103E-01 -.208E+04   0.344E-03 -.345E-03 -.706E+01
   -.101E-01 -.260E-01 0.209E+04   0.992E-02 0.272E-01 -.208E+04   0.121E-03 -.888E-03 -.707E+01
   -.106E+00 -.106E+00 0.692E+03   0.116E+00 0.116E+00 -.693E+03   -.683E-02 -.685E-02 0.477E+00
   -.104E+00 0.944E-01 0.693E+03   0.109E+00 -.787E-01 -.693E+03   -.359E-02 -.110E-01 0.445E+00
   0.220E-01 -.232E-01 -.697E+03   -.319E-01 0.331E-01 0.697E+03   0.970E-02 -.971E-02 -.273E+00
   0.568E-01 -.460E+00 -.698E+03   -.662E-01 0.502E+00 0.698E+03   0.685E-02 -.425E-01 -.261E+00
   -.301E+00 -.300E+00 -.208E+04   0.253E+00 0.253E+00 0.207E+04   0.389E-01 0.389E-01 0.617E+01
   -.445E+00 -.103E+00 -.208E+04   0.408E+00 0.765E-01 0.207E+04   0.337E-01 0.248E-01 0.616E+01
   -.260E-01 -.101E-01 0.209E+04   0.272E-01 0.991E-02 -.208E+04   -.888E-03 0.119E-03 -.707E+01
   -.279E-01 0.280E-01 0.209E+04   0.283E-01 -.284E-01 -.208E+04   -.273E-03 0.273E-03 -.706E+01
   -.949E-01 0.105E+00 0.693E+03   0.792E-01 -.109E+00 -.693E+03   0.109E-01 0.359E-02 0.445E+00
   -.927E-01 -.926E-01 0.692E+03   0.908E-01 0.907E-01 -.693E+03   0.238E-02 0.237E-02 0.482E+00
   -.460E+00 0.572E-01 -.698E+03   0.502E+00 -.667E-01 0.698E+03   -.425E-01 0.685E-02 -.261E+00
   -.576E+00 0.577E+00 -.697E+03   0.632E+00 -.633E+00 0.697E+03   -.503E-01 0.504E-01 -.411E+00
   0.101E+00 0.444E+00 -.208E+04   -.743E-01 -.407E+00 0.207E+04   -.246E-01 -.336E-01 0.616E+01
   -.107E+01 -.107E+01 -.208E+04   0.933E+00 0.932E+00 0.208E+04   0.122E+00 0.122E+00 0.635E+01
   0.102E-01 0.259E-01 0.209E+04   -.100E-01 -.271E-01 -.208E+04   -.122E-03 0.881E-03 -.707E+01
   0.108E-01 -.108E-01 0.209E+04   -.103E-01 0.104E-01 -.208E+04   -.346E-03 0.343E-03 -.706E+01
   0.105E+00 -.948E-01 0.693E+03   -.109E+00 0.792E-01 -.693E+03   0.357E-02 0.109E-01 0.445E+00
   0.106E+00 0.106E+00 0.692E+03   -.115E+00 -.115E+00 -.693E+03   0.678E-02 0.679E-02 0.477E+00
   -.566E-01 0.461E+00 -.698E+03   0.659E-01 -.503E+00 0.698E+03   -.676E-02 0.423E-01 -.261E+00
   -.231E-01 0.225E-01 -.697E+03   0.330E-01 -.323E-01 0.697E+03   -.971E-02 0.968E-02 -.273E+00
   0.446E+00 0.101E+00 -.208E+04   -.409E+00 -.745E-01 0.207E+04   -.336E-01 -.246E-01 0.616E+01
   0.300E+00 0.301E+00 -.208E+04   -.253E+00 -.254E+00 0.207E+04   -.389E-01 -.390E-01 0.617E+01
   0.280E-01 -.279E-01 0.209E+04   -.284E-01 0.283E-01 -.208E+04   0.271E-03 -.273E-03 -.706E+01
   0.259E-01 0.101E-01 0.209E+04   -.271E-01 -.100E-01 -.208E+04   0.878E-03 -.119E-03 -.707E+01
   0.930E-01 0.930E-01 0.692E+03   -.911E-01 -.911E-01 -.693E+03   -.240E-02 -.239E-02 0.482E+00
   0.945E-01 -.104E+00 0.693E+03   -.788E-01 0.109E+00 -.693E+03   -.110E-01 -.360E-02 0.445E+00
   0.578E+00 -.576E+00 -.697E+03   -.633E+00 0.632E+00 0.697E+03   0.504E-01 -.503E-01 -.411E+00
   0.461E+00 -.575E-01 -.698E+03   -.503E+00 0.668E-01 0.698E+03   0.423E-01 -.674E-02 -.261E+00
   0.107E+01 0.107E+01 -.208E+04   -.934E+00 -.934E+00 0.208E+04   -.122E+00 -.122E+00 0.635E+01
   -.103E+00 -.444E+00 -.208E+04   0.764E-01 0.407E+00 0.207E+04   0.248E-01 0.336E-01 0.616E+01
   -.131E-01 0.130E-01 0.519E+03   0.206E-01 -.205E-01 -.519E+03   -.102E-01 0.103E-01 -.711E-01
   0.449E-02 -.864E-01 0.519E+03   -.347E-02 0.696E-01 -.519E+03   -.181E-02 0.223E-01 -.905E-01
   -.157E-01 -.157E-01 0.157E+04   0.165E-01 0.165E-01 -.157E+04   -.112E-02 -.113E-02 0.348E+01
   -.152E-01 0.127E-01 0.157E+04   0.162E-01 -.123E-01 -.157E+04   -.140E-02 -.543E-03 0.348E+01
   -.199E-01 0.197E-01 -.158E+04   0.198E-01 -.195E-01 0.158E+04   0.179E-02 -.186E-02 -.505E+01
   -.159E+00 -.566E+00 -.158E+04   0.175E+00 0.583E+00 0.158E+04   -.182E-01 -.654E-02 -.497E+01
   -.223E+00 -.222E+00 -.518E+03   0.227E+00 0.226E+00 0.517E+03   -.303E-02 -.303E-02 0.293E+00
   -.184E+00 0.606E-01 -.516E+03   0.180E+00 -.637E-01 0.516E+03   0.470E-02 -.883E-03 0.361E+00
   -.865E-01 0.453E-02 0.519E+03   0.697E-01 -.350E-02 -.519E+03   0.223E-01 -.181E-02 -.905E-01
   -.116E+00 0.117E+00 0.519E+03   0.116E+00 -.117E+00 -.519E+03   -.451E-03 0.496E-03 -.774E-01
   -.127E-01 0.152E-01 0.157E+04   0.124E-01 -.163E-01 -.157E+04   0.541E-03 0.141E-02 0.348E+01
   -.142E-01 -.142E-01 0.157E+04   0.131E-01 0.131E-01 -.157E+04   0.153E-02 0.153E-02 0.348E+01
   -.567E+00 -.158E+00 -.158E+04   0.584E+00 0.175E+00 0.158E+04   -.656E-02 -.182E-01 -.497E+01
   -.120E+01 0.120E+01 -.158E+04   0.112E+01 -.112E+01 0.158E+04   0.154E+00 -.154E+00 -.471E+01
   -.625E-01 0.183E+00 -.516E+03   0.657E-01 -.180E+00 0.516E+03   0.818E-03 -.475E-02 0.361E+00
   -.232E+00 -.232E+00 -.520E+03   0.260E+00 0.260E+00 0.520E+03   -.289E-01 -.289E-01 0.142E+00
   -.420E-02 0.865E-01 0.519E+03   0.310E-02 -.697E-01 -.519E+03   0.190E-02 -.222E-01 -.904E-01
   0.130E-01 -.131E-01 0.519E+03   -.205E-01 0.206E-01 -.519E+03   0.103E-01 -.102E-01 -.711E-01
   0.152E-01 -.127E-01 0.157E+04   -.163E-01 0.124E-01 -.157E+04   0.141E-02 0.540E-03 0.348E+01
   0.157E-01 0.157E-01 0.157E+04   -.165E-01 -.165E-01 -.157E+04   0.112E-02 0.112E-02 0.348E+01
   0.159E+00 0.567E+00 -.158E+04   -.176E+00 -.584E+00 0.158E+04   0.183E-01 0.649E-02 -.497E+01
   0.192E-01 -.204E-01 -.158E+04   -.189E-01 0.202E-01 0.158E+04   -.190E-02 0.176E-02 -.505E+01
   0.184E+00 -.620E-01 -.516E+03   -.180E+00 0.653E-01 0.516E+03   -.475E-02 0.804E-03 0.361E+00
   0.223E+00 0.223E+00 -.518E+03   -.227E+00 -.227E+00 0.517E+03   0.300E-02 0.301E-02 0.293E+00
   0.117E+00 -.116E+00 0.519E+03   -.117E+00 0.116E+00 -.519E+03   0.497E-03 -.451E-03 -.774E-01
   0.865E-01 -.425E-02 0.519E+03   -.698E-01 0.316E-02 -.519E+03   -.222E-01 0.189E-02 -.904E-01
   0.143E-01 0.143E-01 0.157E+04   -.132E-01 -.132E-01 -.157E+04   -.153E-02 -.153E-02 0.348E+01
   0.127E-01 -.152E-01 0.157E+04   -.123E-01 0.162E-01 -.157E+04   -.543E-03 -.140E-02 0.348E+01
   0.120E+01 -.120E+01 -.158E+04   -.112E+01 0.112E+01 0.158E+04   -.154E+00 0.154E+00 -.471E+01
   0.567E+00 0.158E+00 -.158E+04   -.584E+00 -.175E+00 0.158E+04   0.649E-02 0.182E-01 -.497E+01
   0.232E+00 0.232E+00 -.520E+03   -.260E+00 -.259E+00 0.520E+03   0.288E-01 0.288E-01 0.142E+00
   0.608E-01 -.183E+00 -.516E+03   -.639E-01 0.180E+00 0.516E+03   -.892E-03 0.469E-02 0.361E+00
 -----------------------------------------------------------------------------------------------
   0.170E-03 0.198E-03 0.155E+02   -.338E-13 0.282E-12 -.546E-11   -.153E-03 -.179E-03 -.155E+02


 POSITION                                       TOTAL-FORCE (eV/Angst)
 -----------------------------------------------------------------------------------
      2.10122      0.00000      7.50000        -0.000087      0.000084      0.287147
      4.20243      2.10122      7.50000        -0.000024      0.000258      0.288311
      2.10122      2.10122      9.60122         0.002938      0.002943      0.023743
      4.20243      0.00000      9.60122         0.001154      0.004599      0.024416
      2.10057      0.00066     11.71202        -0.000170      0.000168      0.015903
      4.20284      2.10355     11.71319        -0.002490     -0.000420      0.009821
      2.10187      2.10187     13.79880        -0.008188     -0.008187      0.078873
      4.20101      0.00259     13.79360        -0.003532     -0.001817      0.103943
      2.10122      4.20243      7.50000         0.000251     -0.000025      0.288313
      4.20243      6.30365      7.50000         0.000059     -0.000058      0.287113
      2.10122      6.30365      9.60122        -0.004583     -0.001146      0.024420
      4.20243      4.20243      9.60122         0.000440      0.000441      0.027589
      2.10355      4.20284     11.71319        -0.000416     -0.002494      0.009804
      4.20260      6.30348     11.71305         0.005324     -0.005336      0.005407
      2.09863      6.30509     13.79360         0.001863      0.003538      0.103954
      4.20422      4.20422     13.81172        -0.018004     -0.018005     -0.043451
      6.30365      0.00000      7.50000         0.000029     -0.000262      0.288311
      0.00000      2.10122      7.50000         0.000083     -0.000080      0.287146
      6.30365      2.10122      9.60122        -0.001142     -0.004577      0.024418
      0.00000      0.00000      9.60122        -0.002920     -0.002920      0.023727
      6.30325      8.40254     11.71318         0.002487      0.000384      0.009800
      0.00066      2.10057     11.71202         0.000169     -0.000169      0.015891
      6.30509      2.09863     13.79360         0.003510      0.001859      0.103940
      8.40422      8.40423     13.79880         0.008200      0.008175      0.078867
      6.30365      4.20243      7.50000        -0.000054      0.000058      0.287117
      0.00000      6.30365      7.50000        -0.000263      0.000024      0.288310
      6.30365      6.30365      9.60122        -0.000425     -0.000429      0.027578
      0.00000      4.20243      9.60122         0.004600      0.001154      0.024415
      6.30348      4.20260     11.71305        -0.005340      0.005319      0.005398
      8.40255      6.30325     11.71318         0.000383      0.002494      0.009777
      6.30189      6.30189     13.81167         0.017942      0.017953     -0.043145
      0.00259      4.20101     13.79360        -0.001816     -0.003552      0.103941
      2.10122      0.00000      9.60122        -0.002809      0.002827      0.051670
      4.20243      2.10122      9.60122        -0.000798      0.005558      0.051772
      2.10122      2.10122      7.50000        -0.000320     -0.000321     -0.575087
      4.20243      0.00000      7.50000        -0.000403     -0.000149     -0.575019
      2.10015      0.00109     13.84290         0.001549     -0.001575      0.114009
      4.20334      2.10187     13.84410        -0.001663      0.010420      0.128561
      2.10152      2.10152     11.70736         0.001078      0.001068     -0.014070
      4.20191      0.00179     11.70552         0.001019     -0.003928     -0.008094
      2.10122      4.20243      9.60122         0.005561     -0.000798      0.051769
      4.20243      6.30365      9.60122        -0.000163      0.000175      0.055655
      2.10122      6.30365      7.50000         0.000149      0.000405     -0.575020
      4.20243      4.20243      7.50000         0.000452      0.000453     -0.575288
      2.10187      4.20334     13.84410         0.010420     -0.001678      0.128578
      4.19605      6.31005     13.83360         0.076887     -0.076899      0.217097
      2.09943      6.30418     11.70553         0.003956     -0.001002     -0.008181
      4.20272      4.20272     11.70874        -0.001273     -0.001276     -0.003757
      6.30365      0.00000      9.60122         0.000819     -0.005536      0.051763
      0.00000      2.10122      9.60122         0.002828     -0.002807      0.051672
      6.30365      2.10122      7.50000         0.000401      0.000144     -0.575018
      0.00000      0.00000      7.50000         0.000318      0.000321     -0.575085
      6.30276      8.40422     13.84409         0.001661     -0.010442      0.128552
      0.00109      2.10014     13.84290        -0.001566      0.001565      0.114013
      6.30418      2.09943     11.70553        -0.001017      0.003942     -0.008168
      8.40457      8.40457     11.70735        -0.001121     -0.001114     -0.014017
      6.30365      4.20243      9.60122         0.000176     -0.000165      0.055656
      0.00000      6.30365      9.60122        -0.005534      0.000821      0.051764
      6.30365      6.30365      7.50000        -0.000453     -0.000451     -0.575286
      0.00000      4.20243      7.50000        -0.000147     -0.000402     -0.575020
      6.31005      4.19605     13.83360        -0.076903      0.076875      0.217111
      8.40422      6.30275     13.84409        -0.010439      0.001680      0.128577
      6.30336      6.30336     11.70874         0.001289      0.001302     -0.003797
      0.00179      4.20191     11.70552        -0.003935      0.001011     -0.008108
 -----------------------------------------------------------------------------------
    total drift:                                0.000016      0.000019      0.004312


--------------------------------------------------------------------------------------------------------



  FREE ENERGIE OF THE ION-ELECTRON SYSTEM (eV)
  ---------------------------------------------------
  free  energy   TOTEN  =      -375.87219549 eV

  energy  without entropy=     -375.87219549  energy(sigma->0) =     -375.87219549



--------------------------------------------------------------------------------------------------------


    POTLOK:  cpu time      0.5343: real time      0.5350


--------------------------------------------------------------------------------------------------------


     LOOP+:  cpu time    122.3735: real time    122.5571
    4ORBIT:  cpu time      0.0000: real time      0.0000

 total amount of memory used by VASP MPI-rank0    72361. kBytes
=======================================================================

   base      :      30000. kBytes
   nonl-proj :      11759. kBytes
   fftplans  :       4923. kBytes
   grid      :      13142. kBytes
   one-center:        129. kBytes
   wavefun   :      12408. kBytes

  
  
 General timing and accounting informations for this job:
 ========================================================
  
                  Total CPU time used (sec):      157.841
                            User time (sec):      156.646
                          System time (sec):        1.196
                         Elapsed time (sec):      167.737
  
                   Maximum memory used (kb):      180596.
                   Average memory used (kb):          N/A
  
                          Minor page faults:        39935
                          Major page faults:            0
                 Voluntary context switches:        12372
