 vasp.6.4.2 20Jul23 (build Feb 22 2024 13:53:45) complex                         
 executed on              LinuxNV date 2024.08.27  18:57:41
 running    4 mpi-ranks, with    1 threads/rank, on    1 nodes
 distrk:  each k-point on    4 cores,    1 groups
 distr:  one band on NCORE=   1 cores,    4 groups
 OpenACC runtime initialized ...    4 GPUs detected


--------------------------------------------------------------------------------------------------------


 INCAR:
   SYSTEM = Oxide-Surface
   ISMEAR = 0
   SIGMA = 0.05
   EDIFF = 1E-5
   ALGO = Normal
   IBRION = -1
   NSW = 0
   ISYM = 0
   DIPOL = 0.5 0.5 0.5
   IDIPOL = 3
   LDIPOL = .TRUE.
   ISTART = 1
   METAGGA = SCAN
   LUSE_VDW = .TRUE.
   BPARAM = 15.7
   CPARAM = 0.0093
   ENCUT = 1000
   PREC = Normal
   PRECFOCK = Normal
   LASPH = .TRUE.
   LREAL = Auto
   ISPIN = 1
   NELM = 200
   NELMIN = 8
   NCORE = 1
   KPAR = 1
   LWAVE = .FALSE.
   LCHARG = .FALSE.

 POTCAR:    PAW_PBE C_h 06Feb2004                 
 POTCAR:    PAW_PBE H_h 06Feb2004                 
 POTCAR:    PAW_PBE Ti_sv 26Sep2005               
 POTCAR:    PAW_PBE O_h 06Feb2004                 
 -----------------------------------------------------------------------------
|                                                                             |
|               ----> ADVICE to this user running VASP <----                  |
|                                                                             |
|     You have switched on vdW-DFT.                                           |
|     This routine was written and supplied by Jiri Klimes. We recommend      |
|     that you carefully read and cite the following publications:            |
|       J. Klimes, D.R. Bowler, A. Michelides                                 |
|          J. Phys.: Cond Matt. 22 022201 (2010)                              |
|       J. Klimes, D.R. Bowler, A. Michelides                                 |
|          Phys. Rev. B. 83, 195131 (2011)                                    |
|     and references therein.                                                 |
|                                                                             |
 -----------------------------------------------------------------------------

 POTCAR:    PAW_PBE C_h 06Feb2004                 
   SHA256 =  1e4d9ea6ed5f132c831b2a321be9195311c7bc5a92c5663cac630aa85140ff5b C_h/POTCAR            
   COPYR  = (c) Copyright 06Feb2004 Georg Kresse                                                    
   COPYR  = This file is part of the software VASP. Any use, copying, and all other rights are regul
   COPYR  = If you do not have a valid VASP license, you may not use, copy or distribute this file. 
   VRHFIN =C: s2p2                                                                                  
   LEXCH  = PE                                                                                      
   EATOM  =   147.1560 eV,   10.8157 Ry                                                             
                                                                                                    
   TITEL  = PAW_PBE C_h 06Feb2004                                                                   
   LULTRA =        F    use ultrasoft PP ?                                                          
   IUNSCR =        1    unscreen: 0-lin 1-nonlin 2-no                                               
   RPACOR =    0.800    partial core radius                                                         
   POMASS =   12.011; ZVAL   =    4.000    mass and valenz                                          
   RCORE  =    1.100    outmost cutoff radius                                                       
   RWIGS  =    1.630; RWIGS  =    0.863    wigner-seitz radius (au A)                               
   ENMAX  =  700.000; ENMIN  =  500.000 eV                                                          
   ICORE  =        2    local potential                                                             
   LCOR   =        T    correct aug charges                                                         
   LPAW   =        T    paw PP                                                                      
   EAUG   =  946.768                                                                                
   DEXC   =    0.000                                                                                
   RMAX   =    1.128    core radius for proj-oper                                                   
   RAUG   =    1.300    factor for augmentation sphere                                              
   RDEP   =    1.162    radius for radial grids                                                     
   RDEPT  =    1.088    core radius for aug-charge                                                  
                                                                                                    
   Atomic configuration                                                                             
    4 entries                                                                                       
     n  l   j            E        occ.                                                              
     1  0  0.50      -273.3789   2.0000                                                             
     2  0  0.50       -13.7508   2.0000                                                             
     2  1  0.50        -5.2854   2.0000                                                             
     3  2  1.50        -5.4423   0.0000                                                             
   Description                                                                                      
     l       E           TYP  RCUT    TYP  RCUT                                                     
     0    -13.7508458     23  1.100                                                                 
     0     -8.2022199     23  1.100                                                                 
     1     -5.2854383     23  1.100                                                                 
     1      1.1560700     23  1.100                                                                 
     2     -5.4423304      7  1.100                                                                 
  local pseudopotential read in
  partial core-charges read in
  partial kinetic energy density read in
  atomic valenz-charges read in
  non local Contribution for L=            0  read in
    real space projection operators read in
  non local Contribution for L=            0  read in
    real space projection operators read in
  non local Contribution for L=            1  read in
    real space projection operators read in
  non local Contribution for L=            1  read in
    real space projection operators read in
    PAW grid and wavefunctions read in
 
   number of l-projection  operators is LMAX  =            4
   number of lm-projection operators is LMMAX =            8
 
 POTCAR:    PAW_PBE H_h 06Feb2004                 
   SHA256 =  143491dd1ce685661e07aa76f96d5d154a7e3c51c1da76ab67ad499446e4b766 H_h/POTCAR            
   COPYR  = (c) Copyright 06Feb2004 Georg Kresse                                                    
   COPYR  = This file is part of the software VASP. Any use, copying, and all other rights are regul
   COPYR  = If you do not have a valid VASP license, you may not use, copy or distribute this file. 
   VRHFIN =H: ultrasoft test                                                                        
   LEXCH  = PE                                                                                      
   EATOM  =    12.4884 eV,    0.9179 Ry                                                             
                                                                                                    
   TITEL  = PAW_PBE H_h 06Feb2004                                                                   
   LULTRA =        F    use ultrasoft PP ?                                                          
   IUNSCR =        0    unscreen: 0-lin 1-nonlin 2-no                                               
   RPACOR =    0.000    partial core radius                                                         
   POMASS =    1.000; ZVAL   =    1.000    mass and valenz                                          
   RCORE  =    0.800    outmost cutoff radius                                                       
   RWIGS  =    0.700; RWIGS  =    0.370    wigner-seitz radius (au A)                               
   ENMAX  =  700.000; ENMIN  =  350.000 eV                                                          
   RCLOC  =    0.701    cutoff for local pot                                                        
   LCOR   =        T    correct aug charges                                                         
   LPAW   =        T    paw PP                                                                      
   EAUG   = 1000.000                                                                                
   RMAX   =    0.819    core radius for proj-oper                                                   
   RAUG   =    1.000    factor for augmentation sphere                                              
   RDEP   =    0.817    radius for radial grids                                                     
   RDEPT  =    0.817    core radius for aug-charge                                                  
                                                                                                    
   Atomic configuration                                                                             
    2 entries                                                                                       
     n  l   j            E        occ.                                                              
     1  0  0.50        -6.4927   1.0000                                                             
     2  1  0.50        -3.4015   0.0000                                                             
   Description                                                                                      
     l       E           TYP  RCUT    TYP  RCUT                                                     
     0     -6.4927493     23  0.800                                                                 
     0      6.8029130     23  0.800                                                                 
     1     -6.8029130     23  0.800                                                                 
  local pseudopotential read in
  atomic valenz-charges read in
  non local Contribution for L=            0  read in
    real space projection operators read in
  non local Contribution for L=            0  read in
    real space projection operators read in
  non local Contribution for L=            1  read in
    real space projection operators read in
    PAW grid and wavefunctions read in
 
   number of l-projection  operators is LMAX  =            3
   number of lm-projection operators is LMMAX =            5
 
 POTCAR:    PAW_PBE Ti_sv 26Sep2005               
   SHA256 =  4d747badb5a5ea28d858fbac70885b3f8929d6fd9e5b0dbe1ecb9878dc164da1 Ti_sv/POTCAR          
   COPYR  = (c) Copyright 26Sep2005 Georg Kresse                                                    
   COPYR  = This file is part of the software VASP. Any use, copying, and all other rights are regul
   COPYR  = If you do not have a valid VASP license, you may not use, copy or distribute this file. 
   VRHFIN =Ti: 3p4s3d                                                                               
   LEXCH  = PE                                                                                      
   EATOM  =  1588.0892 eV,  116.7213 Ry                                                             
                                                                                                    
   TITEL  = PAW_PBE Ti_sv 26Sep2005                                                                 
   LULTRA =        F    use ultrasoft PP ?                                                          
   IUNSCR =        1    unscreen: 0-lin 1-nonlin 2-no                                               
   RPACOR =    2.000    partial core radius                                                         
   POMASS =   47.880; ZVAL   =   12.000    mass and valenz                                          
   RCORE  =    2.300    outmost cutoff radius                                                       
   RWIGS  =    2.300; RWIGS  =    1.217    wigner-seitz radius (au A)                               
   ENMAX  =  274.610; ENMIN  =  205.957 eV                                                          
   ICORE  =        3    local potential                                                             
   LCOR   =        T    correct aug charges                                                         
   LPAW   =        T    paw PP                                                                      
   EAUG   =  482.848                                                                                
   RMAX   =    2.348    core radius for proj-oper                                                   
   RAUG   =    1.300    factor for augmentation sphere                                              
   RDEP   =    2.381    radius for radial grids                                                     
   RDEPT  =    1.930    core radius for aug-charge                                                  
                                                                                                    
   Atomic configuration                                                                             
    8 entries                                                                                       
     n  l   j            E        occ.                                                              
     1  0  0.50     -4865.3608   2.0000                                                             
     2  0  0.50      -533.1368   2.0000                                                             
     2  1  1.50      -440.5031   6.0000                                                             
     3  0  0.50       -59.3186   2.0000                                                             
     4  0  0.50        -3.7291   1.0000                                                             
     3  1  1.50       -35.7012   6.0000                                                             
     3  2  2.50        -1.9157   3.0000                                                             
     4  3  2.50        -1.3606   0.0000                                                             
   Description                                                                                      
     l       E           TYP  RCUT    TYP  RCUT                                                     
     0    -59.3185931     23  1.800                                                                 
     0     -3.7290822     23  2.300                                                                 
     1    -35.7012045     23  2.300                                                                 
     1     -1.3605826     23  2.300                                                                 
     2     -1.9156920     23  2.300                                                                 
     2     -0.0236318     23  2.300                                                                 
     3     -1.3605826     23  2.300                                                                 
  local pseudopotential read in
  partial core-charges read in
  partial kinetic energy density read in
  atomic valenz-charges read in
  non local Contribution for L=            0  read in
    real space projection operators read in
  non local Contribution for L=            0  read in
    real space projection operators read in
  non local Contribution for L=            1  read in
    real space projection operators read in
  non local Contribution for L=            1  read in
    real space projection operators read in
  non local Contribution for L=            2  read in
    real space projection operators read in
  non local Contribution for L=            2  read in
    real space projection operators read in
    PAW grid and wavefunctions read in
 
   number of l-projection  operators is LMAX  =            6
   number of lm-projection operators is LMMAX =           18
 
 POTCAR:    PAW_PBE O_h 06Feb2004                 
   SHA256 =  7d3976308dcfb86c51a8aa000428ccf502aeca0a26316d98530ed0719b164db2 O_h/POTCAR            
   COPYR  = (c) Copyright 06Feb2004 Georg Kresse                                                    
   COPYR  = This file is part of the software VASP. Any use, copying, and all other rights are regul
   COPYR  = If you do not have a valid VASP license, you may not use, copy or distribute this file. 
   VRHFIN =O: s2p4                                                                                  
   LEXCH  = PE                                                                                      
   EATOM  =   432.3788 eV,   31.7789 Ry                                                             
                                                                                                    
   TITEL  = PAW_PBE O_h 06Feb2004                                                                   
   LULTRA =        F    use ultrasoft PP ?                                                          
   IUNSCR =        1    unscreen: 0-lin 1-nonlin 2-no                                               
   RPACOR =    0.800    partial core radius                                                         
   POMASS =   16.000; ZVAL   =    6.000    mass and valenz                                          
   RCORE  =    1.100    outmost cutoff radius                                                       
   RWIGS  =    1.400; RWIGS  =    0.741    wigner-seitz radius (au A)                               
   ENMAX  =  700.000; ENMIN  =  500.000 eV                                                          
   ICORE  =        2    local potential                                                             
   LCOR   =        T    correct aug charges                                                         
   LPAW   =        T    paw PP                                                                      
   EAUG   =  888.804                                                                                
   DEXC   =    0.000                                                                                
   RMAX   =    1.128    core radius for proj-oper                                                   
   RAUG   =    1.300    factor for augmentation sphere                                              
   RDEP   =    1.125    radius for radial grids                                                     
   RDEPT  =    1.088    core radius for aug-charge                                                  
                                                                                                    
   Atomic configuration                                                                             
    4 entries                                                                                       
     n  l   j            E        occ.                                                              
     1  0  0.50      -514.6923   2.0000                                                             
     2  0  0.50       -23.9615   2.0000                                                             
     2  1  0.50        -9.0305   4.0000                                                             
     3  2  1.50        -9.5241   0.0000                                                             
   Description                                                                                      
     l       E           TYP  RCUT    TYP  RCUT                                                     
     0    -23.9615319     23  1.100                                                                 
     0    -25.3221145     23  1.100                                                                 
     1     -9.0304911     23  1.100                                                                 
     1     -5.4802209     23  1.100                                                                 
     2     -9.5240782      7  1.100                                                                 
  local pseudopotential read in
  partial core-charges read in
  partial kinetic energy density read in
  atomic valenz-charges read in
  non local Contribution for L=            0  read in
    real space projection operators read in
  non local Contribution for L=            0  read in
    real space projection operators read in
  non local Contribution for L=            1  read in
    real space projection operators read in
  non local Contribution for L=            1  read in
    real space projection operators read in
    PAW grid and wavefunctions read in
 
   number of l-projection  operators is LMAX  =            4
   number of lm-projection operators is LMMAX =            8
 
 Optimization of the real space projectors (new method)

 maximal supplied QI-value         = 34.20
 optimisation between [QCUT,QGAM] = [ 16.08, 32.15] = [ 72.37,289.48] Ry 
 Optimized for a Real-space Cutoff    0.71 Angstroem

   l    n(q)    QCUT    max X(q) W(low)/X(q) W(high)/X(q)  e(spline) 
   0      7    16.076   134.812    0.49E-03    0.92E-03    0.59E-07
   0      7    16.076    80.524    0.48E-03    0.91E-03    0.58E-07
   1      6    16.076    79.026    0.37E-03    0.58E-03    0.12E-06
   1      6    16.076    45.188    0.36E-03    0.56E-03    0.12E-06
 Optimization of the real space projectors (new method)

 maximal supplied QI-value         = 47.24
 optimisation between [QCUT,QGAM] = [ 16.06, 32.13] = [ 72.25,289.00] Ry 
 Optimized for a Real-space Cutoff    0.82 Angstroem

   l    n(q)    QCUT    max X(q) W(low)/X(q) W(high)/X(q)  e(spline) 
   0      8    16.063    34.671    0.37E-03    0.85E-03    0.24E-06
   0      8    16.063    17.046    0.36E-03    0.82E-03    0.23E-06
   1      7    16.063     1.978    0.22E-03    0.92E-04    0.15E-06
 Optimization of the real space projectors (new method)

 maximal supplied QI-value         = 16.25
 optimisation between [QCUT,QGAM] = [ 16.09, 32.34] = [ 72.49,292.89] Ry 
 Optimized for a Real-space Cutoff    1.24 Angstroem

   l    n(q)    QCUT    max X(q) W(low)/X(q) W(high)/X(q)  e(spline) 
   0     12    16.089    12.277    0.23E-04    0.54E-05    0.15E-06
   0     12    16.089    11.419    0.26E-04    0.82E-06    0.19E-06
   1     12    16.089     4.010    0.40E-04    0.12E-04    0.58E-06
   1     12    16.089     6.182    0.55E-05    0.28E-04    0.27E-06
   2     11    16.089    47.177    0.17E-03    0.26E-03    0.90E-06
   2     11    16.089    42.437    0.17E-03    0.25E-03    0.88E-06
 Optimization of the real space projectors (new method)

 maximal supplied QI-value         = 34.20
 optimisation between [QCUT,QGAM] = [ 16.08, 32.15] = [ 72.37,289.48] Ry 
 Optimized for a Real-space Cutoff    0.71 Angstroem

   l    n(q)    QCUT    max X(q) W(low)/X(q) W(high)/X(q)  e(spline) 
   0      7    16.076   280.207    0.42E-03    0.69E-03    0.60E-07
   0      7    16.076   228.978    0.42E-03    0.69E-03    0.61E-07
   1      6    16.076    86.127    0.11E-03    0.66E-03    0.10E-06
   1      6    16.076    65.368    0.11E-03    0.65E-03    0.10E-06
  PAW_PBE C_h 06Feb2004                 :
 energy of atom  1       EATOM= -147.1560
 kinetic energy error for atom=    0.0031 (will be added to EATOM!!)
  PAW_PBE H_h 06Feb2004                 :
 energy of atom  2       EATOM=  -12.4884
 kinetic energy error for atom=    0.0006 (will be added to EATOM!!)
  PAW_PBE Ti_sv 26Sep2005               :
 energy of atom  3       EATOM=-1588.0892
 kinetic energy error for atom=    0.0004 (will be added to EATOM!!)
  PAW_PBE O_h 06Feb2004                 :
 energy of atom  4       EATOM= -432.3788
 kinetic energy error for atom=    0.0171 (will be added to EATOM!!)
 
 
 POSCAR:  C  H Ti  O
  positions in direct lattice
  No initial velocities read in

 METAGGA = SCAN                                        LMAXTAU =  6    LMIXTAU =  F

 exchange correlation table for  LEXCH =        8
   RHO(1)=    0.500       N(1)  =     2000
   RHO(2)=  100.500       N(2)  =     4000
 


--------------------------------------------------------------------------------------------------------


 ion  position               nearest neighbor table
   1  0.500  0.500  0.834-   2 1.10   3 1.10   4 1.10   5 1.10
   2  0.496  0.576  0.859-   1 1.10
   3  0.504  0.424  0.859-   1 1.10
   4  0.571  0.504  0.810-   1 1.10
   5  0.430  0.496  0.810-   1 1.10
   6  0.750  0.625  0.192-  87 1.95 147 1.95 146 1.95  86 1.95  89 1.98 168 1.98
   7  0.000  0.750  0.192-  88 1.95 108 1.95  89 1.95 109 1.95  90 1.98
   8  0.000  0.625  0.322-  90 1.95 150 1.95  91 1.95 151 1.95  93 1.98  92 1.98
   9  0.750  0.750  0.322-  92 1.95 112 1.95 173 1.95 193 1.95  94 1.98  87 1.98
  10  0.750  0.625  0.452-  95 1.95 155 1.95 154 1.95  94 1.95  97 1.98 176 1.98
  11  0.000  0.750  0.452-  96 1.95 116 1.95  97 1.95 117 1.95  91 1.98  98 2.00
  12  1.000  0.625  0.579-  98 1.90 158 1.90 100 1.95 101 1.95  99 2.02 159 2.02
  13  0.750  0.750  0.587- 102 1.86 201 1.97 181 1.97 100 1.97 120 1.97  95 2.11
  14  0.750  0.625  0.721- 103 1.83 163 1.84 184 2.03 105 2.03 102 2.10 162 2.10
  15  0.000  0.750  0.706-  99 1.81 124 1.95 125 1.95 104 1.95 105 1.95
  16  0.750  0.875  0.192-  87 1.95 107 1.95 106 1.95  86 1.95 109 1.98 188 1.98
  17  0.000  0.000  0.192- 108 1.95 128 1.95 109 1.95 129 1.95 110 1.98
  18  0.000  0.875  0.322-  90 1.95 110 1.95  91 1.95 111 1.95 113 1.98 112 1.98
  19  0.750  0.000  0.322- 112 1.95 132 1.95 193 1.95 213 1.95 114 1.98 107 1.98
  20  0.750  0.875  0.452-  95 1.95 115 1.95 114 1.95  94 1.95 117 1.98 196 1.98
  21  0.000  0.000  0.452- 116 1.95 136 1.95 117 1.95 137 1.95 111 1.98 118 2.00
  22  1.000  0.875  0.579- 118 1.89  98 1.90 120 1.95 121 1.95 119 2.02  99 2.02
  23  0.750  0.000  0.587- 122 1.86 221 1.97 201 1.97 140 1.97 120 1.97 115 2.11
  24  0.750  0.875  0.721- 123 1.83 103 1.83 204 2.03 125 2.03 122 2.10 102 2.10
  25  1.000  1.000  0.706- 119 1.81 125 1.95 144 1.95 145 1.95 124 1.95
  26  0.750  0.125  0.192- 107 1.95 127 1.95 126 1.95 106 1.95 129 1.98 208 1.98
  27  0.000  0.250  0.192- 128 1.95 148 1.95 129 1.95 149 1.95 130 1.98
  28  0.000  0.125  0.322- 110 1.95 130 1.95 111 1.95 131 1.95 133 1.98 132 1.98
  29  0.750  0.250  0.322- 132 1.95 152 1.95 213 1.95 233 1.95 134 1.98 127 1.98
  30  0.750  0.125  0.452- 115 1.95 135 1.95 134 1.95 114 1.95 137 1.98 216 1.98
  31  0.000  0.250  0.452- 136 1.95 156 1.95 137 1.95 157 1.95 131 1.98 138 2.00
  32  0.000  0.125  0.579- 118 1.89 138 1.90 141 1.95 140 1.95 119 2.02 139 2.02
  33  0.750  0.250  0.587- 142 1.86 221 1.97 241 1.97 160 1.97 140 1.97 135 2.11
  34  0.750  0.125  0.721- 123 1.83 143 1.83 224 2.03 145 2.03 122 2.10 142 2.10
  35  1.000  0.250  0.706- 139 1.81 145 1.95 144 1.95 165 1.95 164 1.95
  36  0.750  0.375  0.192- 127 1.95 147 1.95 146 1.95 126 1.95 149 1.98 228 1.98
  37  0.000  0.500  0.192-  88 1.95 148 1.95  89 1.95 149 1.95 150 1.98
  38  0.000  0.375  0.322- 130 1.95 150 1.95 131 1.95 151 1.95 153 1.98 152 1.98
  39  0.750  0.500  0.322-  92 1.95 152 1.95 173 1.95 233 1.95 147 1.98 154 1.98
  40  0.750  0.375  0.452- 135 1.95 155 1.95 154 1.95 134 1.95 157 1.98 236 1.98
  41  0.000  0.500  0.452-  96 1.95 156 1.95  97 1.95 157 1.95 151 1.98 158 2.00
  42  0.000  0.375  0.579- 138 1.90 158 1.90 161 1.95 160 1.95 139 2.02 159 2.02
  43  0.750  0.500  0.587- 162 1.86 241 1.97 181 1.97 160 1.97 100 1.97 155 2.11
  44  0.750  0.375  0.721- 143 1.83 163 1.83 244 2.03 165 2.03 142 2.10 162 2.10
  45  0.000  0.500  0.706- 159 1.81 164 1.95 105 1.95 104 1.95 165 1.95
  46  0.250  0.625  0.192- 167 1.95 227 1.95 226 1.95 166 1.95  88 1.98 169 1.98
  47  0.500  0.750  0.192- 168 1.95 169 1.95 188 1.95 189 1.95 170 1.98
  48  0.500  0.625  0.322- 170 1.95 230 1.95 171 1.95 231 1.95 172 1.98 173 1.98
  49  0.250  0.750  0.322-  93 1.95 113 1.95 172 1.95 192 1.95 174 1.98 167 1.98
  50  0.250  0.625  0.452- 175 1.95 235 1.95 234 1.95 174 1.95  96 1.98 177 1.98
  51  0.500  0.750  0.452- 176 1.95 177 1.95 196 1.95 197 1.95 171 1.98 178 2.00
  52  0.500  0.625  0.580- 238 1.90 178 1.90 180 1.95 181 1.95 179 2.01 239 2.02
  53  0.250  0.750  0.587- 182 1.86 200 1.97 180 1.97 101 1.97 121 1.97 175 2.11
  54  0.250  0.625  0.721- 183 1.83 243 1.83 185 2.03 104 2.03 182 2.10 242 2.10
  55  0.500  0.750  0.706- 179 1.81 184 1.94 185 1.94 204 1.95 205 1.95
  56  0.250  0.875  0.192- 167 1.95 187 1.95 186 1.95 166 1.95 108 1.98 189 1.98
  57  0.500  0.000  0.192- 188 1.95 189 1.95 208 1.95 209 1.95 190 1.98
  58  0.500  0.875  0.322- 170 1.95 190 1.95 171 1.95 191 1.95 192 1.98 193 1.98
  59  0.250  0.000  0.322- 113 1.95 133 1.95 192 1.95 212 1.95 194 1.98 187 1.98
  60  0.250  0.875  0.452- 175 1.95 195 1.95 194 1.95 174 1.95 116 1.98 197 1.98
  61  0.500  0.000  0.452- 196 1.95 197 1.95 216 1.95 217 1.95 191 1.98 198 1.99
  62  0.500  0.875  0.579- 178 1.89 198 1.90 200 1.95 201 1.95 179 2.01 199 2.02
  63  0.250  1.000  0.587- 202 1.86 200 1.97 220 1.97 121 1.97 141 1.97 195 2.11
  64  0.250  0.875  0.721- 203 1.83 183 1.83 205 2.03 124 2.03 202 2.10 182 2.10
  65  0.500  1.000  0.706- 199 1.81 205 1.95 224 1.95 225 1.95 204 1.95
  66  0.250  0.125  0.192- 187 1.95 207 1.95 206 1.95 186 1.95 128 1.98 209 1.98
  67  0.500  0.250  0.192- 208 1.95 209 1.95 228 1.95 229 1.95 210 1.98
  68  0.500  0.125  0.322- 190 1.95 210 1.95 191 1.95 211 1.95 212 1.98 213 1.98
  69  0.250  0.250  0.322- 133 1.95 153 1.95 212 1.95 232 1.95 214 1.98 207 1.98
  70  0.250  0.125  0.452- 195 1.95 215 1.95 214 1.95 194 1.95 136 1.98 217 1.98
  71  0.500  0.250  0.452- 216 1.95 217 1.95 236 1.95 237 1.95 211 1.98 218 2.00
  72  0.500  0.125  0.579- 218 1.89 198 1.90 220 1.95 221 1.95 219 2.01 199 2.02
  73  0.250  0.250  0.587- 222 1.86 220 1.97 240 1.97 161 1.97 141 1.97 215 2.11
  74  0.250  0.125  0.721- 203 1.83 223 1.83 225 2.03 144 2.03 202 2.10 222 2.10
  75  0.500  0.250  0.706- 219 1.81 245 1.94 244 1.94 225 1.95 224 1.95
  76  0.250  0.375  0.192- 207 1.95 227 1.95 226 1.95 206 1.95 148 1.98 229 1.98
  77  0.500  0.500  0.192- 168 1.95 169 1.95 228 1.95 229 1.95 230 1.98
  78  0.500  0.375  0.322- 210 1.95 230 1.95 211 1.95 231 1.95 232 1.98 233 1.98
  79  0.250  0.500  0.322-  93 1.95 153 1.95 172 1.95 232 1.95 227 1.98 234 1.98
  80  0.250  0.375  0.452- 215 1.95 235 1.95 234 1.95 214 1.95 156 1.98 237 1.98
  81  0.500  0.500  0.452- 176 1.95 177 1.95 236 1.95 237 1.95 231 1.98 238 2.00
  82  0.500  0.375  0.580- 238 1.90 218 1.90 241 1.95 240 1.95 219 2.01 239 2.02
  83  0.250  0.500  0.587- 242 1.86 180 1.97 240 1.97 101 1.97 161 1.97 235 2.11
  84  0.250  0.375  0.721- 223 1.83 243 1.84 245 2.03 164 2.03 222 2.10 242 2.10
  85  0.500  0.500  0.707- 239 1.82 244 1.95 185 1.95 184 1.95 245 1.95
  86  0.750  0.750  0.141-   6 1.95  16 1.95
  87  0.750  0.750  0.243-   6 1.95  16 1.95   9 1.98
  88  0.098  0.625  0.192-   7 1.95  37 1.95  46 1.98
  89  0.902  0.625  0.192-   7 1.95  37 1.95   6 1.98
  90  0.000  0.750  0.271-   8 1.95  18 1.95   7 1.98
  91  0.000  0.750  0.373-   8 1.95  18 1.95  11 1.98
  92  0.848  0.625  0.322-   9 1.95  39 1.95   8 1.98
  93  0.152  0.625  0.322-  49 1.95  79 1.95   8 1.98
  94  0.750  0.750  0.401-  10 1.95  20 1.95   9 1.98
  95  0.750  0.750  0.503-  10 1.95  20 1.95  13 2.11
  96  0.098  0.625  0.452-  11 1.95  41 1.95  50 1.98
  97  0.902  0.625  0.452-  11 1.95  41 1.95  10 1.98
  98  0.000  0.750  0.532-  22 1.90  12 1.90  11 2.00
  99  0.000  0.750  0.634-  15 1.81  12 2.02  22 2.02
 100  0.850  0.625  0.583-  12 1.95  13 1.97  43 1.97
 101  0.150  0.625  0.583-  12 1.95  53 1.97  83 1.97
 102  0.750  0.750  0.662-  13 1.86  14 2.10  24 2.10
 103  0.750  0.750  0.765-  14 1.83  24 1.83
 104  0.094  0.625  0.719-  45 1.95  15 1.95  54 2.03
 105  0.906  0.625  0.719-  45 1.95  15 1.95  14 2.03
 106  0.750  0.000  0.141-  16 1.95  26 1.95
 107  0.750  0.000  0.243-  16 1.95  26 1.95  19 1.98
 108  0.098  0.875  0.192-   7 1.95  17 1.95  56 1.98
 109  0.902  0.875  0.192-   7 1.95  17 1.95  16 1.98
 110  0.000  0.000  0.271-  18 1.95  28 1.95  17 1.98
 111  0.000  0.000  0.373-  18 1.95  28 1.95  21 1.98
 112  0.848  0.875  0.322-   9 1.95  19 1.95  18 1.98
 113  0.152  0.875  0.322-  49 1.95  59 1.95  18 1.98
 114  0.750  0.000  0.401-  20 1.95  30 1.95  19 1.98
 115  0.750  0.000  0.503-  20 1.95  30 1.95  23 2.11
 116  0.098  0.875  0.452-  11 1.95  21 1.95  60 1.98
 117  0.902  0.875  0.452-  11 1.95  21 1.95  20 1.98
 118  0.000  0.000  0.532-  32 1.89  22 1.89  21 2.00
 119  1.000  0.000  0.634-  25 1.81  32 2.02  22 2.02
 120  0.850  0.875  0.583-  22 1.95  13 1.97  23 1.97
 121  0.150  0.875  0.583-  22 1.95  53 1.97  63 1.97
 122  0.750  0.000  0.662-  23 1.86  24 2.10  34 2.10
 123  0.750  0.000  0.765-  24 1.83  34 1.83
 124  0.094  0.875  0.719-  15 1.95  25 1.95  64 2.03
 125  0.906  0.875  0.719-  15 1.95  25 1.95  24 2.03
 126  0.750  0.250  0.141-  26 1.95  36 1.95
 127  0.750  0.250  0.243-  26 1.95  36 1.95  29 1.98
 128  0.098  0.125  0.192-  17 1.95  27 1.95  66 1.98
 129  0.902  0.125  0.192-  17 1.95  27 1.95  26 1.98
 130  0.000  0.250  0.271-  28 1.95  38 1.95  27 1.98
 131  0.000  0.250  0.373-  28 1.95  38 1.95  31 1.98
 132  0.848  0.125  0.322-  19 1.95  29 1.95  28 1.98
 133  0.152  0.125  0.322-  59 1.95  69 1.95  28 1.98
 134  0.750  0.250  0.401-  30 1.95  40 1.95  29 1.98
 135  0.750  0.250  0.503-  30 1.95  40 1.95  33 2.11
 136  0.098  0.125  0.452-  21 1.95  31 1.95  70 1.98
 137  0.902  0.125  0.452-  21 1.95  31 1.95  30 1.98
 138  0.000  0.250  0.532-  32 1.90  42 1.90  31 2.00
 139  1.000  0.250  0.634-  35 1.81  42 2.02  32 2.02
 140  0.850  0.125  0.583-  32 1.95  33 1.97  23 1.97
 141  0.150  0.125  0.583-  32 1.95  73 1.97  63 1.97
 142  0.750  0.250  0.662-  33 1.86  44 2.10  34 2.10
 143  0.750  0.250  0.765-  44 1.83  34 1.83
 144  0.094  0.125  0.719-  35 1.95  25 1.95  74 2.03
 145  0.906  0.125  0.719-  35 1.95  25 1.95  34 2.03
 146  0.750  0.500  0.141-   6 1.95  36 1.95
 147  0.750  0.500  0.243-   6 1.95  36 1.95  39 1.98
 148  0.098  0.375  0.192-  27 1.95  37 1.95  76 1.98
 149  0.902  0.375  0.192-  27 1.95  37 1.95  36 1.98
 150  0.000  0.500  0.271-   8 1.95  38 1.95  37 1.98
 151  0.000  0.500  0.373-   8 1.95  38 1.95  41 1.98
 152  0.848  0.375  0.322-  29 1.95  39 1.95  38 1.98
 153  0.152  0.375  0.322-  69 1.95  79 1.95  38 1.98
 154  0.750  0.500  0.401-  10 1.95  40 1.95  39 1.98
 155  0.750  0.500  0.503-  10 1.95  40 1.95  43 2.11
 156  0.098  0.375  0.452-  31 1.95  41 1.95  80 1.98
 157  0.902  0.375  0.452-  31 1.95  41 1.95  40 1.98
 158  0.000  0.500  0.532-  42 1.90  12 1.90  41 2.00
 159  0.000  0.500  0.634-  45 1.81  42 2.02  12 2.02
 160  0.850  0.375  0.583-  42 1.95  33 1.97  43 1.97
 161  0.150  0.375  0.583-  42 1.95  73 1.97  83 1.97
 162  0.751  0.500  0.662-  43 1.86  14 2.10  44 2.10
 163  0.749  0.500  0.765-  44 1.83  14 1.84
 164  0.094  0.375  0.719-  45 1.95  35 1.95  84 2.03
 165  0.906  0.375  0.719-  45 1.95  35 1.95  44 2.03
 166  0.250  0.750  0.141-  46 1.95  56 1.95
 167  0.250  0.750  0.243-  46 1.95  56 1.95  49 1.98
 168  0.598  0.625  0.192-  47 1.95  77 1.95   6 1.98
 169  0.402  0.625  0.192-  47 1.95  77 1.95  46 1.98
 170  0.500  0.750  0.271-  48 1.95  58 1.95  47 1.98
 171  0.500  0.750  0.373-  48 1.95  58 1.95  51 1.98
 172  0.348  0.625  0.322-  49 1.95  79 1.95  48 1.98
 173  0.652  0.625  0.322-   9 1.95  39 1.95  48 1.98
 174  0.250  0.750  0.401-  50 1.95  60 1.95  49 1.98
 175  0.250  0.750  0.503-  50 1.95  60 1.95  53 2.11
 176  0.598  0.625  0.452-  51 1.95  81 1.95  10 1.98
 177  0.402  0.625  0.452-  51 1.95  81 1.95  50 1.98
 178  0.500  0.750  0.532-  62 1.89  52 1.90  51 2.00
 179  0.500  0.750  0.634-  55 1.81  62 2.01  52 2.01
 180  0.350  0.625  0.583-  52 1.95  83 1.97  53 1.97
 181  0.650  0.625  0.583-  52 1.95  43 1.97  13 1.97
 182  0.250  0.750  0.662-  53 1.86  54 2.10  64 2.10
 183  0.250  0.750  0.765-  54 1.83  64 1.83
 184  0.594  0.626  0.719-  55 1.94  85 1.95  14 2.03
 185  0.406  0.626  0.719-  55 1.94  85 1.95  54 2.03
 186  0.250  0.000  0.141-  56 1.95  66 1.95
 187  0.250  0.000  0.243-  56 1.95  66 1.95  59 1.98
 188  0.598  0.875  0.192-  47 1.95  57 1.95  16 1.98
 189  0.402  0.875  0.192-  47 1.95  57 1.95  56 1.98
 190  0.500  0.000  0.271-  58 1.95  68 1.95  57 1.98
 191  0.500  0.000  0.373-  58 1.95  68 1.95  61 1.98
 192  0.348  0.875  0.322-  49 1.95  59 1.95  58 1.98
 193  0.652  0.875  0.322-   9 1.95  19 1.95  58 1.98
 194  0.250  0.000  0.401-  60 1.95  70 1.95  59 1.98
 195  0.250  0.000  0.503-  60 1.95  70 1.95  63 2.11
 196  0.598  0.875  0.452-  51 1.95  61 1.95  20 1.98
 197  0.402  0.875  0.452-  51 1.95  61 1.95  60 1.98
 198  0.500  0.000  0.532-  62 1.90  72 1.90  61 1.99
 199  0.500  0.000  0.634-  65 1.81  72 2.02  62 2.02
 200  0.350  0.875  0.583-  62 1.95  63 1.97  53 1.97
 201  0.650  0.875  0.583-  62 1.95  23 1.97  13 1.97
 202  0.250  0.000  0.662-  63 1.86  74 2.10  64 2.10
 203  0.250  1.000  0.765-  74 1.83  64 1.83
 204  0.594  0.875  0.719-  65 1.95  55 1.95  24 2.03
 205  0.406  0.875  0.719-  65 1.95  55 1.95  64 2.03
 206  0.250  0.250  0.141-  66 1.95  76 1.95
 207  0.250  0.250  0.243-  66 1.95  76 1.95  69 1.98
 208  0.598  0.125  0.192-  57 1.95  67 1.95  26 1.98
 209  0.402  0.125  0.192-  57 1.95  67 1.95  66 1.98
 210  0.500  0.250  0.271-  68 1.95  78 1.95  67 1.98
 211  0.500  0.250  0.373-  68 1.95  78 1.95  71 1.98
 212  0.348  0.125  0.322-  59 1.95  69 1.95  68 1.98
 213  0.652  0.125  0.322-  19 1.95  29 1.95  68 1.98
 214  0.250  0.250  0.401-  70 1.95  80 1.95  69 1.98
 215  0.250  0.250  0.503-  70 1.95  80 1.95  73 2.11
 216  0.598  0.125  0.452-  61 1.95  71 1.95  30 1.98
 217  0.402  0.125  0.452-  61 1.95  71 1.95  70 1.98
 218  0.500  0.250  0.532-  72 1.89  82 1.90  71 2.00
 219  0.500  0.250  0.634-  75 1.81  72 2.01  82 2.01
 220  0.350  0.125  0.583-  72 1.95  63 1.97  73 1.97
 221  0.650  0.125  0.583-  72 1.95  23 1.97  33 1.97
 222  0.250  0.250  0.662-  73 1.86  84 2.10  74 2.10
 223  0.250  0.250  0.765-  84 1.83  74 1.83
 224  0.594  0.125  0.719-  65 1.95  75 1.95  34 2.03
 225  0.406  0.125  0.719-  65 1.95  75 1.95  74 2.03
 226  0.250  0.500  0.141-  46 1.95  76 1.95
 227  0.250  0.500  0.243-  46 1.95  76 1.95  79 1.98
 228  0.598  0.375  0.192-  67 1.95  77 1.95  36 1.98
 229  0.402  0.375  0.192-  67 1.95  77 1.95  76 1.98
 230  0.500  0.500  0.271-  48 1.95  78 1.95  77 1.98
 231  0.500  0.500  0.373-  48 1.95  78 1.95  81 1.98
 232  0.348  0.375  0.322-  69 1.95  79 1.95  78 1.98
 233  0.652  0.375  0.322-  29 1.95  39 1.95  78 1.98
 234  0.250  0.500  0.401-  50 1.95  80 1.95  79 1.98
 235  0.250  0.500  0.503-  50 1.95  80 1.95  83 2.11
 236  0.598  0.375  0.452-  71 1.95  81 1.95  40 1.98
 237  0.402  0.375  0.452-  71 1.95  81 1.95  80 1.98
 238  0.500  0.500  0.532-  52 1.90  82 1.90  81 2.00
 239  0.500  0.500  0.635-  85 1.82  82 2.02  52 2.02
 240  0.350  0.375  0.583-  82 1.95  83 1.97  73 1.97
 241  0.650  0.375  0.583-  82 1.95  43 1.97  33 1.97
 242  0.249  0.500  0.662-  83 1.86  84 2.10  54 2.10
 243  0.251  0.500  0.765-  54 1.83  84 1.84
 244  0.594  0.374  0.719-  75 1.94  85 1.95  44 2.03
 245  0.406  0.374  0.719-  75 1.94  85 1.95  84 2.03
 

IMPORTANT INFORMATION: All symmetrisations will be switched off!
NOSYMM: (Re-)initialisation of all symmetry stuff for point group C_1.


----------------------------------------------------------------------------------------

                                     Primitive cell                                     

  volume of cell :    3846.0501

  direct lattice vectors                    reciprocal lattice vectors
    13.003980404  0.000000000  0.000000000     0.076899531  0.000000000  0.000000000
     0.000000000 11.830378115  0.000000000     0.000000000  0.084528152  0.000000000
     0.000000000  0.000000000 25.000000000     0.000000000  0.000000000  0.040000000

  length of vectors
    13.003980404 11.830378115 25.000000000     0.076899531  0.084528152  0.040000000

  position of ions in fractional coordinates (direct lattice)
     0.500064753  0.500001971  0.833925908
     0.496116025  0.575765153  0.859097683
     0.504021055  0.424236392  0.859102374
     0.570575345  0.504286181  0.809848038
     0.429538220  0.495704177  0.809856132
     0.750000008  0.625000007  0.191872994
     0.000000008  0.750000007  0.191872994
     0.000000008  0.625000007  0.321912798
     0.750000008  0.750000007  0.321912798
     0.750000008  0.625000007  0.451952602
     0.000000008  0.750000007  0.451952602
     0.999998729  0.625016586  0.579214663
     0.750021378  0.750038300  0.587267412
     0.750117211  0.625133254  0.721168073
     0.000025095  0.750082334  0.706350679
     0.750000008  0.875000007  0.191872994
     0.000000008  0.000000007  0.191872994
     0.000000008  0.875000007  0.321912798
     0.750000008  0.000000007  0.321912798
     0.750000008  0.875000007  0.451952602
     0.000000008  0.000000007  0.451952602
     0.999995895  0.875019834  0.579234708
     0.749960162  0.000003641  0.587339263
     0.749868689  0.875032817  0.721416409
     0.999999847  0.999999993  0.706360792
     0.750000008  0.125000007  0.191872994
     0.000000008  0.250000007  0.191872994
     0.000000008  0.125000007  0.321912798
     0.750000008  0.250000007  0.321912798
     0.750000008  0.125000007  0.451952602
     0.000000008  0.250000007  0.451952602
     0.000004299  0.124980173  0.579234710
     0.750020916  0.249964339  0.587281564
     0.749849713  0.124984901  0.721421855
     0.999975965  0.249917711  0.706350689
     0.750000008  0.375000007  0.191872994
     0.000000008  0.500000007  0.191872994
     0.000000008  0.375000007  0.321912798
     0.750000008  0.500000007  0.321912798
     0.750000008  0.375000007  0.451952602
     0.000000008  0.500000007  0.451952602
     0.000001195  0.374983469  0.579214669
     0.750045966  0.499996875  0.587270533
     0.750061553  0.374909750  0.721212007
     0.000000696  0.500000012  0.706329162
     0.250000008  0.625000007  0.191872994
     0.500000008  0.750000007  0.191872994
     0.500000008  0.625000007  0.321912798
     0.250000008  0.750000007  0.321912798
     0.250000008  0.625000007  0.451952602
     0.500000008  0.750000007  0.451952602
     0.499999026  0.624688363  0.579585883
     0.249979194  0.750035526  0.587281864
     0.249940088  0.625089729  0.721213004
     0.500006830  0.749974620  0.706192418
     0.250000008  0.875000007  0.191872994
     0.500000008  0.000000007  0.191872994
     0.500000008  0.875000007  0.321912798
     0.250000008  0.000000007  0.321912798
     0.250000008  0.875000007  0.451952602
     0.500000008  0.000000007  0.451952602
     0.499998066  0.874845901  0.579050210
     0.250039839  0.999996499  0.587339287
     0.250150325  0.875015080  0.721421862
     0.500000028  0.999999944  0.706173444
     0.250000008  0.125000007  0.191872994
     0.500000008  0.250000007  0.191872994
     0.500000008  0.125000007  0.321912798
     0.250000008  0.250000007  0.321912798
     0.250000008  0.125000007  0.451952602
     0.500000008  0.250000007  0.451952602
     0.500001737  0.125154234  0.579050257
     0.249978783  0.249961984  0.587267726
     0.250131388  0.124967217  0.721416469
     0.499993201  0.250025408  0.706192563
     0.250000008  0.375000007  0.191872994
     0.500000008  0.500000007  0.191872994
     0.500000008  0.375000007  0.321912798
     0.250000008  0.500000007  0.321912798
     0.250000008  0.375000007  0.451952602
     0.500000008  0.500000007  0.451952602
     0.500000918  0.375311596  0.579585972
     0.249954079  0.500003196  0.587271024
     0.249884573  0.374867360  0.721169165
     0.500001922  0.500000009  0.707294499
     0.750000008  0.750000007  0.140897626
     0.750000008  0.750000007  0.242848363
     0.097999556  0.625000007  0.191872994
     0.902000459  0.625000007  0.191872994
     0.000000008  0.750000007  0.270937430
     0.000000008  0.750000007  0.372888167
     0.847999556  0.625000007  0.321912798
     0.152000459  0.625000007  0.321912798
     0.750000008  0.750000007  0.400977234
     0.750000008  0.750000007  0.502927971
     0.097999556  0.625000007  0.451952602
     0.902000459  0.625000007  0.451952602
     0.000000081  0.750035785  0.531821701
     0.000005441  0.749997493  0.634079048
     0.850228265  0.625045097  0.582822766
     0.149773595  0.625050786  0.582824216
     0.750332080  0.750163017  0.661697893
     0.749830986  0.749842022  0.764676835
     0.094080910  0.624949345  0.719366992
     0.905939040  0.624963094  0.719353467
     0.750000008  0.000000007  0.140897626
     0.750000008  0.000000007  0.242848363
     0.097999556  0.875000007  0.191872994
     0.902000459  0.875000007  0.191872994
     0.000000008  0.000000007  0.270937430
     0.000000008  0.000000007  0.372888167
     0.847999556  0.875000007  0.321912798
     0.152000459  0.875000007  0.321912798
     0.750000008  0.000000007  0.400977234
     0.750000008  0.000000007  0.502927971
     0.097999556  0.875000007  0.451952602
     0.902000459  0.875000007  0.451952602
     0.000000117  0.000000038  0.531823738
     0.999999992  0.000000042  0.634081080
     0.850220918  0.875055526  0.582862033
     0.149784608  0.875046525  0.582870806
     0.750004399  0.000000056  0.661770986
     0.750115215  0.000001705  0.764772131
     0.094082737  0.874979135  0.719317396
     0.905934085  0.874972603  0.719324243
     0.750000008  0.250000007  0.140897626
     0.750000008  0.250000007  0.242848363
     0.097999556  0.125000007  0.191872994
     0.902000459  0.125000007  0.191872994
     0.000000008  0.250000007  0.270937430
     0.000000008  0.250000007  0.372888167
     0.847999556  0.125000007  0.321912798
     0.152000459  0.125000007  0.321912798
     0.750000008  0.250000007  0.400977234
     0.750000008  0.250000007  0.502927971
     0.097999556  0.125000007  0.451952602
     0.902000459  0.125000007  0.451952602
     0.000000035  0.249964236  0.531821698
     0.999994858  0.250002533  0.634079070
     0.850215484  0.124953315  0.582870663
     0.149779178  0.124944749  0.582862175
     0.750274618  0.249872205  0.661713207
     0.749848595  0.250155222  0.764692964
     0.094066384  0.125027300  0.719324220
     0.905917719  0.125021095  0.719317510
     0.750000008  0.500000007  0.140897626
     0.750000008  0.500000007  0.242848363
     0.097999556  0.375000007  0.191872994
     0.902000459  0.375000007  0.191872994
     0.000000008  0.500000007  0.270937430
     0.000000008  0.500000007  0.372888167
     0.847999556  0.375000007  0.321912798
     0.152000459  0.375000007  0.321912798
     0.750000008  0.500000007  0.400977234
     0.750000008  0.500000007  0.502927971
     0.097999556  0.375000007  0.451952602
     0.902000459  0.375000007  0.451952602
     0.000000072  0.499999997  0.531817207
     0.000000135  0.500000003  0.634062999
     0.850226624  0.374949139  0.582823977
     0.149771902  0.374955031  0.582823016
     0.750509694  0.499976995  0.661658690
     0.749165422  0.500046853  0.764575842
     0.094062088  0.375037082  0.719353833
     0.905920182  0.375050455  0.719366711
     0.250000008  0.750000007  0.140897626
     0.250000008  0.750000007  0.242848363
     0.597999556  0.625000007  0.191872994
     0.402000459  0.625000007  0.191872994
     0.500000008  0.750000007  0.270937430
     0.500000008  0.750000007  0.372888167
     0.347999556  0.625000007  0.321912798
     0.652000459  0.625000007  0.321912798
     0.250000008  0.750000007  0.400977234
     0.250000008  0.750000007  0.502927971
     0.597999556  0.625000007  0.451952602
     0.402000459  0.625000007  0.451952602
     0.500001672  0.749667286  0.531851419
     0.499969575  0.750378840  0.633950406
     0.350128978  0.624994623  0.583004849
     0.649870242  0.625001848  0.583010946
     0.249726698  0.750127222  0.661713416
     0.250151528  0.749845254  0.764693222
     0.594363037  0.625612846  0.718604686
     0.405713877  0.625567039  0.718732889
     0.250000008  0.000000007  0.140897626
     0.250000008  0.000000007  0.242848363
     0.597999556  0.875000007  0.191872994
     0.402000459  0.875000007  0.191872994
     0.500000008  0.000000007  0.270937430
     0.500000008  0.000000007  0.372888167
     0.347999556  0.875000007  0.321912798
     0.652000459  0.875000007  0.321912798
     0.250000008  0.000000007  0.400977234
     0.250000008  0.000000007  0.502927971
     0.597999556  0.875000007  0.451952602
     0.402000459  0.875000007  0.451952602
     0.499999999  0.000000077  0.531733509
     0.500000032  0.000000097  0.633925526
     0.350120778  0.875009036  0.582829621
     0.649875171  0.875004836  0.582831717
     0.249995645  0.000000053  0.661770939
     0.249885075  0.999998228  0.764772111
     0.594101413  0.875112363  0.719283300
     0.405897640  0.875127567  0.719286048
     0.250000008  0.250000007  0.140897626
     0.250000008  0.250000007  0.242848363
     0.597999556  0.125000007  0.191872994
     0.402000459  0.125000007  0.191872994
     0.500000008  0.250000007  0.270937430
     0.500000008  0.250000007  0.372888167
     0.347999556  0.125000007  0.321912798
     0.652000459  0.125000007  0.321912798
     0.250000008  0.250000007  0.400977234
     0.250000008  0.250000007  0.502927971
     0.597999556  0.125000007  0.451952602
     0.402000459  0.125000007  0.451952602
     0.499998319  0.250332724  0.531851496
     0.500029478  0.249621256  0.633950541
     0.350124784  0.124995189  0.582831701
     0.649879277  0.124991128  0.582829661
     0.249669332  0.249837633  0.661698227
     0.250169233  0.250157531  0.764677227
     0.594102670  0.124872605  0.719286194
     0.405898833  0.124887410  0.719283372
     0.250000008  0.500000007  0.140897626
     0.250000008  0.500000007  0.242848363
     0.597999556  0.375000007  0.191872994
     0.402000459  0.375000007  0.191872994
     0.500000008  0.500000007  0.270937430
     0.500000008  0.500000007  0.372888167
     0.347999556  0.375000007  0.321912798
     0.652000459  0.375000007  0.321912798
     0.250000008  0.500000007  0.400977234
     0.250000008  0.500000007  0.502927971
     0.597999556  0.375000007  0.451952602
     0.402000459  0.375000007  0.451952602
     0.500000027  0.499999986  0.531992589
     0.499999664  0.499999904  0.634551824
     0.350129653  0.374998367  0.583010966
     0.649871023  0.375005165  0.583004884
     0.249491381  0.500022894  0.661659386
     0.250837252  0.499953280  0.764576970
     0.594288600  0.374432078  0.718730996
     0.405639342  0.374387984  0.718606848

  ion indices of the primitive-cell ions
   primitive index   ion index
                 1           1
                 2           2
                 3           3
                 4           4
                 5           5
                 6           6
                 7           7
                 8           8
                 9           9
                10          10
                11          11
                12          12
                13          13
                14          14
                15          15
                16          16
                17          17
                18          18
                19          19
                20          20
                21          21
                22          22
                23          23
                24          24
                25          25
                26          26
                27          27
                28          28
                29          29
                30          30
                31          31
                32          32
                33          33
                34          34
                35          35
                36          36
                37          37
                38          38
                39          39
                40          40
                41          41
                42          42
                43          43
                44          44
                45          45
                46          46
                47          47
                48          48
                49          49
                50          50
                51          51
                52          52
                53          53
                54          54
                55          55
                56          56
                57          57
                58          58
                59          59
                60          60
                61          61
                62          62
                63          63
                64          64
                65          65
                66          66
                67          67
                68          68
                69          69
                70          70
                71          71
                72          72
                73          73
                74          74
                75          75
                76          76
                77          77
                78          78
                79          79
                80          80
                81          81
                82          82
                83          83
                84          84
                85          85
                86          86
                87          87
                88          88
                89          89
                90          90
                91          91
                92          92
                93          93
                94          94
                95          95
                96          96
                97          97
                98          98
                99          99
               100         100
               101         101
               102         102
               103         103
               104         104
               105         105
               106         106
               107         107
               108         108
               109         109
               110         110
               111         111
               112         112
               113         113
               114         114
               115         115
               116         116
               117         117
               118         118
               119         119
               120         120
               121         121
               122         122
               123         123
               124         124
               125         125
               126         126
               127         127
               128         128
               129         129
               130         130
               131         131
               132         132
               133         133
               134         134
               135         135
               136         136
               137         137
               138         138
               139         139
               140         140
               141         141
               142         142
               143         143
               144         144
               145         145
               146         146
               147         147
               148         148
               149         149
               150         150
               151         151
               152         152
               153         153
               154         154
               155         155
               156         156
               157         157
               158         158
               159         159
               160         160
               161         161
               162         162
               163         163
               164         164
               165         165
               166         166
               167         167
               168         168
               169         169
               170         170
               171         171
               172         172
               173         173
               174         174
               175         175
               176         176
               177         177
               178         178
               179         179
               180         180
               181         181
               182         182
               183         183
               184         184
               185         185
               186         186
               187         187
               188         188
               189         189
               190         190
               191         191
               192         192
               193         193
               194         194
               195         195
               196         196
               197         197
               198         198
               199         199
               200         200
               201         201
               202         202
               203         203
               204         204
               205         205
               206         206
               207         207
               208         208
               209         209
               210         210
               211         211
               212         212
               213         213
               214         214
               215         215
               216         216
               217         217
               218         218
               219         219
               220         220
               221         221
               222         222
               223         223
               224         224
               225         225
               226         226
               227         227
               228         228
               229         229
               230         230
               231         231
               232         232
               233         233
               234         234
               235         235
               236         236
               237         237
               238         238
               239         239
               240         240
               241         241
               242         242
               243         243
               244         244
               245         245

----------------------------------------------------------------------------------------

 
 
 KPOINTS: pymatgen v2020.8.13 with grid density = 

Automatic generation of k-mesh.
 Grid dimensions read from file:
 generate k-points for:    2    2    1

 Generating k-lattice:

  Cartesian coordinates                     Fractional coordinates (reciprocal lattice)
     0.038449766  0.000000000  0.000000000     0.500000000  0.000000000  0.000000000
     0.000000000  0.042264076  0.000000000     0.000000000  0.500000000  0.000000000
     0.000000000  0.000000000  0.040000000     0.000000000  0.000000000  1.000000000

  Length of vectors
     0.038449766  0.042264076  0.040000000

  Shift w.r.t. Gamma in fractional coordinates (k-lattice)
     0.000000000  0.000000000  0.000000000

 
 Subroutine IBZKPT returns following result:
 ===========================================
 
 Found      4 irreducible k-points:
 
 Following reciprocal coordinates:
            Coordinates               Weight
  0.000000  0.000000  0.000000      1.000000
  0.500000  0.000000  0.000000      1.000000
  0.000000  0.500000  0.000000      1.000000
  0.500000  0.500000  0.000000      1.000000
 
 Following cartesian coordinates:
            Coordinates               Weight
  0.000000  0.000000  0.000000      1.000000
  0.038450  0.000000  0.000000      1.000000
  0.000000  0.042264  0.000000      1.000000
  0.038450  0.042264  0.000000      1.000000
 


--------------------------------------------------------------------------------------------------------




 Dimension of arrays:
   k-points           NKPTS =      4   k-points in BZ     NKDIM =      4   number of bands    NBANDS=   1156
   number of dos      NEDOS =    301   number of ions     NIONS =    245
   non local maximal  LDIM  =      6   non local SUM 2l+1 LMDIM =     18
   total plane-waves  NPLWV = ******
   max r-space proj   IRMAX =   4319   max aug-charges    IRDMAX=  20711
   dimension x,y,z NGX =   108 NGY =   96 NGZ =  196
   dimension x,y,z NGXF=   216 NGYF=  192 NGZF=  392
   support grid    NGXF=   216 NGYF=  192 NGZF=  392
   ions per type =               1   4  80 160
   NGX,Y,Z   is equivalent  to a cutoff of  13.81, 13.49, 13.03 a.u.
   NGXF,Y,Z  is equivalent  to a cutoff of  27.61, 26.98, 26.07 a.u.

 SYSTEM =  Oxide-Surface                           
 POSCAR =   C  H Ti  O                             

    13.003980404 11.830378115 25.000000000     0.076899531  0.084528152  0.040000000


 
 old parameters found on file WAVECAR:
  energy-cutoff  :     1000.00
  volume of cell :     3846.05
      direct lattice vectors                 reciprocal lattice vectors
    13.003980404  0.000000000  0.000000000     0.076899531  0.000000000  0.000000000
     0.000000000 11.830378115  0.000000000     0.000000000  0.084528152  0.000000000
     0.000000000  0.000000000 25.000000000     0.000000000  0.000000000  0.040000000

  length of vectors

 
 k-points in units of 2pi/SCALE and weight: pymatgen v2020.8.13 with grid density = 
   0.00000000  0.00000000  0.00000000       0.250
   0.03844977  0.00000000  0.00000000       0.250
   0.00000000  0.04226408  0.00000000       0.250
   0.03844977  0.04226408  0.00000000       0.250
 
 k-points in reciprocal lattice and weights: pymatgen v2020.8.13 with grid density = 
   0.00000000  0.00000000  0.00000000       0.250
   0.50000000  0.00000000  0.00000000       0.250
   0.00000000  0.50000000  0.00000000       0.250
   0.50000000  0.50000000  0.00000000       0.250
 
 position of ions in fractional coordinates (direct lattice) 
   0.50006475  0.50000197  0.83392591
   0.49611602  0.57576515  0.85909768
   0.50402105  0.42423639  0.85910237
   0.57057534  0.50428618  0.80984804
   0.42953822  0.49570418  0.80985613
   0.75000001  0.62500001  0.19187299
   0.00000001  0.75000001  0.19187299
   0.00000001  0.62500001  0.32191280
   0.75000001  0.75000001  0.32191280
   0.75000001  0.62500001  0.45195260
   0.00000001  0.75000001  0.45195260
   0.99999873  0.62501659  0.57921466
   0.75002138  0.75003830  0.58726741
   0.75011721  0.62513325  0.72116807
   0.00002510  0.75008233  0.70635068
   0.75000001  0.87500001  0.19187299
   0.00000001  0.00000001  0.19187299
   0.00000001  0.87500001  0.32191280
   0.75000001  0.00000001  0.32191280
   0.75000001  0.87500001  0.45195260
   0.00000001  0.00000001  0.45195260
   0.99999590  0.87501983  0.57923471
   0.74996016  0.00000364  0.58733926
   0.74986869  0.87503282  0.72141641
   0.99999985  0.99999999  0.70636079
   0.75000001  0.12500001  0.19187299
   0.00000001  0.25000001  0.19187299
   0.00000001  0.12500001  0.32191280
   0.75000001  0.25000001  0.32191280
   0.75000001  0.12500001  0.45195260
   0.00000001  0.25000001  0.45195260
   0.00000430  0.12498017  0.57923471
   0.75002092  0.24996434  0.58728156
   0.74984971  0.12498490  0.72142186
   0.99997596  0.24991771  0.70635069
   0.75000001  0.37500001  0.19187299
   0.00000001  0.50000001  0.19187299
   0.00000001  0.37500001  0.32191280
   0.75000001  0.50000001  0.32191280
   0.75000001  0.37500001  0.45195260
   0.00000001  0.50000001  0.45195260
   0.00000120  0.37498347  0.57921467
   0.75004597  0.49999688  0.58727053
   0.75006155  0.37490975  0.72121201
   0.00000070  0.50000001  0.70632916
   0.25000001  0.62500001  0.19187299
   0.50000001  0.75000001  0.19187299
   0.50000001  0.62500001  0.32191280
   0.25000001  0.75000001  0.32191280
   0.25000001  0.62500001  0.45195260
   0.50000001  0.75000001  0.45195260
   0.49999903  0.62468836  0.57958588
   0.24997919  0.75003553  0.58728186
   0.24994009  0.62508973  0.72121300
   0.50000683  0.74997462  0.70619242
   0.25000001  0.87500001  0.19187299
   0.50000001  0.00000001  0.19187299
   0.50000001  0.87500001  0.32191280
   0.25000001  0.00000001  0.32191280
   0.25000001  0.87500001  0.45195260
   0.50000001  0.00000001  0.45195260
   0.49999807  0.87484590  0.57905021
   0.25003984  0.99999650  0.58733929
   0.25015032  0.87501508  0.72142186
   0.50000003  0.99999994  0.70617344
   0.25000001  0.12500001  0.19187299
   0.50000001  0.25000001  0.19187299
   0.50000001  0.12500001  0.32191280
   0.25000001  0.25000001  0.32191280
   0.25000001  0.12500001  0.45195260
   0.50000001  0.25000001  0.45195260
   0.50000174  0.12515423  0.57905026
   0.24997878  0.24996198  0.58726773
   0.25013139  0.12496722  0.72141647
   0.49999320  0.25002541  0.70619256
   0.25000001  0.37500001  0.19187299
   0.50000001  0.50000001  0.19187299
   0.50000001  0.37500001  0.32191280
   0.25000001  0.50000001  0.32191280
   0.25000001  0.37500001  0.45195260
   0.50000001  0.50000001  0.45195260
   0.50000092  0.37531160  0.57958597
   0.24995408  0.50000320  0.58727102
   0.24988457  0.37486736  0.72116916
   0.50000192  0.50000001  0.70729450
   0.75000001  0.75000001  0.14089763
   0.75000001  0.75000001  0.24284836
   0.09799956  0.62500001  0.19187299
   0.90200046  0.62500001  0.19187299
   0.00000001  0.75000001  0.27093743
   0.00000001  0.75000001  0.37288817
   0.84799956  0.62500001  0.32191280
   0.15200046  0.62500001  0.32191280
   0.75000001  0.75000001  0.40097723
   0.75000001  0.75000001  0.50292797
   0.09799956  0.62500001  0.45195260
   0.90200046  0.62500001  0.45195260
   0.00000008  0.75003579  0.53182170
   0.00000544  0.74999749  0.63407905
   0.85022827  0.62504510  0.58282277
   0.14977359  0.62505079  0.58282422
   0.75033208  0.75016302  0.66169789
   0.74983099  0.74984202  0.76467684
   0.09408091  0.62494935  0.71936699
   0.90593904  0.62496309  0.71935347
   0.75000001  0.00000001  0.14089763
   0.75000001  0.00000001  0.24284836
   0.09799956  0.87500001  0.19187299
   0.90200046  0.87500001  0.19187299
   0.00000001  0.00000001  0.27093743
   0.00000001  0.00000001  0.37288817
   0.84799956  0.87500001  0.32191280
   0.15200046  0.87500001  0.32191280
   0.75000001  0.00000001  0.40097723
   0.75000001  0.00000001  0.50292797
   0.09799956  0.87500001  0.45195260
   0.90200046  0.87500001  0.45195260
   0.00000012  0.00000004  0.53182374
   0.99999999  0.00000004  0.63408108
   0.85022092  0.87505553  0.58286203
   0.14978461  0.87504653  0.58287081
   0.75000440  0.00000006  0.66177099
   0.75011522  0.00000170  0.76477213
   0.09408274  0.87497914  0.71931740
   0.90593409  0.87497260  0.71932424
   0.75000001  0.25000001  0.14089763
   0.75000001  0.25000001  0.24284836
   0.09799956  0.12500001  0.19187299
   0.90200046  0.12500001  0.19187299
   0.00000001  0.25000001  0.27093743
   0.00000001  0.25000001  0.37288817
   0.84799956  0.12500001  0.32191280
   0.15200046  0.12500001  0.32191280
   0.75000001  0.25000001  0.40097723
   0.75000001  0.25000001  0.50292797
   0.09799956  0.12500001  0.45195260
   0.90200046  0.12500001  0.45195260
   0.00000004  0.24996424  0.53182170
   0.99999486  0.25000253  0.63407907
   0.85021548  0.12495331  0.58287066
   0.14977918  0.12494475  0.58286218
   0.75027462  0.24987220  0.66171321
   0.74984860  0.25015522  0.76469296
   0.09406638  0.12502730  0.71932422
   0.90591772  0.12502109  0.71931751
   0.75000001  0.50000001  0.14089763
   0.75000001  0.50000001  0.24284836
   0.09799956  0.37500001  0.19187299
   0.90200046  0.37500001  0.19187299
   0.00000001  0.50000001  0.27093743
   0.00000001  0.50000001  0.37288817
   0.84799956  0.37500001  0.32191280
   0.15200046  0.37500001  0.32191280
   0.75000001  0.50000001  0.40097723
   0.75000001  0.50000001  0.50292797
   0.09799956  0.37500001  0.45195260
   0.90200046  0.37500001  0.45195260
   0.00000007  0.50000000  0.53181721
   0.00000014  0.50000000  0.63406300
   0.85022662  0.37494914  0.58282398
   0.14977190  0.37495503  0.58282302
   0.75050969  0.49997699  0.66165869
   0.74916542  0.50004685  0.76457584
   0.09406209  0.37503708  0.71935383
   0.90592018  0.37505045  0.71936671
   0.25000001  0.75000001  0.14089763
   0.25000001  0.75000001  0.24284836
   0.59799956  0.62500001  0.19187299
   0.40200046  0.62500001  0.19187299
   0.50000001  0.75000001  0.27093743
   0.50000001  0.75000001  0.37288817
   0.34799956  0.62500001  0.32191280
   0.65200046  0.62500001  0.32191280
   0.25000001  0.75000001  0.40097723
   0.25000001  0.75000001  0.50292797
   0.59799956  0.62500001  0.45195260
   0.40200046  0.62500001  0.45195260
   0.50000167  0.74966729  0.53185142
   0.49996957  0.75037884  0.63395041
   0.35012898  0.62499462  0.58300485
   0.64987024  0.62500185  0.58301095
   0.24972670  0.75012722  0.66171342
   0.25015153  0.74984525  0.76469322
   0.59436304  0.62561285  0.71860469
   0.40571388  0.62556704  0.71873289
   0.25000001  0.00000001  0.14089763
   0.25000001  0.00000001  0.24284836
   0.59799956  0.87500001  0.19187299
   0.40200046  0.87500001  0.19187299
   0.50000001  0.00000001  0.27093743
   0.50000001  0.00000001  0.37288817
   0.34799956  0.87500001  0.32191280
   0.65200046  0.87500001  0.32191280
   0.25000001  0.00000001  0.40097723
   0.25000001  0.00000001  0.50292797
   0.59799956  0.87500001  0.45195260
   0.40200046  0.87500001  0.45195260
   0.50000000  0.00000008  0.53173351
   0.50000003  0.00000010  0.63392553
   0.35012078  0.87500904  0.58282962
   0.64987517  0.87500484  0.58283172
   0.24999565  0.00000005  0.66177094
   0.24988508  0.99999823  0.76477211
   0.59410141  0.87511236  0.71928330
   0.40589764  0.87512757  0.71928605
   0.25000001  0.25000001  0.14089763
   0.25000001  0.25000001  0.24284836
   0.59799956  0.12500001  0.19187299
   0.40200046  0.12500001  0.19187299
   0.50000001  0.25000001  0.27093743
   0.50000001  0.25000001  0.37288817
   0.34799956  0.12500001  0.32191280
   0.65200046  0.12500001  0.32191280
   0.25000001  0.25000001  0.40097723
   0.25000001  0.25000001  0.50292797
   0.59799956  0.12500001  0.45195260
   0.40200046  0.12500001  0.45195260
   0.49999832  0.25033272  0.53185150
   0.50002948  0.24962126  0.63395054
   0.35012478  0.12499519  0.58283170
   0.64987928  0.12499113  0.58282966
   0.24966933  0.24983763  0.66169823
   0.25016923  0.25015753  0.76467723
   0.59410267  0.12487260  0.71928619
   0.40589883  0.12488741  0.71928337
   0.25000001  0.50000001  0.14089763
   0.25000001  0.50000001  0.24284836
   0.59799956  0.37500001  0.19187299
   0.40200046  0.37500001  0.19187299
   0.50000001  0.50000001  0.27093743
   0.50000001  0.50000001  0.37288817
   0.34799956  0.37500001  0.32191280
   0.65200046  0.37500001  0.32191280
   0.25000001  0.50000001  0.40097723
   0.25000001  0.50000001  0.50292797
   0.59799956  0.37500001  0.45195260
   0.40200046  0.37500001  0.45195260
   0.50000003  0.49999999  0.53199259
   0.49999966  0.49999990  0.63455182
   0.35012965  0.37499837  0.58301097
   0.64987102  0.37500517  0.58300488
   0.24949138  0.50002289  0.66165939
   0.25083725  0.49995328  0.76457697
   0.59428860  0.37443208  0.71873100
   0.40563934  0.37438798  0.71860685
 
 position of ions in cartesian coordinates  (Angst):
   6.50283225  5.91521237 20.84814769
   6.45148307  6.81151947 21.47744207
   6.55427992  5.01887692 21.47755935
   7.41975060  5.96589620 20.24620094
   5.58570660  5.86436785 20.24640331
   9.75298540  7.39398640  4.79682486
   0.00000010  8.87278367  4.79682486
   0.00000010  7.39398640  8.04781996
   9.75298540  8.87278367  8.04781996
   9.75298540  7.39398640 11.29881506
   0.00000010  8.87278367 11.29881506
  13.00396388  7.39418254 14.48036659
   9.75326331  8.87323668 14.68168530
   9.75450951  7.39556276 18.02920182
   0.00032634  8.87375762 17.65876697
   9.75298540 10.35158093  4.79682486
   0.00000010  0.00000008  4.79682486
   0.00000010 10.35158093  8.04781996
   9.75298540  0.00000008  8.04781996
   9.75298540 10.35158093 11.29881506
   0.00000010  0.00000008 11.29881506
  13.00392702 10.35181549 14.48086770
   9.75246725  0.00004308 14.68348157
   9.75127773 10.35196909 18.03541024
  13.00397841 11.83037803 17.65901981
   9.75298540  1.47879735  4.79682486
   0.00000010  2.95759461  4.79682486
   0.00000010  1.47879735  8.04781996
   9.75298540  2.95759461  8.04781996
   9.75298540  1.47879735 11.29881506
   0.00000010  2.95759461 11.29881506
   0.00005590  1.47856270 14.48086775
   9.75325730  2.95717265 14.68203911
   9.75103097  1.47861864 18.03554639
  13.00366785  2.95662102 17.65876723
   9.75298540  4.43639188  4.79682486
   0.00000010  5.91518914  4.79682486
   0.00000010  4.43639188  8.04781996
   9.75298540  5.91518914  8.04781996
   9.75298540  4.43639188 11.29881506
   0.00000010  5.91518914 11.29881506
   0.00001554  4.43619623 14.48036673
   9.75358305  5.91515209 14.68176333
   9.75378574  4.43532411 18.03030018
   0.00000905  5.91518921 17.65822905
   3.25099520  7.39398640  4.79682486
   6.50199030  8.87278367  4.79682486
   6.50199030  7.39398640  8.04781996
   3.25099520  8.87278367  8.04781996
   3.25099520  7.39398640 11.29881506
   6.50199030  8.87278367 11.29881506
   6.50197753  7.39029954 14.48964708
   3.25072454  8.87320387 14.68204659
   3.25021601  7.39504785 18.03032510
   6.50207902  8.87248333 17.65481044
   3.25099520 10.35158093  4.79682486
   6.50199030  0.00000008  4.79682486
   6.50199030 10.35158093  8.04781996
   3.25099520  0.00000008  8.04781996
   3.25099520 10.35158093 11.29881506
   6.50199030  0.00000008 11.29881506
   6.50196506 10.34975780 14.47625525
   3.25151317 11.83033670 14.68348217
   3.25294992 10.35175925 18.03554656
   6.50199057 11.83037746 17.65433610
   3.25099520  1.47879735  4.79682486
   6.50199030  2.95759461  4.79682486
   6.50199030  1.47879735  8.04781996
   3.25099520  2.95759461  8.04781996
   3.25099520  1.47879735 11.29881506
   6.50199030  2.95759461 11.29881506
   6.50201279  1.48062191 14.47625642
   3.25071919  2.95714478 14.68169315
   3.25270367  1.47840943 18.03541172
   6.50190179  2.95789512 17.65481408
   3.25099520  4.43639188  4.79682486
   6.50199030  5.91518914  4.79682486
   6.50199030  4.43639188  8.04781996
   3.25099520  5.91518914  8.04781996
   3.25099520  4.43639188 11.29881506
   6.50199030  5.91518914 11.29881506
   6.50200214  4.44007809 14.48964930
   3.25039795  5.91522686 14.68177561
   3.24949409  4.43482262 18.02922911
   6.50201520  5.91518917 17.68236247
   9.75298540  8.87278367  3.52244065
   9.75298540  8.87278367  6.07120906
   1.27438430  7.39398640  4.79682486
  11.72959630  7.39398640  4.79682486
   0.00000010  8.87278367  6.77343576
   0.00000010  8.87278367  9.32220417
  11.02736961  7.39398640  8.04781996
   1.97661100  7.39398640  8.04781996
   9.75298540  8.87278367 10.02443086
   9.75298540  8.87278367 12.57319927
   1.27438430  7.39398640 11.29881506
  11.72959630  7.39398640 11.29881506
   0.00000105  8.87320694 13.29554252
   0.00007076  8.87275393 15.85197621
  11.05635170  7.39451984 14.57056915
   1.94765289  7.39458714 14.57060541
   9.75730366  8.87471214 16.54244732
   9.75078744  8.87091464 19.11692088
   1.22342630  7.39338706 17.98417481
  11.78081352  7.39354971 17.98383667
   9.75298540  0.00000008  3.52244065
   9.75298540  0.00000008  6.07120906
   1.27438430 10.35158093  4.79682486
  11.72959630 10.35158093  4.79682486
   0.00000010  0.00000008  6.77343576
   0.00000010  0.00000008  9.32220417
  11.02736961 10.35158093  8.04781996
   1.97661100 10.35158093  8.04781996
   9.75298540  0.00000008 10.02443086
   9.75298540  0.00000008 12.57319927
   1.27438430 10.35158093 11.29881506
  11.72959630 10.35158093 11.29881506
   0.00000152  0.00000044 13.29559344
  13.00398030  0.00000050 15.85202699
  11.05625615 10.35223774 14.57155082
   1.94779611 10.35213126 14.57177014
   9.75304251  0.00000067 16.54427464
   9.75448356  0.00002017 19.11930328
   1.22345006 10.35133401 17.98293491
  11.78074909 10.35125673 17.98310607
   9.75298540  2.95759461  3.52244065
   9.75298540  2.95759461  6.07120906
   1.27438430  1.47879735  4.79682486
  11.72959630  1.47879735  4.79682486
   0.00000010  2.95759461  6.77343576
   0.00000010  2.95759461  9.32220417
  11.02736961  1.47879735  8.04781996
   1.97661100  1.47879735  8.04781996
   9.75298540  2.95759461 10.02443086
   9.75298540  2.95759461 12.57319927
   1.27438430  1.47879735 11.29881506
  11.72959630  1.47879735 11.29881506
   0.00000046  2.95717142 13.29554244
  13.00391353  2.95762449 15.85197676
  11.05618549  1.47824496 14.57176658
   1.94772550  1.47814362 14.57155439
   9.75655643  2.95608266 16.54283017
   9.75101644  2.95943087 19.11732411
   1.22323741  1.47912023 17.98310549
  11.78053626  1.47904682 17.98293776
   9.75298540  5.91518914  3.52244065
   9.75298540  5.91518914  6.07120906
   1.27438430  4.43639188  4.79682486
  11.72959630  4.43639188  4.79682486
   0.00000010  5.91518914  6.77343576
   0.00000010  5.91518914  9.32220417
  11.02736961  4.43639188  8.04781996
   1.97661100  4.43639188  8.04781996
   9.75298540  5.91518914 10.02443086
   9.75298540  5.91518914 12.57319927
   1.27438430  4.43639188 11.29881506
  11.72959630  4.43639188 11.29881506
   0.00000094  5.91518902 13.29543016
   0.00000176  5.91518909 15.85157497
  11.05633035  4.43579009 14.57059942
   1.94763087  4.43585979 14.57057540
   9.75961335  5.91491690 16.54146725
   9.74213247  5.91574335 19.11439606
   1.22318155  4.43683049 17.98384584
  11.78056829  4.43698869 17.98416777
   3.25099520  8.87278367  3.52244065
   3.25099520  8.87278367  6.07120906
   7.77637451  7.39398640  4.79682486
   5.22760610  7.39398640  4.79682486
   6.50199030  8.87278367  6.77343576
   6.50199030  8.87278367  9.32220417
   4.52537940  7.39398640  8.04781996
   8.47860120  7.39398640  8.04781996
   3.25099520  8.87278367 10.02443086
   3.25099520  8.87278367 12.57319927
   7.77637451  7.39398640 11.29881506
   5.22760610  7.39398640 11.29881506
   6.50201194  8.86884745 13.29628549
   6.50159455  8.87726541 15.84876016
   4.55307037  7.39392271 14.57512122
   8.45089989  7.39400818 14.57527365
   3.24744108  8.87428867 16.54283541
   3.25296557  8.87095288 19.11733055
   7.72908529  7.40123652 17.96511715
   5.27589530  7.40069461 17.96832223
   3.25099520  0.00000008  3.52244065
   3.25099520  0.00000008  6.07120906
   7.77637451 10.35158093  4.79682486
   5.22760610 10.35158093  4.79682486
   6.50199030  0.00000008  6.77343576
   6.50199030  0.00000008  9.32220417
   4.52537940 10.35158093  8.04781996
   8.47860120 10.35158093  8.04781996
   3.25099520  0.00000008 10.02443086
   3.25099520  0.00000008 12.57319927
   7.77637451 10.35158093 11.29881506
   5.22760610 10.35158093 11.29881506
   6.50199019  0.00000091 13.29333774
   6.50199062  0.00000114 15.84813815
   4.55296374 10.35168775 14.57074053
   8.45096398 10.35163807 14.57079292
   3.25093847  0.00000063 16.54427348
   3.24950062 11.83035715 19.11930278
   7.72568313 10.35291014 17.98208250
   5.27828496 10.35309002 17.98215120
   3.25099520  2.95759461  3.52244065
   3.25099520  2.95759461  6.07120906
   7.77637451  1.47879735  4.79682486
   5.22760610  1.47879735  4.79682486
   6.50199030  2.95759461  6.77343576
   6.50199030  2.95759461  9.32220417
   4.52537940  1.47879735  8.04781996
   8.47860120  1.47879735  8.04781996
[...]
      9.75103      1.47862     18.03555        -0.012572     -0.000100      0.171231
     13.00367      2.95662     17.65877         0.005296      0.008987      0.123888
      9.75299      4.43639      4.79682        -0.000247     -0.000583     -3.753513
      0.00000      5.91519      4.79682         0.001068      0.000382      2.992301
      0.00000      4.43639      8.04782        -0.002958     -0.000081      0.500764
      9.75299      5.91519      8.04782         0.000185      0.000418     -0.711242
      9.75299      4.43639     11.29882        -0.006404     -0.002150      0.739310
      0.00000      5.91519     11.29882        -0.000725      0.000353     -0.725571
      0.00002      4.43620     14.48037         0.000164      0.000683      0.095967
      9.75358      5.91515     14.68176        -0.001469     -0.003692     -0.085959
      9.75379      4.43532     18.03030        -0.005834     -0.015538      0.185233
      0.00001      5.91519     17.65823        -0.000893     -0.000842      0.128125
      3.25100      7.39399      4.79682        -0.002506      0.000921     -3.753510
      6.50199      8.87278      4.79682         0.001060      0.001557      2.995076
      6.50199      7.39399      8.04782        -0.002963      0.003060      0.501527
      3.25100      8.87278      8.04782         0.000278      0.000991     -0.710798
      3.25100      7.39399     11.29882         0.000188      0.002484      0.739382
      6.50199      8.87278     11.29882        -0.000948     -0.005975     -0.698332
      6.50198      7.39030     14.48965         0.000409      0.014148      0.101470
      3.25072      8.87320     14.68205         0.001052      0.002811     -0.082305
      3.25022      7.39505     18.03033         0.001745      0.016117      0.184737
      6.50208      8.87248     17.65481        -0.000149      0.008641      0.076691
      3.25100     10.35158      4.79682        -0.002203      0.000966     -3.754145
      6.50199      0.00000      4.79682         0.001043      0.000373      2.994069
      6.50199     10.35158      8.04782        -0.002966      0.001606      0.503432
      3.25100      0.00000      8.04782         0.000471      0.000417     -0.710565
      3.25100     10.35158     11.29882        -0.001905      0.006507      0.744772
      6.50199      0.00000     11.29882        -0.000751      0.000345     -0.732076
      6.50197     10.34976     14.47626         0.000775     -0.020605      0.089731
      3.25151     11.83034     14.68348        -0.004790     -0.003265     -0.089384
      3.25295     10.35176     18.03555         0.008960      0.000785      0.171362
      6.50199     11.83038     17.65434        -0.000664     -0.000833      0.080543
      3.25100      1.47880      4.79682        -0.002213     -0.000623     -3.754177
      6.50199      2.95759      4.79682         0.001030     -0.000786      2.995111
      6.50199      1.47880      8.04782        -0.002934     -0.001341      0.503435
      3.25100      2.95759      8.04782         0.000289     -0.000099     -0.711020
      3.25100      1.47880     11.29882        -0.001904     -0.007721      0.743746
      6.50199      2.95759     11.29882        -0.000541      0.006673     -0.698333
      6.50201      1.48062     14.47626        -0.000133      0.020764      0.089379
      3.25072      2.95714     14.68169        -0.000424     -0.000658     -0.087121
      3.25270      1.47841     18.03541         0.008885      0.001576      0.173753
      6.50190      2.95790     17.65481        -0.001301     -0.010337      0.076593
      3.25100      4.43639      4.79682        -0.002510     -0.000609     -3.753588
      6.50199      5.91519      4.79682         0.001045      0.000370      2.996044
      6.50199      4.43639      8.04782        -0.002944     -0.002789      0.501532
      3.25100      5.91519      8.04782         0.000086      0.000480     -0.711235
      3.25100      4.43639     11.29882         0.000183     -0.000577      0.738263
      6.50199      5.91519     11.29882        -0.000731      0.000344     -0.696030
      6.50200      4.44008     14.48965         0.000192     -0.014022      0.101536
      3.25040      5.91523     14.68178         0.003059      0.004650     -0.086067
      3.24949      4.43482     18.02923        -0.000449     -0.007090      0.194115
      6.50202      5.91519     17.68236        -0.001201      0.000317      0.203068
      9.75299      8.87278      3.52244        -0.002412      0.003547      2.299005
      9.75299      8.87278      6.07121         0.000347     -0.004193      1.684617
      1.27438      7.39399      4.79682        -2.054170      0.000384     -0.810829
     11.72960      7.39399      4.79682         2.054331      0.000389     -0.810784
      0.00000      8.87278      6.77344        -0.000530      0.004243     -1.296153
      0.00000      8.87278      9.32220        -0.000056     -0.003578     -0.167524
     11.02737      7.39399      8.04782         0.376274      0.000166      0.002744
      1.97661      7.39399      8.04782        -0.373209      0.000125      0.002586
      9.75299      8.87278     10.02443        -0.000613      0.002145     -0.031248
      9.75299      8.87278     12.57320         0.000822     -0.005826     -0.047707
      1.27438      7.39399     11.29882        -0.585095     -0.000110      0.045728
     11.72960      7.39399     11.29882         0.588029     -0.000014      0.045989
      0.00000      8.87321     13.29554        -0.000139      0.002218      0.085486
      0.00007      8.87275     15.85198         0.000161     -0.004309     -0.076306
     11.05635      7.39452     14.57057        -0.081479     -0.003280      0.002419
      1.94765      7.39459     14.57061         0.082023     -0.003927      0.002055
      9.75730      8.87471     16.54245        -0.006646     -0.001693      0.101992
      9.75079      8.87091     19.11692         0.000444      0.009403     -0.368728
      1.22343      7.39339     17.98417        -0.166135     -0.004918     -0.026215
     11.78081      7.39355     17.98384         0.170095     -0.005486     -0.023517
      9.75299      0.00000      3.52244        -0.002228      0.004125      2.300027
      9.75299      0.00000      6.07121         0.000383     -0.003846      1.684715
      1.27438     10.35158      4.79682        -2.054329      0.000383     -0.810542
     11.72960     10.35158      4.79682         2.054501      0.000392     -0.810618
      0.00000      0.00000      6.77344        -0.000528      0.004368     -1.296133
      0.00000      0.00000      9.32220        -0.000041     -0.003416     -0.167627
     11.02737     10.35158      8.04782         0.376379      0.000070      0.002736
      1.97661     10.35158      8.04782        -0.373329      0.000117      0.002689
      9.75299      0.00000     10.02443        -0.000758      0.003621     -0.032588
      9.75299      0.00000     12.57320         0.001452     -0.003649     -0.055370
      1.27438     10.35158     11.29882        -0.585957     -0.000404      0.044901
     11.72960     10.35158     11.29882         0.588888     -0.000500      0.045161
      0.00000      0.00000     13.29559        -0.000156      0.004508      0.085032
     13.00398      0.00000     15.85203         0.000404     -0.002971     -0.073386
     11.05626     10.35224     14.57155        -0.082010     -0.006433      0.005689
      1.94780     10.35213     14.57177         0.082469     -0.005317      0.004898
      9.75304      0.00000     16.54427        -0.003126      0.001590      0.111826
      9.75448      0.00002     19.11930         0.008618     -0.006019     -0.361828
      1.22345     10.35133     17.98293        -0.164113     -0.002875     -0.014697
     11.78075     10.35126     17.98311         0.168202     -0.002321     -0.016765
      9.75299      2.95759      3.52244        -0.002406      0.004699      2.299096
      9.75299      2.95759      6.07121         0.000357     -0.003493      1.684662
      1.27438      1.47880      4.79682        -2.054338      0.000695     -0.810645
     11.72960      1.47880      4.79682         2.054499      0.000700     -0.810731
      0.00000      2.95759      6.77344        -0.000546      0.004478     -1.296175
      0.00000      2.95759      9.32220        -0.000051     -0.003275     -0.167531
     11.02737      1.47880      8.04782         0.376422      0.000446      0.002705
      1.97661      1.47880      8.04782        -0.373294      0.000517      0.002681
      9.75299      2.95759     10.02443        -0.000620      0.005664     -0.031730
      9.75299      2.95759     12.57320         0.000674     -0.001056     -0.048351
      1.27438      1.47880     11.29882        -0.585665      0.000703      0.045006
     11.72960      1.47880     11.29882         0.589174      0.000612      0.045102
      0.00000      2.95717     13.29554        -0.000164      0.006836      0.085538
     13.00391      2.95762     15.85198         0.000595     -0.001599     -0.076317
     11.05619      1.47824     14.57177        -0.081753      0.006467      0.005604
      1.94773      1.47814     14.57155         0.082741      0.007446      0.005058
      9.75656      2.95608     16.54283        -0.005804      0.004532      0.105617
      9.75102      2.95943     19.11732         0.000407     -0.019506     -0.367219
      1.22324      1.47912     17.98311        -0.163808     -0.002017     -0.016090
     11.78054      1.47905     17.98294         0.168487     -0.001477     -0.015401
      9.75299      5.91519      3.52244        -0.002580      0.004098      2.298324
      9.75299      5.91519      6.07121         0.000339     -0.003852      1.684771
      1.27438      4.43639      4.79682        -2.054172      0.000694     -0.810773
     11.72960      4.43639      4.79682         2.054332      0.000690     -0.810890
      0.00000      5.91519      6.77344        -0.000532      0.004365     -1.296302
      0.00000      5.91519      9.32220        -0.000051     -0.003428     -0.167500
     11.02737      4.43639      8.04782         0.376296      0.000483      0.002788
      1.97661      4.43639      8.04782        -0.373185      0.000458      0.002645
      9.75299      5.91519     10.02443        -0.000218      0.004219     -0.031041
      9.75299      5.91519     12.57320        -0.000813     -0.003151     -0.047655
      1.27438      4.43639     11.29882        -0.584807      0.000217      0.045824
     11.72960      4.43639     11.29882         0.588313      0.000319      0.045906
      0.00000      5.91519     13.29543        -0.000147      0.004547      0.085671
      0.00000      5.91519     15.85157         0.000336     -0.002934     -0.084239
     11.05633      4.43579     14.57060        -0.081338      0.004990      0.002357
      1.94763      4.43586     14.57058         0.082175      0.004252      0.001921
      9.75961      5.91492     16.54147        -0.006101      0.001746      0.099538
      9.74213      5.91574     19.11440        -0.020196     -0.012595     -0.355870
      1.22318      4.43683     17.98385        -0.165882      0.001046     -0.022948
     11.78057      4.43699     17.98417         0.170356      0.000576     -0.026817
      3.25100      8.87278      3.52244        -0.000915      0.003522      2.299049
      3.25100      8.87278      6.07121         0.000623     -0.004206      1.684621
      7.77637      7.39399      4.79682        -2.054898      0.000090     -0.806058
      5.22761      7.39399      4.79682         2.054936      0.000110     -0.807210
      6.50199      8.87278      6.77344        -0.000516      0.003773     -1.297528
      6.50199      8.87278      9.32220        -0.000002     -0.004791     -0.170743
      4.52538      7.39399      8.04782         0.376323     -0.000007      0.002679
      8.47860      7.39399      8.04782        -0.373212      0.000046      0.002575
      3.25100      8.87278     10.02443        -0.001135      0.002174     -0.031715
      3.25100      8.87278     12.57320         0.000171     -0.005820     -0.048315
      7.77637      7.39399     11.29882        -0.583151     -0.007311      0.039529
      5.22761      7.39399     11.29882         0.586830     -0.007384      0.040474
      6.50201      8.86885     13.29629        -0.000229      0.018487      0.090284
      6.50159      8.87727     15.84876         0.002071     -0.005290     -0.117116
      4.55307      7.39392     14.57512        -0.079996      0.001233      0.001670
      8.45090      7.39401     14.57527         0.082471      0.000435      0.003969
      3.24744      8.87429     16.54284         0.002391     -0.001226      0.105407
      3.25297      8.87095     19.11733         0.002872      0.007790     -0.367212
      7.72909      7.40124     17.96512        -0.125481     -0.031770      0.007839
      5.27590      7.40069     17.96832         0.134981     -0.019063      0.019310
      3.25100      0.00000      3.52244        -0.001114      0.004107      2.299997
      3.25100      0.00000      6.07121         0.000590     -0.003846      1.684668
      7.77637     10.35158      4.79682        -2.054872      0.000215     -0.811138
      5.22761     10.35158      4.79682         2.055032      0.000214     -0.811371
      6.50199      0.00000      6.77344        -0.000584      0.004379     -1.298170
      6.50199      0.00000      9.32220        -0.000082     -0.003419     -0.174903
      4.52538     10.35158      8.04782         0.375866      0.000069      0.002552
      8.47860     10.35158      8.04782        -0.372736      0.000057      0.002473
      3.25100      0.00000     10.02443        -0.000995      0.004202     -0.032545
      3.25100      0.00000     12.57320        -0.000624     -0.003220     -0.055299
      7.77637     10.35158     11.29882        -0.583458     -0.003467      0.045898
      5.22761     10.35158     11.29882         0.587026     -0.003368      0.045974
      6.50199      0.00000     13.29334        -0.000126      0.004764      0.064627
      6.50199      0.00000     15.84814         0.000405     -0.002803     -0.114588
      4.55296     10.35169     14.57074        -0.074152      0.000615      0.002942
      8.45096     10.35164     14.57079         0.075264      0.001012      0.002520
      3.25094      0.00000     16.54427        -0.000298      0.001570      0.111746
      3.24950     11.83036     19.11930        -0.005296     -0.005736     -0.361863
      7.72568     10.35291     17.98208        -0.159184      0.002901     -0.011335
      5.27828     10.35309     17.98215         0.164073      0.002407     -0.012306
      3.25100      2.95759      3.52244        -0.000925      0.004706      2.299160
      3.25100      2.95759      6.07121         0.000622     -0.003492      1.684760
      7.77637      1.47880      4.79682        -2.054867      0.000870     -0.811013
      5.22761      1.47880      4.79682         2.055036      0.000867     -0.811265
      6.50199      2.95759      6.77344        -0.000544      0.005078     -1.297572
      6.50199      2.95759      9.32220        -0.000065     -0.001933     -0.170795
      4.52538      1.47880      8.04782         0.375869      0.000568      0.002552
      8.47860      1.47880      8.04782        -0.372746      0.000532      0.002468
      3.25100      2.95759     10.02443        -0.001134      0.005659     -0.031397
      3.25100      2.95759     12.57320         0.000031     -0.001071     -0.047829
      7.77637      1.47880     11.29882        -0.583778      0.003597      0.045704
      5.22761      1.47880     11.29882         0.586697      0.003670      0.046026
      6.50197      2.96153     13.29629        -0.000150     -0.009370      0.090215
      6.50237      2.95311     15.84876        -0.001321     -0.000325     -0.116911
      4.55302      1.47874     14.57079        -0.074488      0.000077      0.002979
      8.45102      1.47869     14.57074         0.074904      0.000508      0.002420
      3.24670      2.95567     16.54246         0.003232      0.004942      0.102138
      3.25320      2.95946     19.11693         0.002832     -0.020923     -0.368518
      7.72570      1.47729     17.98215        -0.159761     -0.007020     -0.011695
      5.27830      1.47747     17.98208         0.163666     -0.007325     -0.011927
      3.25100      5.91519      3.52244        -0.000744      0.004128      2.298039
      3.25100      5.91519      6.07121         0.000645     -0.003844      1.684694
      7.77637      4.43639      4.79682        -2.054839      0.000900     -0.806257
      5.22761      4.43639      4.79682         2.055051      0.000923     -0.806645
      6.50199      5.91519      6.77344        -0.000525      0.004363     -1.296362
      6.50199      5.91519      9.32220        -0.000036     -0.003442     -0.159936
      4.52538      4.43639      8.04782         0.376303      0.000595      0.002693
      8.47860      4.43639      8.04782        -0.373209      0.000630      0.002579
      3.25100      5.91519     10.02443        -0.001544      0.003613     -0.031125
      3.25100      5.91519     12.57320         0.001655     -0.003723     -0.047764
      7.77637      4.43639     11.29882        -0.583518      0.007673      0.039807
      5.22761      4.43639     11.29882         0.586440      0.007574      0.039798
      6.50199      5.91519     13.29981        -0.000220      0.004468      0.101336
      6.50199      5.91519     15.86380         0.000456     -0.002960     -0.051486
      4.55308      4.43637     14.57527        -0.081602      0.000601      0.004519
      8.45091      4.43645     14.57512         0.080826     -0.000100      0.001189
      3.24438      5.91546     16.54148         0.002882      0.001554      0.099620
      3.26188      5.91464     19.11442         0.021975      0.000821     -0.355872
      7.72812      4.42967     17.96827        -0.130288      0.017474      0.018250
      5.27493      4.42915     17.96517         0.131140      0.028050      0.009376
 -----------------------------------------------------------------------------------
    total drift:                                0.038003     -0.060846     -3.782208


--------------------------------------------------------------------------------------------------------



  FREE ENERGIE OF THE ION-ELECTRON SYSTEM (eV)
  ---------------------------------------------------
  free  energy   TOTEN  =     -3054.45726652 eV

  energy  without entropy=    -3054.45726652  energy(sigma->0) =    -3054.45726652
 


--------------------------------------------------------------------------------------------------------


    POTLOK:  cpu time     73.8590: real time     74.0573


--------------------------------------------------------------------------------------------------------


     LOOP+:  cpu time   1107.3431: real time   1109.9462
    4ORBIT:  cpu time      0.0000: real time      0.0000

 total amount of memory used by VASP MPI-rank0  5893688. kBytes
=======================================================================

   base      :      30000. kBytes
   nonlr-proj:      79390. kBytes
   fftplans  :     145087. kBytes
   grid      :     472946. kBytes
   one-center:       3810. kBytes
   wavefun   :    5162455. kBytes
 
  
  
 General timing and accounting informations for this job:
 ========================================================
  
                  Total CPU time used (sec):     1165.887
                            User time (sec):     1143.612
                          System time (sec):       22.275
                         Elapsed time (sec):     1169.475
  
                   Maximum memory used (kb):     9155904.
                   Average memory used (kb):          N/A
  
                          Minor page faults:       524276
                          Major page faults:            0
                 Voluntary context switches:        24431
