 vasp.6.3.0 20Jan22 (build Dec 25 2023 18:06:01) complex                         
 executed on        HPECrayEX_GCC date 2024.01.26  06:22:29
 running 1024 mpi-ranks, with    1 threads/rank
 distrk:  each k-point on 1024 cores,    1 groups
 distr:  one band on NCORE=   2 cores,  512 groups


--------------------------------------------------------------------------------------------------------


 INCAR:
   SYSTEM = TiO2
   ISMEAR = 0
   SIGMA = 0.05
   EDIFF = 1E-5
   ALGO = ALL
   ISTART = 0
   IBRION = -1
   NSW = 0
   ISYM = 0
   ISIF = 2
   EDIFFG = -0.01
   DIPOL = 0.5 0.5 0.5
   IDIPOL = 3
   LDIPOL = .TRUE.
   LHFCALC = .TRUE.
   HFSCREEN = 0.2
   GGA = PE
   IVDW = 13
   VDW_S8 = 1.19528249
   VDW_A1 = 0.38663183
   VDW_A2 = 5.19133469
   ENCUT = 520
   PREC = Normal
   PRECFOCK = Fast
   LASPH = .TRUE.
   LREAL = .FALSE.
   ISPIN = 1
   NKREDX = 3
   NKREDY = 3
   NELM = 200
   NELMIN = 8
   NCORE = 2
   KPAR = 1
   LWAVE = .FALSE.
   LCHARG = .FALSE.

 POTCAR:    PAW_PBE H 15Jun2001                   
 POTCAR:    PAW_PBE O 08Apr2002                   
 POTCAR:    PAW_PBE Ti 08Apr2002                  
 POTCAR:    PAW_PBE O 08Apr2002                   
 POTCAR:    PAW_PBE H 15Jun2001                   
   SHA256 =  030f79b5d3ab3cf0e668861823c8fb652ff669f3e15e46930bd03bfd63a607b6 H/POTCAR              
   COPYR  = (c) Copyright 15Jun2001 Georg Kresse                                                    
   COPYR  = This file is part of the software VASP. Any use, copying, and all other rights are regul
   COPYR  = If you do not have a valid VASP license, you may not use, copy or distribute this file. 
   VRHFIN =H: ultrasoft test                                                                        
   LEXCH  = PE                                                                                      
   EATOM  =    12.4884 eV,    0.9179 Ry                                                             
                                                                                                    
   TITEL  = PAW_PBE H 15Jun2001                                                                     
   LULTRA =        F    use ultrasoft PP ?                                                          
   IUNSCR =        0    unscreen: 0-lin 1-nonlin 2-no                                               
   RPACOR =    0.000    partial core radius                                                         
   POMASS =    1.000; ZVAL   =    1.000    mass and valenz                                          
   RCORE  =    1.100    outmost cutoff radius                                                       
   RWIGS  =    0.700; RWIGS  =    0.370    wigner-seitz radius (au A)                               
   ENMAX  =  250.000; ENMIN  =  200.000 eV                                                          
   RCLOC  =    0.701    cutoff for local pot                                                        
   LCOR   =        T    correct aug charges                                                         
   LPAW   =        T    paw PP                                                                      
   EAUG   =  400.000                                                                                
   RMAX   =    1.123    core radius for proj-oper                                                   
   RAUG   =    1.200    factor for augmentation sphere                                              
   RDEP   =    1.112    radius for radial grids                                                     
   RDEPT  =    0.926    core radius for aug-charge                                                  
                                                                                                    
   Atomic configuration                                                                             
    2 entries                                                                                       
     n  l   j            E        occ.                                                              
     1  0  0.50        -6.4927   1.0000                                                             
     2  1  0.50        -3.4015   0.0000                                                             
   Description                                                                                      
     l       E           TYP  RCUT    TYP  RCUT                                                     
     0     -6.4927494     23  1.100                                                                 
     0      6.8029130     23  1.100                                                                 
     1     -4.0817478     23  1.100                                                                 
  local pseudopotential read in
  atomic valenz-charges read in
  non local Contribution for L=           0  read in
    real space projection operators read in
  non local Contribution for L=           0  read in
    real space projection operators read in
  non local Contribution for L=           1  read in
    real space projection operators read in
    PAW grid and wavefunctions read in

   number of l-projection  operators is LMAX  =           3
   number of lm-projection operators is LMMAX =           5

 POTCAR:    PAW_PBE O 08Apr2002                   
   SHA256 =  818f92134a0a090dccd8ba1447fa70422a3b330e708bb4f08108d8ae51209ddf O/POTCAR              
   COPYR  = (c) Copyright 08Apr2002 Georg Kresse                                                    
   COPYR  = This file is part of the software VASP. Any use, copying, and all other rights are regul
   COPYR  = If you do not have a valid VASP license, you may not use, copy or distribute this file. 
   VRHFIN =O: s2p4                                                                                  
   LEXCH  = PE                                                                                      
   EATOM  =   432.3788 eV,   31.7789 Ry                                                             
                                                                                                    
   TITEL  = PAW_PBE O 08Apr2002                                                                     
   LULTRA =        F    use ultrasoft PP ?                                                          
   IUNSCR =        1    unscreen: 0-lin 1-nonlin 2-no                                               
   RPACOR =    1.200    partial core radius                                                         
   POMASS =   16.000; ZVAL   =    6.000    mass and valenz                                          
   RCORE  =    1.520    outmost cutoff radius                                                       
   RWIGS  =    1.550; RWIGS  =    0.820    wigner-seitz radius (au A)                               
   ENMAX  =  400.000; ENMIN  =  300.000 eV                                                          
   ICORE  =        2    local potential                                                             
   LCOR   =        T    correct aug charges                                                         
   LPAW   =        T    paw PP                                                                      
   EAUG   =  605.392                                                                                
   DEXC   =    0.000                                                                                
   RMAX   =    1.553    core radius for proj-oper                                                   
   RAUG   =    1.300    factor for augmentation sphere                                              
   RDEP   =    1.550    radius for radial grids                                                     
   RDEPT  =    1.329    core radius for aug-charge                                                  
                                                                                                    
   Atomic configuration                                                                             
    4 entries                                                                                       
     n  l   j            E        occ.                                                              
     1  0  0.50      -514.6923   2.0000                                                             
     2  0  0.50       -23.9615   2.0000                                                             
     2  1  0.50        -9.0305   4.0000                                                             
     3  2  1.50        -9.5241   0.0000                                                             
   Description                                                                                      
     l       E           TYP  RCUT    TYP  RCUT                                                     
     0    -23.9615318     23  1.200                                                                 
     0     -9.5240782     23  1.200                                                                 
     1     -9.0304911     23  1.520                                                                 
     1      8.1634956     23  1.520                                                                 
     2     -9.5240782      7  1.500                                                                 
  local pseudopotential read in
  partial core-charges read in
  partial kinetic energy density read in
  kinetic energy density of atom read in
  atomic valenz-charges read in
  non local Contribution for L=           0  read in
    real space projection operators read in
  non local Contribution for L=           0  read in
    real space projection operators read in
  non local Contribution for L=           1  read in
    real space projection operators read in
  non local Contribution for L=           1  read in
    real space projection operators read in
    PAW grid and wavefunctions read in

   number of l-projection  operators is LMAX  =           4
   number of lm-projection operators is LMMAX =           8

 POTCAR:    PAW_PBE Ti 08Apr2002                  
   SHA256 =  f8e8f1d080d9e9b45e792f1068744b07aba8441d1e7ce11486a5d4c0f5a1479e Ti/POTCAR             
   COPYR  = (c) Copyright 08Apr2002 Georg Kresse                                                    
   COPYR  = This file is part of the software VASP. Any use, copying, and all other rights are regul
   COPYR  = If you do not have a valid VASP license, you may not use, copy or distribute this file. 
   VRHFIN =Ti: d3 s1                                                                                
   LEXCH  = PE                                                                                      
   EATOM  =    94.7928 eV,    6.9671 Ry                                                             
                                                                                                    
   TITEL  = PAW_PBE Ti 08Apr2002                                                                    
   LULTRA =        F    use ultrasoft PP ?                                                          
   IUNSCR =        1    unscreen: 0-lin 1-nonlin 2-no                                               
   RPACOR =    2.200    partial core radius                                                         
   POMASS =   47.880; ZVAL   =    4.000    mass and valenz                                          
   RCORE  =    2.800    outmost cutoff radius                                                       
   RWIGS  =    2.500; RWIGS  =    1.323    wigner-seitz radius (au A)                               
   ENMAX  =  178.330; ENMIN  =  133.747 eV                                                          
   RCLOC  =    2.215    cutoff for local pot                                                        
   LCOR   =        T    correct aug charges                                                         
   LPAW   =        T    paw PP                                                                      
   EAUG   =  328.883                                                                                
   DEXC   =    0.000                                                                                
   RMAX   =    2.868    core radius for proj-oper                                                   
   RAUG   =    1.300    factor for augmentation sphere                                              
   RDEP   =    2.885    radius for radial grids                                                     
   RDEPT  =    2.320    core radius for aug-charge                                                  
                                                                                                    
   Atomic configuration                                                                             
    9 entries                                                                                       
     n  l   j            E        occ.                                                              
     1  0  0.50     -4865.3608   2.0000                                                             
     2  0  0.50      -533.1367   2.0000                                                             
     2  1  1.50      -440.5031   6.0000                                                             
     3  0  0.50       -59.3186   2.0000                                                             
     3  1  1.50       -35.7012   6.0000                                                             
     3  2  2.50        -1.9157   3.0000                                                             
     4  0  0.50        -3.7291   1.0000                                                             
     4  1  1.50        -4.0817   0.0000                                                             
     4  3  2.50        -1.3606   0.0000                                                             
   Description                                                                                      
     l       E           TYP  RCUT    TYP  RCUT                                                     
     2     -1.9156924     23  2.800                                                                 
     2     -0.4062961     23  2.800                                                                 
     0     -3.7290832     23  2.800                                                                 
     0     20.4087390     23  2.800                                                                 
     1     -5.4423304     23  2.800                                                                 
  local pseudopotential read in
  partial core-charges read in
  partial kinetic energy density read in
  atomic valenz-charges read in
  non local Contribution for L=           2  read in
    real space projection operators read in
  non local Contribution for L=           2  read in
    real space projection operators read in
  non local Contribution for L=           0  read in
    real space projection operators read in
  non local Contribution for L=           0  read in
    real space projection operators read in
  non local Contribution for L=           1  read in
    real space projection operators read in
    PAW grid and wavefunctions read in

   number of l-projection  operators is LMAX  =           5
   number of lm-projection operators is LMMAX =          15

 POTCAR:    PAW_PBE O 08Apr2002                   
   SHA256 =  818f92134a0a090dccd8ba1447fa70422a3b330e708bb4f08108d8ae51209ddf O/POTCAR              
   COPYR  = (c) Copyright 08Apr2002 Georg Kresse                                                    
   COPYR  = This file is part of the software VASP. Any use, copying, and all other rights are regul
   COPYR  = If you do not have a valid VASP license, you may not use, copy or distribute this file. 
   VRHFIN =O: s2p4                                                                                  
   LEXCH  = PE                                                                                      
   EATOM  =   432.3788 eV,   31.7789 Ry                                                             
                                                                                                    
   TITEL  = PAW_PBE O 08Apr2002                                                                     
   LULTRA =        F    use ultrasoft PP ?                                                          
   IUNSCR =        1    unscreen: 0-lin 1-nonlin 2-no                                               
   RPACOR =    1.200    partial core radius                                                         
   POMASS =   16.000; ZVAL   =    6.000    mass and valenz                                          
   RCORE  =    1.520    outmost cutoff radius                                                       
   RWIGS  =    1.550; RWIGS  =    0.820    wigner-seitz radius (au A)                               
   ENMAX  =  400.000; ENMIN  =  300.000 eV                                                          
   ICORE  =        2    local potential                                                             
   LCOR   =        T    correct aug charges                                                         
   LPAW   =        T    paw PP                                                                      
   EAUG   =  605.392                                                                                
   DEXC   =    0.000                                                                                
   RMAX   =    1.553    core radius for proj-oper                                                   
   RAUG   =    1.300    factor for augmentation sphere                                              
   RDEP   =    1.550    radius for radial grids                                                     
   RDEPT  =    1.329    core radius for aug-charge                                                  
                                                                                                    
   Atomic configuration                                                                             
    4 entries                                                                                       
     n  l   j            E        occ.                                                              
     1  0  0.50      -514.6923   2.0000                                                             
     2  0  0.50       -23.9615   2.0000                                                             
     2  1  0.50        -9.0305   4.0000                                                             
     3  2  1.50        -9.5241   0.0000                                                             
   Description                                                                                      
     l       E           TYP  RCUT    TYP  RCUT                                                     
     0    -23.9615318     23  1.200                                                                 
     0     -9.5240782     23  1.200                                                                 
     1     -9.0304911     23  1.520                                                                 
     1      8.1634956     23  1.520                                                                 
     2     -9.5240782      7  1.500                                                                 
  local pseudopotential read in
  partial core-charges read in
  partial kinetic energy density read in
  kinetic energy density of atom read in
  atomic valenz-charges read in
  non local Contribution for L=           0  read in
    real space projection operators read in
  non local Contribution for L=           0  read in
    real space projection operators read in
  non local Contribution for L=           1  read in
    real space projection operators read in
  non local Contribution for L=           1  read in
    real space projection operators read in
    PAW grid and wavefunctions read in

   number of l-projection  operators is LMAX  =           4
   number of lm-projection operators is LMMAX =           8

 -----------------------------------------------------------------------------
|                                                                             |
|               ----> ADVICE to this user running VASP <----                  |
|                                                                             |
|     You have a (more or less) 'large supercell' and for larger cells it     |
|     might be more efficient to use real-space projection operators.         |
|     Therefore, try LREAL= Auto in the INCAR file.                           |
|     Mind: For very accurate calculation, you might also keep the            |
|     reciprocal projection scheme (i.e. LREAL=.FALSE.).                      |
|                                                                             |
 -----------------------------------------------------------------------------

  PAW_PBE H 15Jun2001                   :
 energy of atom  1       EATOM=  -12.4884
 kinetic energy error for atom=    0.0014 (will be added to EATOM!!)
  PAW_PBE O 08Apr2002                   :
 energy of atom  2       EATOM= -432.3788
 kinetic energy error for atom=    0.0208 (will be added to EATOM!!)
  PAW_PBE Ti 08Apr2002                  :
 energy of atom  3       EATOM=  -94.7928
 kinetic energy error for atom=    0.0002 (will be added to EATOM!!)
  PAW_PBE O 08Apr2002                   :
 energy of atom  4       EATOM= -432.3788
 kinetic energy error for atom=    0.0208 (will be added to EATOM!!)


 POSCAR:  H  O Ti  O
  positions in direct lattice
  No initial velocities read in
 -----------------------------------------------------------------------------
|                                                                             |
|           W    W    AA    RRRRR   N    N  II  N    N   GGGG   !!!           |
|           W    W   A  A   R    R  NN   N  II  NN   N  G    G  !!!           |
|           W    W  A    A  R    R  N N  N  II  N N  N  G       !!!           |
|           W WW W  AAAAAA  RRRRR   N  N N  II  N  N N  G  GGG   !            |
|           WW  WW  A    A  R   R   N   NN  II  N   NN  G    G                |
|           W    W  A    A  R    R  N    N  II  N    N   GGGG   !!!           |
|                                                                             |
|     Specifying the vdW parameters                                           |
|     VDW_S8 = 1.195                                                          |
|     VDW_A1 = 0.387                                                          |
|     VDW_A2 = 5.191                                                          |
|     in the INCAR file will overwrite the defaults for hse06. Please         |
|     make sure that is what you intended.                                    |
|                                                                             |
 -----------------------------------------------------------------------------

 exchange correlation table for  LEXCH =        8
   RHO(1)=    0.500       N(1)  =     2000
   RHO(2)=  100.500       N(2)  =     4000



--------------------------------------------------------------------------------------------------------


 ion  position               nearest neighbor table
   1  0.694  0.433  0.772-   3 0.98
   2  0.689  0.569  0.774-   3 0.98
   3  0.632  0.499  0.774-   2 0.98   1 0.98  51 2.30
   4  0.808  0.833  0.295-  88 1.94  54 1.94  56 1.94  53 1.99  55 1.99  21 3.05   7 3.05   5 3.05

   5  0.592  0.667  0.327-  52 1.94 119 1.94  55 1.94  57 1.94  56 1.99  58 1.99  36 3.05   6 3.05
                             4 3.05  10 3.08
   6  0.308  0.667  0.295- 124 1.94  58 1.94  60 1.94  52 1.99  59 1.99  39 3.05   5 3.05   7 3.05

   7  0.092  0.833  0.327-  53 1.94  91 1.94  59 1.94  61 1.94  60 1.99  54 1.99  22 3.05   4 3.05
                             6 3.05   8 3.08
   8  0.945  0.834  0.423-  62 1.92  96 1.93  64 1.94  54 1.98  63 1.98  61 2.00  11 2.99   9 3.04
                            25 3.05   7 3.08
   9  0.727  0.666  0.451-  57 1.89 127 1.93  63 1.94  65 1.96  66 1.99  64 2.00  10 3.01   8 3.04
                            40 3.05  14 3.10
  10  0.444  0.667  0.422-  66 1.93 132 1.93  68 1.93  58 1.97  67 1.99  57 2.00   9 3.01  11 3.05
                            43 3.05   5 3.08
  11  0.226  0.833  0.452-  61 1.90  99 1.94  67 1.94  62 1.97  69 1.97  68 2.01   8 2.99  26 3.05
                            10 3.05  12 3.11
  12  0.086  0.834  0.550-  70 1.92 104 1.93  72 1.94  71 1.97  69 2.01  62 2.01  15 2.95  13 3.04
                            29 3.05  11 3.11
  13  0.865  0.666  0.575-  65 1.86 135 1.93  71 1.94  74 1.95  72 2.01  73 2.01  14 2.98  12 3.04
                            44 3.05  18 3.17
  14  0.584  0.667  0.549- 140 1.93  74 1.93  76 1.93  66 1.97  75 1.98  65 2.02  13 2.98  15 3.05
                            47 3.06   9 3.10
  15  0.364  0.834  0.577-  69 1.86 107 1.94  75 1.94  70 1.95  77 2.00  76 2.02  12 2.95  30 3.05
                            14 3.05
  16  0.231  0.833  0.681-  78 1.86  80 1.93 112 1.94  79 2.00  77 2.10  70 2.10  19 2.85  33 3.07
                            17 3.09
  17  0.000  0.666  0.700-  73 1.78  81 1.84 143 1.97  79 1.98  80 2.07  18 2.86  16 3.09  48 3.10

  18  0.729  0.666  0.677-  81 1.89 147 1.92  83 1.94  82 1.99  74 2.03  73 2.10  17 2.86  19 3.08
                            51 3.08  13 3.17
  19  0.503  0.834  0.700-  77 1.78  78 1.84  82 1.97 114 1.97  83 2.06  16 2.85  34 3.07  18 3.08

  20  0.808  0.167  0.295-  88 1.94  86 1.94 120 1.94  85 1.99  87 1.99  21 3.05  23 3.05  37 3.05

  21  0.592  0.000  0.327-  84 1.94  55 1.94  87 1.94  89 1.94  88 1.99  90 1.99   4 3.05  20 3.05
                            22 3.05  26 3.08
  22  0.308  0.000  0.295-  60 1.94  92 1.94  90 1.94  91 1.99  84 1.99  23 3.05   7 3.05  21 3.05

  23  0.092  0.167  0.327-  85 1.94  91 1.94 123 1.94  93 1.94  92 1.99  86 1.99  22 3.05  20 3.05
                            38 3.05  24 3.08
  24  0.945  0.167  0.423-  94 1.92  96 1.93 128 1.94  86 1.98  95 1.98  93 2.00  27 2.99  41 3.04
                            25 3.05  23 3.08
  25  0.726  0.000  0.451-  89 1.89  95 1.94  63 1.94  97 1.97  98 1.98  96 2.00  26 3.00  24 3.05
                             8 3.05  30 3.11
  26  0.444  0.000  0.423-  98 1.92  68 1.93 100 1.93  90 1.98  99 1.99  89 2.00  25 3.00  27 3.05
                            11 3.05  21 3.08
  27  0.226  0.167  0.452-  93 1.90  99 1.94 131 1.94  94 1.97 101 1.97 100 2.01  24 2.99  26 3.05
                            42 3.05  28 3.11
  28  0.086  0.167  0.550- 102 1.92 104 1.93 136 1.94 103 1.97 101 2.01  94 2.01  31 2.95  45 3.04
                            29 3.05  27 3.11
  29  0.864  0.000  0.576-  97 1.86 103 1.94  71 1.94 106 1.94 105 2.01 104 2.03  30 2.96  12 3.05
                            28 3.05
  30  0.585  0.000  0.550- 106 1.92  76 1.93 108 1.93 107 1.98  98 2.00  97 2.01  29 2.96  15 3.05
                            31 3.05  25 3.11
  31  0.364  0.167  0.577- 101 1.86 107 1.94 139 1.94 102 1.95 109 2.00 108 2.02  28 2.95  30 3.05
                            46 3.05
  32  0.231  0.168  0.681- 110 1.86 144 1.93 112 1.94 111 2.00 109 2.10 102 2.10  35 2.85  33 3.07
                            49 3.09
  33  0.003  0.000  0.700- 105 1.78 113 1.83 111 1.98  79 1.98 112 2.05  34 2.84  32 3.07  16 3.07

  34  0.732  0.000  0.680- 113 1.86  83 1.93 115 1.93 114 2.00 105 2.09 106 2.09  33 2.84  35 3.07
                            19 3.07
  35  0.503  0.166  0.700- 109 1.78 110 1.84 146 1.97 114 1.97 115 2.06  32 2.85  34 3.07  50 3.08

  36  0.808  0.500  0.295-  56 1.94 120 1.94 118 1.94 119 1.99 117 1.99   5 3.05  37 3.05  39 3.05

  37  0.592  0.333  0.327- 116 1.94 119 1.94  87 1.94 121 1.94 120 1.99 122 1.99  36 3.05  38 3.05
                            20 3.05  42 3.08
  38  0.308  0.333  0.295- 124 1.94 122 1.94  92 1.94 123 1.99 116 1.99  39 3.05  37 3.05  23 3.05

  39  0.092  0.500  0.327- 117 1.94  59 1.94 123 1.94 125 1.94 124 1.99 118 1.99  38 3.05   6 3.05
                            36 3.05  40 3.07
  40  0.946  0.500  0.422- 126 1.93  64 1.93 128 1.94 118 1.97 125 1.98 127 2.00  43 2.99  41 3.05
                             9 3.05  39 3.07
  41  0.727  0.334  0.451- 121 1.89 127 1.93  95 1.94 129 1.96 130 1.99 128 2.00  42 3.01  24 3.04
                            40 3.05  46 3.10
  42  0.444  0.334  0.422- 130 1.93 132 1.93 100 1.93 122 1.97 131 1.99 121 2.01  41 3.01  27 3.05
                            43 3.05  37 3.08
  43  0.226  0.500  0.453- 125 1.92 131 1.94  67 1.94 126 1.96 133 1.97 132 2.01  40 2.99  42 3.05
                            10 3.05  44 3.07
  44  0.089  0.500  0.551- 134 1.92  72 1.93 136 1.93 133 1.98 135 2.00 126 2.01  47 2.96  45 3.05
                            13 3.05  43 3.07
  45  0.865  0.334  0.575- 129 1.86 135 1.93 103 1.94 138 1.95 136 2.01 137 2.01  46 2.98  28 3.04
                            44 3.05  50 3.16
  46  0.584  0.334  0.549- 140 1.93 138 1.93 108 1.93 130 1.97 139 1.98 129 2.02  45 2.98  31 3.05
                            47 3.06  41 3.10
  47  0.366  0.500  0.580- 133 1.92  75 1.94 139 1.94 134 1.94 141 2.00 140 2.03  44 2.96  46 3.06
                            14 3.06  48 3.14
  48  0.234  0.500  0.681- 142 1.86 144 1.93  80 1.93 143 2.03 141 2.05 134 2.10  51 2.87  17 3.10
                            49 3.10  47 3.14
  49  1.000  0.335  0.700- 137 1.78 145 1.84 143 1.97 111 1.98 144 2.07  50 2.86  32 3.09  48 3.10

  50  0.729  0.335  0.677- 145 1.90 147 1.92 115 1.94 146 1.99 138 2.03 137 2.10  49 2.86  35 3.08
                            51 3.08  45 3.16
  51  0.505  0.500  0.706- 142 1.82 141 1.86 146 1.98  82 1.98 147 2.11   3 2.30  48 2.87  50 3.08
                            18 3.08
  52  0.488  0.667  0.269-   5 1.94   6 1.99
  53  0.988  0.833  0.269-   7 1.94   4 1.99
  54  0.911  0.833  0.353-   4 1.94   8 1.98   7 1.99
  55  0.627  0.833  0.321-  21 1.94   5 1.94   4 1.99
  56  0.772  0.667  0.300-  36 1.94   4 1.94   5 1.99
  57  0.624  0.667  0.395-   9 1.89   5 1.94  10 2.00
  58  0.411  0.667  0.353-   6 1.94  10 1.97   5 1.99
  59  0.127  0.667  0.321-  39 1.94   7 1.94   6 1.99
  60  0.272  0.833  0.300-  22 1.94   6 1.94   7 1.99
  61  0.124  0.833  0.395-  11 1.90   7 1.94   8 2.00
  62  0.049  0.834  0.480-   8 1.92  11 1.97  12 2.01
  63  0.764  0.833  0.447-  25 1.94   9 1.94   8 1.98
  64  0.910  0.667  0.427-  40 1.93   8 1.94   9 2.00
  65  0.764  0.666  0.520-  13 1.86   9 1.96  14 2.02
  66  0.549  0.666  0.480-  10 1.93  14 1.97   9 1.99
  67  0.264  0.667  0.448-  43 1.94  11 1.94  10 1.99
  68  0.409  0.833  0.427-  10 1.93  26 1.93  11 2.01
  69  0.264  0.833  0.521-  15 1.86  11 1.97  12 2.01
  70  0.193  0.833  0.607-  12 1.92  15 1.95  16 2.10
  71  0.904  0.834  0.573-  29 1.94  13 1.94  12 1.97
  72  0.052  0.667  0.553-  44 1.93  12 1.94  13 2.01
  73  0.914  0.668  0.645-  17 1.78  13 2.01  18 2.10
  74  0.694  0.669  0.605-  14 1.93  13 1.95  18 2.03
  75  0.405  0.667  0.575-  47 1.94  15 1.94  14 1.98
  76  0.549  0.834  0.553-  30 1.93  14 1.93  15 2.02
  77  0.412  0.835  0.646-  19 1.78  15 2.00  16 2.10
  78  0.347  0.833  0.732-  19 1.84  16 1.86
  79  0.052  0.833  0.709-  33 1.98  17 1.98  16 2.00
  80  0.195  0.666  0.681-  16 1.93  48 1.93  17 2.07
  81  0.841  0.661  0.731-  17 1.84  18 1.89
  82  0.554  0.668  0.708-  19 1.97  51 1.98  18 1.99
  83  0.695  0.834  0.679-  34 1.93  18 1.94  19 2.06
  84  0.488  0.000  0.269-  21 1.94  22 1.99
  85  0.988  0.167  0.269-  23 1.94  20 1.99
  86  0.911  0.167  0.353-  20 1.94  24 1.98  23 1.99
  87  0.627  0.167  0.321-  21 1.94  37 1.94  20 1.99
  88  0.772  0.000  0.300-   4 1.94  20 1.94  21 1.99
  89  0.624  0.000  0.395-  25 1.89  21 1.94  26 2.00
  90  0.411  0.000  0.353-  22 1.94  26 1.98  21 1.99
  91  0.127  0.000  0.321-   7 1.94  23 1.94  22 1.99
  92  0.272  0.167  0.300-  22 1.94  38 1.94  23 1.99
  93  0.124  0.167  0.395-  27 1.90  23 1.94  24 2.00
  94  0.049  0.167  0.480-  24 1.92  27 1.97  28 2.01
  95  0.764  0.167  0.447-  25 1.94  41 1.94  24 1.98
  96  0.909  0.000  0.427-   8 1.93  24 1.93  25 2.00
  97  0.764  0.000  0.520-  29 1.86  25 1.97  30 2.01
  98  0.549  0.000  0.480-  26 1.92  25 1.98  30 2.00
  99  0.264  0.000  0.448-  27 1.94  11 1.94  26 1.99
 100  0.409  0.167  0.427-  42 1.93  26 1.93  27 2.01
 101  0.264  0.167  0.521-  31 1.86  27 1.97  28 2.01
 102  0.193  0.167  0.607-  28 1.92  31 1.95  32 2.10
 103  0.904  0.167  0.573-  29 1.94  45 1.94  28 1.97
 104  0.051  0.000  0.553-  12 1.93  28 1.93  29 2.03
 105  0.913  0.000  0.646-  33 1.78  29 2.01  34 2.09
 106  0.693  0.000  0.606-  30 1.92  29 1.94  34 2.09
 107  0.404  0.000  0.574-  15 1.94  31 1.94  30 1.98
 108  0.549  0.167  0.553-  30 1.93  46 1.93  31 2.02
 109  0.412  0.165  0.646-  35 1.78  31 2.00  32 2.10
 110  0.347  0.167  0.732-  35 1.84  32 1.86
 111  0.052  0.168  0.709-  33 1.98  49 1.98  32 2.00
 112  0.195  0.000  0.681-  32 1.94  16 1.94  33 2.05
 113  0.846  0.000  0.731-  33 1.83  34 1.86
 114  0.554  0.000  0.709-  35 1.97  19 1.97  34 2.00
 115  0.695  0.166  0.679-  34 1.93  50 1.94  35 2.06
 116  0.488  0.333  0.269-  37 1.94  38 1.99
 117  0.988  0.500  0.269-  39 1.94  36 1.99
 118  0.911  0.500  0.353-  36 1.94  40 1.97  39 1.99
 119  0.627  0.500  0.321-   5 1.94  37 1.94  36 1.99
 120  0.772  0.333  0.300-  36 1.94  20 1.94  37 1.99
 121  0.624  0.333  0.395-  41 1.89  37 1.94  42 2.01
 122  0.411  0.333  0.353-  38 1.94  42 1.97  37 1.99
 123  0.127  0.333  0.321-  39 1.94  23 1.94  38 1.99
 124  0.272  0.500  0.300-   6 1.94  38 1.94  39 1.99
 125  0.124  0.500  0.395-  43 1.92  39 1.94  40 1.98
 126  0.050  0.500  0.480-  40 1.93  43 1.96  44 2.01
 127  0.764  0.500  0.447-  41 1.93   9 1.93  40 2.00
 128  0.910  0.334  0.427-  24 1.94  40 1.94  41 2.00
 129  0.764  0.334  0.520-  45 1.86  41 1.96  46 2.02
 130  0.549  0.334  0.480-  42 1.93  46 1.97  41 1.99
 131  0.264  0.334  0.448-  43 1.94  27 1.94  42 1.99
 132  0.409  0.500  0.427-  42 1.93  10 1.93  43 2.01
 133  0.266  0.500  0.522-  47 1.92  43 1.97  44 1.98
 134  0.193  0.500  0.608-  44 1.92  47 1.94  48 2.10
 135  0.904  0.500  0.573-  45 1.93  13 1.93  44 2.00
 136  0.051  0.334  0.553-  44 1.93  28 1.94  45 2.01
 137  0.914  0.332  0.645-  49 1.78  45 2.01  50 2.10
 138  0.694  0.331  0.605-  46 1.93  45 1.95  50 2.03
 139  0.405  0.334  0.575-  47 1.94  31 1.94  46 1.98
 140  0.551  0.500  0.554-  46 1.93  14 1.93  47 2.03
 141  0.413  0.500  0.649-  51 1.86  47 2.00  48 2.05
 142  0.345  0.500  0.734-  51 1.82  48 1.86
 143  0.051  0.500  0.708-  49 1.97  17 1.97  48 2.03
 144  0.195  0.334  0.681-  32 1.93  48 1.93  49 2.07
 145  0.841  0.340  0.731-  49 1.84  50 1.90
 146  0.554  0.332  0.708-  35 1.97  51 1.98  50 1.99
 147  0.693  0.500  0.675-  18 1.92  50 1.92  51 2.11


IMPORTANT INFORMATION: All symmetrisations will be switched off!
NOSYMM: (Re-)initialisation of all symmetry stuff for point group C_1.


----------------------------------------------------------------------------------------

                                     Primitive cell                                     

  volume of cell :    3260.9117

  direct lattice vectors                    reciprocal lattice vectors
    10.273755933  0.000000000  0.000000000     0.097335386 -0.000000000  0.000000000
     0.000000000 11.368810418  0.000000000     0.000000000  0.087959950  0.000000000
     0.000000000  0.000000000 27.918672987     0.000000000  0.000000000  0.035818321

  length of vectors
    10.273755933 11.368810418 27.918672987     0.097335386  0.087959950  0.035818321

  position of ions in fractional coordinates (direct lattice)
     0.693612794  0.433433530  0.772036409
     0.688955056  0.568548846  0.773574986
     0.632178937  0.499311081  0.774168451
     0.807806441  0.833333333  0.294980927
     0.591821331  0.666666667  0.326522323
     0.307806441  0.666666667  0.294980927
     0.091821331  0.833333333  0.326522323
     0.944936016  0.833592994  0.422634356
     0.726784234  0.666360659  0.451087171
     0.444154410  0.666536171  0.422460026
     0.225516893  0.833355411  0.451649642
     0.086220832  0.833836312  0.550363867
     0.865371152  0.666442150  0.575203786
     0.584363779  0.666746726  0.549169089
     0.364004667  0.833563571  0.576685314
     0.231093735  0.832846627  0.680708739
     0.000059469  0.665926621  0.700217443
     0.728768258  0.665842968  0.676858411
     0.503351564  0.834376072  0.700422841
     0.807806441  0.166666667  0.294980927
     0.591821331  0.000000000  0.326522323
     0.307806441  0.000000000  0.294980927
     0.091821331  0.166666667  0.326522323
     0.944907191  0.166634299  0.422632453
     0.725966435  0.000106272  0.451284245
     0.444341875  0.000062189  0.422616034
     0.225528101  0.166772302  0.451637500
     0.086194911  0.166618858  0.550349543
     0.863904270  0.000219324  0.575871299
     0.585037307  0.000165487  0.549799363
     0.363979419  0.166755547  0.576680584
     0.231074657  0.167677277  0.680701589
     0.002721156  0.000281701  0.700220171
     0.732048348  0.000177717  0.679576983
     0.503315483  0.165925900  0.700404163
     0.807806441  0.500000000  0.294980927
     0.591821331  0.333333333  0.326522323
     0.307806441  0.333333333  0.294980927
     0.091821331  0.500000000  0.326522323
     0.946425691  0.500128300  0.422422165
     0.726820674  0.333864562  0.451078499
     0.444131913  0.333600337  0.422451876
     0.225927638  0.500065169  0.452688633
     0.089169903  0.500263423  0.550561894
     0.865458880  0.334016850  0.575172136
     0.584295560  0.333579456  0.549135456
     0.366079439  0.500174889  0.579668511
     0.234455809  0.500227959  0.681181799
     0.999904124  0.334612317  0.700247354
     0.728611835  0.334550951  0.676714223
     0.505168272  0.500150423  0.706461589
     0.488198186  0.666666667  0.268637410
     0.988198186  0.833333333  0.268637410
     0.911429586  0.833333333  0.352865840
     0.627414697  0.833333333  0.321324444
     0.772213075  0.666666667  0.300178806
     0.624257743  0.666666667  0.394802993
     0.411429586  0.666666667  0.352865840
     0.127414697  0.666666667  0.321324444
     0.272213075  0.833333333  0.300178806
     0.124257743  0.833333333  0.394802993
     0.049450730  0.833616374  0.479729049
     0.763932530  0.833386078  0.447381160
     0.909517175  0.666668612  0.426645094
     0.764121834  0.666166738  0.519961755
     0.549005005  0.666212421  0.479636524
     0.263686303  0.666588486  0.447937513
     0.408545413  0.833283119  0.426594922
     0.264256539  0.833017011  0.520890448
     0.192672667  0.833229847  0.606846967
     0.904028900  0.833705728  0.572831354
     0.051509012  0.666656032  0.553058785
     0.913608099  0.668062565  0.645067029
     0.694014453  0.669477664  0.605322014
     0.404695942  0.666633848  0.574749608
     0.549140177  0.833516497  0.552618009
     0.412496999  0.834711341  0.646168685
     0.346527038  0.833139543  0.731964120
     0.051590948  0.832883985  0.708570149
     0.194710463  0.666449191  0.680980953
     0.841144099  0.661294028  0.730616417
     0.554343631  0.668433032  0.707963731
     0.694952374  0.833935924  0.678791280
     0.488198186  0.000000000  0.268637410
     0.988198186  0.166666667  0.268637410
     0.911429586  0.166666667  0.352865840
     0.627414697  0.166666667  0.321324444
     0.772213075  0.000000000  0.300178806
     0.624257743  0.000000000  0.394802993
     0.411429586  0.000000000  0.352865840
     0.127414697  0.000000000  0.321324444
     0.272213075  0.166666667  0.300178806
     0.124257743  0.166666667  0.394802993
     0.049444347  0.166692862  0.479723394
     0.763934546  0.166812090  0.447379005
     0.909187823  0.000094037  0.426595289
     0.763681578  0.000167257  0.520297409
     0.549076187  0.000105389  0.479548570
     0.263682736  0.000067908  0.447892203
     0.408542952  0.166843307  0.426588930
     0.264264827  0.167240010  0.520878776
     0.192648445  0.167245602  0.606834905
     0.904017003  0.166727208  0.572802520
     0.051406344  0.000199947  0.553201281
     0.913404396  0.000295284  0.645548569
     0.693139602  0.000213297  0.605921230
     0.403638473  0.000158709  0.573905228
     0.549094045  0.166811379  0.552597839
     0.412446394  0.165419743  0.646157994
     0.346532714  0.167419954  0.731951577
     0.051531979  0.167679226  0.708608548
     0.194677859  0.000275705  0.680715692
     0.845635050  0.000175850  0.731423235
     0.554207324  0.000159657  0.708989313
     0.695021224  0.166436513  0.678831194
     0.488198186  0.333333333  0.268637410
     0.988198186  0.500000000  0.268637410
     0.911429586  0.500000000  0.352865840
     0.627414697  0.500000000  0.321324444
     0.772213075  0.333333333  0.300178806
     0.624257743  0.333333333  0.394802993
     0.411429586  0.333333333  0.352865840
     0.127414697  0.333333333  0.321324444
     0.272213075  0.500000000  0.300178806
     0.124257743  0.500000000  0.394802993
     0.050123259  0.500165230  0.479964480
     0.764050717  0.500102538  0.447119844
     0.909506762  0.333525609  0.426647673
     0.764115505  0.334190005  0.519955845
     0.548986791  0.334022435  0.479635755
     0.263691932  0.333546967  0.447935930
     0.408625909  0.500062410  0.426610329
     0.265529602  0.500112423  0.521897802
     0.193219287  0.500253929  0.607629011
     0.904259273  0.500204384  0.573355459
     0.051497206  0.333778143  0.553053804
     0.913582572  0.332279867  0.645062445
     0.694023910  0.330889274  0.605301785
     0.404715624  0.333690153  0.574801670
     0.550703610  0.500155942  0.553848464
     0.413388064  0.500326819  0.648977142
     0.344765886  0.500180920  0.734193361
     0.051494479  0.500243052  0.708401869
     0.194611737  0.334045911  0.680945149
     0.840859944  0.339655616  0.730605518
     0.554163142  0.331947429  0.707692984
     0.692569110  0.500245698  0.675176649

  ion indices of the primitive-cell ions
   primitive index   ion index
                 1           1
                 2           2
                 3           3
                 4           4
                 5           5
                 6           6
                 7           7
                 8           8
                 9           9
                10          10
                11          11
                12          12
                13          13
                14          14
                15          15
                16          16
                17          17
                18          18
                19          19
                20          20
                21          21
                22          22
                23          23
                24          24
                25          25
                26          26
                27          27
                28          28
                29          29
                30          30
                31          31
                32          32
                33          33
                34          34
                35          35
                36          36
                37          37
                38          38
                39          39
                40          40
                41          41
                42          42
                43          43
                44          44
                45          45
                46          46
                47          47
                48          48
                49          49
                50          50
                51          51
                52          52
                53          53
                54          54
                55          55
                56          56
                57          57
                58          58
                59          59
                60          60
                61          61
                62          62
                63          63
                64          64
                65          65
                66          66
                67          67
                68          68
                69          69
                70          70
                71          71
                72          72
                73          73
                74          74
                75          75
                76          76
                77          77
                78          78
                79          79
                80          80
                81          81
                82          82
                83          83
                84          84
                85          85
                86          86
                87          87
                88          88
                89          89
                90          90
                91          91
                92          92
                93          93
                94          94
                95          95
                96          96
                97          97
                98          98
                99          99
               100         100
               101         101
               102         102
               103         103
               104         104
               105         105
               106         106
               107         107
               108         108
               109         109
               110         110
               111         111
               112         112
               113         113
               114         114
               115         115
               116         116
               117         117
               118         118
               119         119
               120         120
               121         121
               122         122
               123         123
               124         124
               125         125
               126         126
               127         127
               128         128
               129         129
               130         130
               131         131
               132         132
               133         133
               134         134
               135         135
               136         136
               137         137
               138         138
               139         139
               140         140
               141         141
               142         142
               143         143
               144         144
               145         145
               146         146
               147         147

----------------------------------------------------------------------------------------



 KPOINTS: pymatgen v2020.8.13 with grid density = 

Automatic generation of k-mesh.
 Grid dimensions read from file:
 generate k-points for:    3    3    1

 Generating k-lattice:

  Cartesian coordinates                     Fractional coordinates (reciprocal lattice)
     0.032445129 -0.000000000  0.000000000     0.333333333 -0.000000000  0.000000000
     0.000000000  0.029319983  0.000000000     0.000000000  0.333333333  0.000000000
     0.000000000  0.000000000  0.035818321     0.000000000  0.000000000  1.000000000

  Length of vectors
     0.032445129  0.029319983  0.035818321

  Shift w.r.t. Gamma in fractional coordinates (k-lattice)
     0.000000000  0.000000000  0.000000000

 
 Subroutine IBZKPT returns following result:
 ===========================================
 
 Found      5 irreducible k-points:
 
 Following reciprocal coordinates:
            Coordinates               Weight
  0.000000  0.000000  0.000000      1.000000
  0.333333  0.000000  0.000000      2.000000
  0.000000  0.333333  0.000000      2.000000
  0.333333  0.333333  0.000000      2.000000
  0.333333 -0.333333  0.000000      2.000000
 
 Following cartesian coordinates:
            Coordinates               Weight
  0.000000  0.000000  0.000000      1.000000
  0.032445  0.000000  0.000000      2.000000
  0.000000  0.029320  0.000000      2.000000
  0.032445  0.029320  0.000000      2.000000
  0.032445 -0.029320  0.000000      2.000000
 
 
 Subroutine IBZKPT_HF returns following result:
 ==============================================
 
 Found      9 k-points in 1st BZ
 the following      9 k-points will be used (e.g. in the exchange kernel)
 Following reciprocal coordinates:   # in IRBZ
  0.000000  0.000000  0.000000    0.11111111   1 t-inv F
  0.333333  0.000000  0.000000    0.11111111   2 t-inv F
  0.000000  0.333333  0.000000    0.11111111   3 t-inv F
  0.333333  0.333333  0.000000    0.11111111   4 t-inv F
  0.333333 -0.333333  0.000000    0.11111111   5 t-inv F
 -0.333333 -0.000000 -0.000000    0.11111111   2 t-inv T
 -0.000000 -0.333333 -0.000000    0.11111111   3 t-inv T
 -0.333333 -0.333333 -0.000000    0.11111111   4 t-inv T
 -0.333333  0.333333 -0.000000    0.11111111   5 t-inv T


--------------------------------------------------------------------------------------------------------




 Dimension of arrays:
   k-points           NKPTS =      5   k-points in BZ     NKDIM =      9   number of bands    NBANDS=    512
   number of dos      NEDOS =    301   number of ions     NIONS =    147
   non local maximal  LDIM  =      5   non local SUM 2l+1 LMDIM =     15
   total plane-waves  NPLWV = 614400
   max r-space proj   IRMAX =      1   max aug-charges    IRDMAX=  13211
   dimension x,y,z NGX =    60 NGY =   64 NGZ =  160
   dimension x,y,z NGXF=   120 NGYF=  128 NGZF=  320
   support grid    NGXF=   120 NGYF=  128 NGZF=  320
   ions per type =               2   1  48  96
   NGX,Y,Z   is equivalent  to a cutoff of   9.71,  9.36,  9.53 a.u.
   NGXF,Y,Z  is equivalent  to a cutoff of  19.42, 18.72, 19.05 a.u.

 SYSTEM =  TiO2                                    
 POSCAR =   H  O Ti  O                             

--------------------------------------------------------------------------------------------------------


  energy-cutoff  :      520.00
  volume of cell :     3260.91
      direct lattice vectors                 reciprocal lattice vectors
    10.273755933  0.000000000  0.000000000     0.097335386 -0.000000000  0.000000000
     0.000000000 11.368810418  0.000000000     0.000000000  0.087959950  0.000000000
     0.000000000  0.000000000 27.918672987     0.000000000  0.000000000  0.035818321

  length of vectors
    10.273755933 11.368810418 27.918672987     0.097335386  0.087959950  0.035818321



 k-points in units of 2pi/SCALE and weight: pymatgen v2020.8.13 with grid density = 
   0.00000000  0.00000000  0.00000000       0.111
   0.03244513  0.00000000  0.00000000       0.222
   0.00000000  0.02931998  0.00000000       0.222
   0.03244513  0.02931998  0.00000000       0.222
   0.03244513 -0.02931998  0.00000000       0.222

 k-points in reciprocal lattice and weights: pymatgen v2020.8.13 with grid density = 
   0.00000000  0.00000000  0.00000000       0.111
   0.33333333  0.00000000  0.00000000       0.222
   0.00000000  0.33333333  0.00000000       0.222
   0.33333333  0.33333333  0.00000000       0.222
   0.33333333 -0.33333333  0.00000000       0.222

 position of ions in fractional coordinates (direct lattice) 
   0.69361279  0.43343353  0.77203641
   0.68895506  0.56854885  0.77357499
   0.63217894  0.49931108  0.77416845
   0.80780644  0.83333333  0.29498093
   0.59182133  0.66666667  0.32652232
   0.30780644  0.66666667  0.29498093
   0.09182133  0.83333333  0.32652232
   0.94493602  0.83359299  0.42263436
   0.72678423  0.66636066  0.45108717
   0.44415441  0.66653617  0.42246003
   0.22551689  0.83335541  0.45164964
   0.08622083  0.83383631  0.55036387
   0.86537115  0.66644215  0.57520379
   0.58436378  0.66674673  0.54916909
   0.36400467  0.83356357  0.57668531
   0.23109374  0.83284663  0.68070874
   0.00005947  0.66592662  0.70021744
   0.72876826  0.66584297  0.67685841
   0.50335156  0.83437607  0.70042284
   0.80780644  0.16666667  0.29498093
   0.59182133  0.00000000  0.32652232
   0.30780644  0.00000000  0.29498093
   0.09182133  0.16666667  0.32652232
   0.94490719  0.16663430  0.42263245
   0.72596643  0.00010627  0.45128424
   0.44434187  0.00006219  0.42261603
   0.22552810  0.16677230  0.45163750
   0.08619491  0.16661886  0.55034954
   0.86390427  0.00021932  0.57587130
   0.58503731  0.00016549  0.54979936
   0.36397942  0.16675555  0.57668058
   0.23107466  0.16767728  0.68070159
   0.00272116  0.00028170  0.70022017
   0.73204835  0.00017772  0.67957698
   0.50331548  0.16592590  0.70040416
   0.80780644  0.50000000  0.29498093
   0.59182133  0.33333333  0.32652232
   0.30780644  0.33333333  0.29498093
   0.09182133  0.50000000  0.32652232
   0.94642569  0.50012830  0.42242216
   0.72682067  0.33386456  0.45107850
   0.44413191  0.33360034  0.42245188
   0.22592764  0.50006517  0.45268863
   0.08916990  0.50026342  0.55056189
   0.86545888  0.33401685  0.57517214
   0.58429556  0.33357946  0.54913546
   0.36607944  0.50017489  0.57966851
   0.23445581  0.50022796  0.68118180
   0.99990412  0.33461232  0.70024735
   0.72861183  0.33455095  0.67671422
   0.50516827  0.50015042  0.70646159
   0.48819819  0.66666667  0.26863741
   0.98819819  0.83333333  0.26863741
   0.91142959  0.83333333  0.35286584
   0.62741470  0.83333333  0.32132444
   0.77221308  0.66666667  0.30017881
   0.62425774  0.66666667  0.39480299
   0.41142959  0.66666667  0.35286584
   0.12741470  0.66666667  0.32132444
   0.27221308  0.83333333  0.30017881
   0.12425774  0.83333333  0.39480299
   0.04945073  0.83361637  0.47972905
   0.76393253  0.83338608  0.44738116
   0.90951718  0.66666861  0.42664509
   0.76412183  0.66616674  0.51996175
   0.54900501  0.66621242  0.47963652
   0.26368630  0.66658849  0.44793751
   0.40854541  0.83328312  0.42659492
   0.26425654  0.83301701  0.52089045
   0.19267267  0.83322985  0.60684697
   0.90402890  0.83370573  0.57283135
   0.05150901  0.66665603  0.55305878
   0.91360810  0.66806257  0.64506703
   0.69401445  0.66947766  0.60532201
   0.40469594  0.66663385  0.57474961
   0.54914018  0.83351650  0.55261801
   0.41249700  0.83471134  0.64616868
   0.34652704  0.83313954  0.73196412
   0.05159095  0.83288399  0.70857015
   0.19471046  0.66644919  0.68098095
   0.84114410  0.66129403  0.73061642
   0.55434363  0.66843303  0.70796373
   0.69495237  0.83393592  0.67879128
   0.48819819  0.00000000  0.26863741
   0.98819819  0.16666667  0.26863741
   0.91142959  0.16666667  0.35286584
   0.62741470  0.16666667  0.32132444
   0.77221308  0.00000000  0.30017881
   0.62425774  0.00000000  0.39480299
   0.41142959  0.00000000  0.35286584
   0.12741470  0.00000000  0.32132444
   0.27221308  0.16666667  0.30017881
   0.12425774  0.16666667  0.39480299
   0.04944435  0.16669286  0.47972339
   0.76393455  0.16681209  0.44737900
   0.90918782  0.00009404  0.42659529
   0.76368158  0.00016726  0.52029741
   0.54907619  0.00010539  0.47954857
   0.26368274  0.00006791  0.44789220
   0.40854295  0.16684331  0.42658893
   0.26426483  0.16724001  0.52087878
   0.19264844  0.16724560  0.60683490
   0.90401700  0.16672721  0.57280252
   0.05140634  0.00019995  0.55320128
   0.91340440  0.00029528  0.64554857
   0.69313960  0.00021330  0.60592123
   0.40363847  0.00015871  0.57390523
   0.54909405  0.16681138  0.55259784
   0.41244639  0.16541974  0.64615799
   0.34653271  0.16741995  0.73195158
   0.05153198  0.16767923  0.70860855
   0.19467786  0.00027570  0.68071569
   0.84563505  0.00017585  0.73142323
   0.55420732  0.00015966  0.70898931
   0.69502122  0.16643651  0.67883119
   0.48819819  0.33333333  0.26863741
   0.98819819  0.50000000  0.26863741
   0.91142959  0.50000000  0.35286584
   0.62741470  0.50000000  0.32132444
   0.77221308  0.33333333  0.30017881
   0.62425774  0.33333333  0.39480299
   0.41142959  0.33333333  0.35286584
   0.12741470  0.33333333  0.32132444
   0.27221308  0.50000000  0.30017881
   0.12425774  0.50000000  0.39480299
   0.05012326  0.50016523  0.47996448
   0.76405072  0.50010254  0.44711984
   0.90950676  0.33352561  0.42664767
   0.76411551  0.33419000  0.51995585
   0.54898679  0.33402243  0.47963576
   0.26369193  0.33354697  0.44793593
   0.40862591  0.50006241  0.42661033
   0.26552960  0.50011242  0.52189780
   0.19321929  0.50025393  0.60762901
   0.90425927  0.50020438  0.57335546
   0.05149721  0.33377814  0.55305380
   0.91358257  0.33227987  0.64506244
   0.69402391  0.33088927  0.60530179
   0.40471562  0.33369015  0.57480167
   0.55070361  0.50015594  0.55384846
   0.41338806  0.50032682  0.64897714
   0.34476589  0.50018092  0.73419336
   0.05149448  0.50024305  0.70840187
   0.19461174  0.33404591  0.68094515
   0.84085994  0.33965562  0.73060552
   0.55416314  0.33194743  0.70769298
   0.69256911  0.50024570  0.67517665

 position of ions in cartesian coordinates  (Angst):
   7.12600856  4.92762363 21.55423203
   7.07815610  6.46372405 21.59718707
   6.49485211  5.67657302 21.61375581
   8.29920622  9.47400868  8.23547604
   6.08022791  7.57920695  9.11606995
   3.16232825  7.57920695  8.23547604
   0.94334994  9.47400868  9.11606995
   9.70804200  9.47696071 11.79939037
   7.46680384  7.57572800 12.59375520
   4.56313400  7.57772336 11.79452333
   2.31690552  9.47425967 12.60945865
   0.88581178  9.47972695 15.36542882
   8.89061201  7.57665446 16.05892641
   6.00361084  7.58011713 15.33207221
   3.73969511  9.47662621 16.10028871
   2.37420064  9.46847541 19.00448467
   0.00061097  7.57079351 19.54914180
   7.48718721  7.56984247 18.89698862
   5.17131112  9.48586338 19.55487624
   8.29920622  1.89480174  8.23547604
   6.08022791  0.00000000  9.11606995
   3.16232825  0.00000000  8.23547604
   0.94334994  1.89480174  9.11606995
   9.70774585  1.89443376 11.79933724
   7.45840197  0.00120818 12.59925725
   4.56505997  0.00070701 11.79887886
   2.31702066  1.89600268 12.60911967
   0.88554547  1.89425821 15.36502892
   8.87554162  0.00249345 16.07756247
   6.01053050  0.00188139 15.34966862
   3.73943571  1.89581220 16.10015664
   2.37400463  1.90629117 19.00428507
   0.02795649  0.00320260 19.54921796
   7.52088606  0.00202043 18.97288757
   5.17094043  1.88638010 19.55435478
   8.29920622  5.68440521  8.23547604
   6.08022791  3.78960347  9.11606995
   3.16232825  3.78960347  8.23547604
   0.94334994  5.68440521  9.11606995
   9.72334656  5.68586383 11.79346628
   7.46717821  3.79564291 12.59351310
   4.56290287  3.79263898 11.79429578
   2.32112541  5.68514610 12.63846592
   0.91610982  5.68740002 15.37095748
   8.89151331  3.79737424 16.05804276
   6.00290997  3.79240159 15.33113321
   3.76101081  5.68639349 16.18357559
   2.40874176  5.68699684 19.01769188
  10.27277093  3.80414400 19.54997689
   7.48558016  3.80344634 18.89296310
   5.18997553  5.68611534 19.72347009
   5.01562901  7.57920695  7.50000000
  10.15250698  9.47400868  7.50000000
   9.36380511  9.47400868  9.85154599
   6.44590546  9.47400868  8.97095207
   7.93352867  7.57920695  8.38059392
   6.41347169  7.57920695 11.02237567
   4.22692715  7.57920695  9.85154599
   1.30902750  7.57920695  8.97095207
   2.79665070  9.47400868  8.38059392
   1.27659372  9.47400868 11.02237567
   0.50804473  9.47722652 13.39339845
   7.84845636  9.47460833 12.49028831
   9.34415747  7.57922906 11.91136487
   7.85040122  7.57352335 14.51664220
   5.64034343  7.57404272 13.39081528
   2.70904872  7.57831812 12.50582095
   4.19729586  9.47343780 11.90996413
   2.71490719  9.47041248 14.54257009
   1.97947196  9.47283216 16.94236202
   9.28777227  9.47824237 15.99269126
   0.52919102  7.57908604 15.44066735
   9.38618663  7.59507665 18.00941542
   7.13013510  7.61116464 16.89978735
   4.15774733  7.57883383 16.04624635
   5.64173216  9.47609104 15.42836148
   4.23789349  9.48967499 18.04017220
   3.56013421  9.47180552 20.43546691
   0.53003281  9.46890013 19.78233829
   2.00040777  7.57673451 19.01208455
   8.64170917  7.51812644 20.39784084
   5.69519117  7.59928842 19.76540788
   7.13977108  9.48085942 18.95095177
   5.01562901  0.00000000  7.50000000
  10.15250698  1.89480174  7.50000000
   9.36380511  1.89480174  9.85154599
   6.44590546  1.89480174  8.97095207
   7.93352867  0.00000000  8.38059392
   6.41347169  0.00000000 11.02237567
   4.22692715  0.00000000  9.85154599
   1.30902750  0.00000000  8.97095207
   2.79665070  1.89480174  8.38059392
   1.27659372  1.89480174 11.02237567
   0.50797915  1.89509954 13.39324057
   7.84847708  1.89645502 12.49022814
   9.34077379  0.00106908 11.90997437
   7.84587814  0.00190151 14.52601323
   5.64107473  0.00119815 13.38835971
   2.70901207  0.00077204 12.50455594
   4.19727058  1.89680993 11.90979684
   2.71499234  1.90131997 14.54224421
   1.97922310  1.90138354 16.94202526
   9.28765004  1.89549001 15.99188625
   0.52813623  0.00227316 15.44464566
   9.38409383  0.00335702 18.02285938
   7.12114710  0.00242493 16.91651667
   4.14688316  0.00180433 16.02267239
   5.64125821  1.89644694 15.42779835
   4.23737359  1.88062570 18.03987375
   3.56019253  1.90336572 20.43511672
   0.52942698  1.90631333 19.78341033
   2.00007281  0.00313443 19.00467881
   8.68784812  0.00199921 20.42036611
   5.69379078  0.00181512 19.79404078
   7.14047843  1.89218516 18.95206613
   5.01562901  3.78960347  7.50000000
  10.15250698  5.68440521  7.50000000
   9.36380511  5.68440521  9.85154599
   6.44590546  5.68440521  8.97095207
   7.93352867  3.78960347  8.38059392
   6.41347169  3.78960347 11.02237567
   4.22692715  3.78960347  9.85154599
   1.30902750  3.78960347  8.97095207
   2.79665070  5.68440521  8.38059392
   1.27659372  5.68440521 11.02237567
   0.51495413  5.68628368 13.39997136
   7.84967058  5.68557095 12.48299272
   9.34405050  3.79178942 11.91143686
   7.85033621  3.79934281 14.51647721
   5.64015630  3.79743774 13.39079380
   2.70910655  3.79203223 12.50577675
   4.19812286  5.68511474 11.91039426
   2.72798632  5.68568333 14.57069407
   1.98508780  5.68729208 16.96419565
   9.29013907  5.68672881 16.00732357
   0.52906972  3.79466043 15.44052830
   9.38592437  3.77762681 18.00928746
   7.13023226  3.76181742 16.89922261
   4.15794954  3.79366009 16.04769985
   5.65779448  5.68617809 15.46271414
   4.24704808  5.68812075 18.11858062
   3.54204057  5.68646205 20.49770437
   0.52904171  5.68716842 19.77764012
   1.99939348  3.79770463 19.01108495
   8.63878983  3.86148030 20.39753654
   5.69333686  3.77384739 19.75784900
   7.11528600  5.68719850 18.85003606



--------------------------------------------------------------------------------------------------------

--------------------------------------- Iteration      FINAL  ---------------------------------------


--------------------OUTCAR has been truncated-------------------------


--------------------OUTCAR has been truncated-------------------------


--------------------OUTCAR has been truncated-------------------------


--------------------OUTCAR has been truncated-------------------------


--------------------OUTCAR has been truncated-------------------------


--------------------OUTCAR has been truncated-------------------------


--------------------OUTCAR has been truncated-------------------------


--------------------OUTCAR has been truncated-------------------------


--------------------OUTCAR has been truncated-------------------------


--------------------OUTCAR has been truncated-------------------------


    FORVDW:  cpu time     23.2402: real time     23.3637

  FORCE on cell =-STRESS in cart. coord.  units (eV):
  Direction    XX          YY          ZZ          XY          YZ          ZX
  --------------------------------------------------------------------------------------
  Alpha Z  1542.14275  1542.14275  1542.14275
  Ewald  253441.33631251702.20466************    -2.95568     5.08402  -574.69610
  Hartree264717.89277264098.13060************    -1.06803     0.66546  -279.67282
  E(xc)   -2823.21215 -2817.70765 -2809.49675    -0.00285    -0.01416    -2.80174
  Local  ************************520762.30071     3.65054    -4.64320   870.68335
  n-local -1773.95879 -1751.27672 -1798.74254    -0.03248     0.04645    -4.27521
  augment   810.03666   805.42730   809.06732     0.02360    -0.06930    -0.87087
  Kinetic 13967.14791 14038.81130 14133.03004     0.40354    -1.18671   -10.30592
  Fock    -1302.20633 -1290.40164 -1288.73301     0.00206    -0.01247    -0.18761
  vdW       -26.68814   -28.30351   -23.50734     0.00003    -0.00205    -0.28816
  -------------------------------------------------------------------------------------
  Total    -106.25331   -56.90130   -48.88797     0.02073    -0.13196    -2.41508
  in kB     -52.20523   -27.95720   -24.02003     0.01018    -0.06483    -1.18660
  external pressure =      -34.73 kB  Pullay stress =        0.00 kB


 VOLUME and BASIS-vectors are now :
 -----------------------------------------------------------------------------
  energy-cutoff  :      520.00
  volume of cell :     3260.91
      direct lattice vectors                 reciprocal lattice vectors
    10.273755933  0.000000000  0.000000000     0.097335386 -0.000000000  0.000000000
     0.000000000 11.368810418  0.000000000     0.000000000  0.087959950  0.000000000
     0.000000000  0.000000000 27.918672987     0.000000000  0.000000000  0.035818321

  length of vectors
    10.273755933 11.368810418 27.918672987     0.097335386  0.087959950  0.035818321


 FORCES acting on ions:
    Electron-Ion                     Ewald-Force                    Non-Local-Force
 -----------------------------------------------------------------------------------------------
   -.499E+02 0.635E+02 -.258E+03   0.549E+02 -.697E+02 0.257E+03   -.505E+01 0.621E+01 0.434E+00
   -.463E+02 -.674E+02 -.260E+03   0.509E+02 0.739E+02 0.260E+03   -.468E+01 -.655E+01 0.835E-01
   0.466E+02 0.208E+01 -.156E+04   -.882E+02 -.381E+01 0.157E+04   0.368E+02 0.154E+01 -.920E+01
   0.102E+02 -.400E-01 0.992E+03   -.719E+01 0.428E-01 -.989E+03   0.872E+00 0.104E-02 -.191E+01
   -.153E+01 -.835E-01 0.805E+03   0.471E+00 0.863E-01 -.806E+03   -.686E+00 0.263E-03 -.865E+00
   0.102E+02 -.245E-03 0.992E+03   -.722E+01 -.651E-03 -.989E+03   0.861E+00 -.386E-04 -.191E+01
   -.205E+01 -.108E-01 0.805E+03   0.959E+00 0.723E-02 -.806E+03   -.696E+00 -.334E-03 -.868E+00
   -.615E+00 -.466E-01 0.369E+03   0.461E+00 0.298E-01 -.369E+03   0.123E+00 0.242E-02 0.233E-01
   0.335E+00 -.937E+00 0.236E+03   -.173E+00 0.956E+00 -.236E+03   -.438E-01 0.137E-01 -.131E+00
   0.229E+00 -.276E+00 0.370E+03   -.345E+00 0.284E+00 -.370E+03   0.111E+00 0.489E-02 0.406E-03
   -.197E+01 -.152E-01 0.233E+03   0.223E+01 0.112E-01 -.232E+03   -.335E-01 0.218E-02 -.123E+00
   -.297E+01 -.859E+00 -.225E+03   0.275E+01 0.820E+00 0.224E+03   0.219E+00 0.672E-02 0.138E+00
   -.549E+01 -.201E+01 -.335E+03   0.604E+01 0.208E+01 0.335E+03   -.107E+00 -.311E-01 -.193E+00
   0.276E+00 -.111E+01 -.214E+03   -.389E+00 0.111E+01 0.213E+03   0.168E+00 -.300E-02 0.819E-01
   -.258E+00 -.937E+00 -.346E+03   0.813E+00 0.925E+00 0.346E+03   -.125E+00 -.875E-02 -.213E+00
   0.889E+01 -.521E+01 -.804E+03   -.979E+01 0.525E+01 0.804E+03   0.614E+00 0.909E-02 -.427E-01
   -.360E+02 -.112E+02 -.922E+03   0.377E+02 0.111E+02 0.922E+03   0.567E-01 0.129E+00 0.716E+00
   -.607E+01 -.214E+02 -.768E+03   0.551E+01 0.215E+02 0.768E+03   0.505E+00 -.230E-01 0.604E-01
   -.219E+02 -.138E+02 -.922E+03   0.236E+02 0.138E+02 0.922E+03   0.859E-01 0.121E-01 0.741E+00
   0.102E+02 0.412E-01 0.992E+03   -.719E+01 -.440E-01 -.989E+03   0.872E+00 -.853E-03 -.191E+01
   -.158E+01 0.323E-02 0.805E+03   0.497E+00 -.371E-02 -.806E+03   -.691E+00 -.109E-04 -.869E+00
   0.102E+02 0.215E-02 0.992E+03   -.718E+01 -.240E-02 -.989E+03   0.869E+00 -.192E-04 -.191E+01
   -.205E+01 0.137E-01 0.805E+03   0.957E+00 -.115E-01 -.806E+03   -.696E+00 0.513E-03 -.869E+00
   -.643E+00 -.149E-02 0.369E+03   0.494E+00 0.104E-01 -.369E+03   0.124E+00 0.519E-03 0.231E-01
   -.918E+00 -.293E-02 0.235E+03   0.112E+01 0.704E-03 -.234E+03   -.210E-01 -.212E-03 -.131E+00
   0.300E+00 -.178E-01 0.369E+03   -.441E+00 0.163E-01 -.370E+03   0.115E+00 0.892E-03 0.910E-02
   -.195E+01 0.567E-01 0.233E+03   0.221E+01 -.518E-01 -.232E+03   -.338E-01 -.395E-02 -.123E+00
   -.303E+01 0.834E+00 -.225E+03   0.282E+01 -.802E+00 0.224E+03   0.220E+00 -.448E-02 0.138E+00
   -.453E+01 0.168E-01 -.343E+03   0.513E+01 -.168E-01 0.344E+03   -.981E-01 -.247E-03 -.191E+00
   -.109E+01 0.237E-02 -.221E+03   0.880E+00 -.310E-02 0.221E+03   0.203E+00 0.833E-04 0.148E+00
   -.227E+00 0.907E+00 -.345E+03   0.781E+00 -.896E+00 0.346E+03   -.126E+00 0.960E-02 -.214E+00
   0.899E+01 0.510E+01 -.804E+03   -.990E+01 -.513E+01 0.804E+03   0.612E+00 -.614E-02 -.423E-01
   -.295E+02 -.518E-01 -.926E+03   0.312E+02 0.511E-01 0.927E+03   0.482E-01 0.702E-03 0.702E+00
   0.262E+01 0.326E-01 -.800E+03   -.346E+01 -.303E-01 0.800E+03   0.562E+00 -.113E-02 -.563E-02
   -.220E+02 0.139E+02 -.922E+03   0.237E+02 -.139E+02 0.922E+03   0.873E-01 -.139E-01 0.744E+00
   0.102E+02 -.833E-03 0.992E+03   -.718E+01 0.119E-02 -.990E+03   0.875E+00 0.192E-03 -.191E+01
   -.154E+01 0.822E-01 0.805E+03   0.474E+00 -.853E-01 -.806E+03   -.686E+00 -.106E-03 -.865E+00
   0.102E+02 -.196E-02 0.992E+03   -.722E+01 0.329E-02 -.989E+03   0.860E+00 0.272E-03 -.191E+01
   -.222E+01 0.371E-03 0.805E+03   0.115E+01 -.738E-03 -.806E+03   -.695E+00 0.213E-03 -.839E+00
   -.369E+00 -.158E-01 0.369E+03   0.151E+00 0.123E-01 -.369E+03   0.119E+00 0.146E-02 0.460E-01
   0.404E+00 0.933E+00 0.236E+03   -.246E+00 -.952E+00 -.236E+03   -.449E-01 -.139E-01 -.130E+00
   0.198E+00 0.239E+00 0.370E+03   -.310E+00 -.250E+00 -.370E+03   0.111E+00 -.289E-02 -.108E-03
   -.255E+01 0.232E-01 0.228E+03   0.281E+01 -.221E-01 -.227E+03   -.422E-01 -.769E-03 -.397E-01
   -.181E+01 -.421E-02 -.225E+03   0.147E+01 -.102E-02 0.225E+03   0.180E+00 0.107E-02 0.154E+00
   -.543E+01 0.196E+01 -.334E+03   0.597E+01 -.203E+01 0.335E+03   -.107E+00 0.322E-01 -.190E+00
   0.285E+00 0.112E+01 -.213E+03   -.389E+00 -.112E+01 0.213E+03   0.165E+00 0.320E-02 0.795E-01
   0.161E+00 0.697E-01 -.356E+03   0.318E+00 -.690E-01 0.357E+03   -.113E+00 -.164E-02 -.780E-01
   0.143E+02 0.361E-02 -.802E+03   -.152E+02 -.119E-02 0.802E+03   0.486E+00 -.646E-03 0.393E-01
   -.360E+02 0.113E+02 -.922E+03   0.377E+02 -.113E+02 0.922E+03   0.567E-01 -.136E+00 0.719E+00
   -.630E+01 0.215E+02 -.768E+03   0.576E+01 -.217E+02 0.767E+03   0.502E+00 0.244E-01 0.653E-01
   0.127E+02 -.233E+00 -.898E+03   -.108E+02 0.230E+00 0.899E+03   -.274E+00 0.437E-02 0.409E+00
   -.654E+01 -.521E-01 0.160E+04   0.117E+02 0.530E-01 -.162E+04   -.628E+01 -.189E-02 0.166E+02
   -.682E+01 -.470E-01 0.160E+04   0.120E+02 0.468E-01 -.162E+04   -.628E+01 0.112E-02 0.166E+02
   0.434E+02 -.329E-01 0.102E+04   -.483E+02 0.925E-02 -.101E+04   0.356E+01 0.222E-01 -.420E+01
   0.313E+02 -.812E-01 0.123E+04   -.387E+02 0.859E-01 -.123E+04   0.702E+01 -.655E-02 -.254E+01
   -.425E+02 -.104E+00 0.141E+04   0.500E+02 0.104E+00 -.141E+04   -.651E+01 -.358E-02 -.246E+00
   -.356E+02 -.612E+00 0.761E+03   0.413E+02 0.645E+00 -.765E+03   -.523E+01 -.239E-01 0.412E+01
   0.442E+02 -.516E-02 0.102E+04   -.490E+02 0.142E-01 -.101E+04   0.353E+01 -.971E-02 -.402E+01
   0.306E+02 -.462E-02 0.123E+04   -.380E+02 -.242E-02 -.123E+04   0.704E+01 0.134E-01 -.255E+01
   -.426E+02 -.141E-01 0.141E+04   0.501E+02 0.178E-01 -.141E+04   -.649E+01 -.794E-02 -.251E+00
   -.383E+02 0.809E-01 0.761E+03   0.443E+02 -.105E+00 -.765E+03   -.544E+01 0.216E-01 0.424E+01
   0.386E+02 -.674E+00 0.135E+03   -.454E+02 0.685E+00 -.129E+03   0.610E+01 -.962E-02 -.497E+01
   0.397E+02 -.388E+00 0.365E+03   -.466E+02 0.320E+00 -.362E+03   0.624E+01 0.625E-01 -.284E+01
   -.408E+02 -.361E+00 0.540E+03   0.476E+02 0.417E+00 -.543E+03   -.614E+01 -.499E-01 0.256E+01
   -.348E+02 -.880E+00 -.999E+02   0.395E+02 0.780E+00 0.942E+02   -.434E+01 0.861E-01 0.503E+01
   0.412E+02 0.333E+00 0.138E+03   -.475E+02 -.435E+00 -.134E+03   0.574E+01 0.904E-01 -.389E+01
   0.383E+02 0.586E+00 0.360E+03   -.449E+02 -.540E+00 -.357E+03   0.605E+01 -.447E-01 -.278E+01
   -.390E+02 -.165E-01 0.540E+03   0.456E+02 0.170E-01 -.543E+03   -.597E+01 -.363E-04 0.258E+01
   -.351E+02 0.153E+00 -.109E+03   0.404E+02 -.313E+00 0.102E+03   -.484E+01 0.143E+00 0.551E+01
   0.435E+02 -.271E+01 -.758E+03   -.498E+02 0.266E+01 0.766E+03   0.573E+01 0.451E-01 -.724E+01
   0.360E+02 -.341E+01 -.505E+03   -.430E+02 0.325E+01 0.509E+03   0.637E+01 0.131E+00 -.294E+01
   -.433E+02 -.137E+01 -.337E+03   0.498E+02 0.149E+01 0.334E+03   -.597E+01 -.107E+00 0.262E+01
   -.489E+02 -.117E+02 -.952E+03   0.511E+02 0.123E+02 0.941E+03   -.227E+01 -.560E+00 0.938E+01
   0.413E+02 -.113E+02 -.728E+03   -.478E+02 0.121E+02 0.734E+03   0.591E+01 -.686E+00 -.548E+01
   0.418E+02 -.171E+01 -.516E+03   -.484E+02 0.185E+01 0.520E+03   0.599E+01 -.124E+00 -.317E+01
   -.380E+02 -.241E+01 -.331E+03   0.444E+02 0.238E+01 0.328E+03   -.580E+01 0.255E-01 0.266E+01
   -.281E+02 -.907E+01 -.963E+03   0.295E+02 0.931E+01 0.952E+03   -.158E+01 -.206E+00 0.914E+01
   0.272E+02 -.150E+02 -.159E+04   -.326E+02 0.148E+02 0.161E+04   0.478E+01 0.101E+00 -.203E+02
   0.278E+02 -.787E+01 -.144E+04   -.327E+02 0.779E+01 0.144E+04   0.445E+01 0.748E-01 -.741E+01
   -.200E+02 -.851E+01 -.121E+04   0.248E+02 0.839E+01 0.120E+04   -.439E+01 0.104E+00 0.293E+01
   -.304E+02 -.437E+02 -.156E+04   0.249E+02 0.435E+02 0.158E+04   0.489E+01 0.242E+00 -.184E+02
   0.547E+02 -.532E+02 -.138E+04   -.596E+02 0.533E+02 0.139E+04   0.443E+01 -.564E-02 -.658E+01
   -.314E+02 -.178E+02 -.119E+04   0.369E+02 0.174E+02 0.119E+04   -.501E+01 0.366E+00 0.318E+01
   -.657E+01 0.198E-02 0.160E+04   0.117E+02 -.223E-02 -.162E+04   -.628E+01 0.228E-03 0.166E+02
   -.682E+01 0.479E-01 0.160E+04   0.120E+02 -.481E-01 -.162E+04   -.628E+01 -.899E-03 0.166E+02
   0.434E+02 0.245E-01 0.102E+04   -.483E+02 -.303E-01 -.101E+04   0.356E+01 0.755E-02 -.419E+01
   0.313E+02 0.836E-01 0.123E+04   -.387E+02 -.881E-01 -.123E+04   0.702E+01 0.677E-02 -.254E+01
   -.425E+02 0.269E-02 0.141E+04   0.500E+02 -.288E-02 -.141E+04   -.651E+01 0.450E-03 -.252E+00
   -.360E+02 0.248E-01 0.761E+03   0.417E+02 -.453E-01 -.766E+03   -.526E+01 0.204E-01 0.420E+01
   0.439E+02 0.559E-02 0.102E+04   -.487E+02 -.140E-01 -.101E+04   0.351E+01 0.854E-02 -.415E+01
   0.307E+02 0.243E-02 0.123E+04   -.381E+02 -.230E-02 -.123E+04   0.703E+01 0.141E-03 -.253E+01
   -.426E+02 0.179E-01 0.141E+04   0.501E+02 -.219E-01 -.141E+04   -.649E+01 0.872E-02 -.251E+00
   -.383E+02 -.192E-01 0.761E+03   0.443E+02 0.495E-02 -.765E+03   -.543E+01 0.164E-01 0.424E+01
   0.386E+02 0.620E+00 0.135E+03   -.453E+02 -.620E+00 -.129E+03   0.609E+01 -.118E-02 -.496E+01
   0.398E+02 0.399E+00 0.365E+03   -.467E+02 -.322E+00 -.362E+03   0.625E+01 -.714E-01 -.285E+01
   -.399E+02 0.205E-01 0.540E+03   0.465E+02 -.104E-01 -.543E+03   -.599E+01 -.923E-02 0.258E+01
   -.350E+02 0.315E-01 -.105E+03   0.400E+02 -.309E-01 0.987E+02   -.460E+01 -.134E-02 0.529E+01
   0.401E+02 0.502E-02 0.137E+03   -.466E+02 -.648E-02 -.132E+03   0.583E+01 0.154E-02 -.463E+01
   0.383E+02 0.757E-02 0.360E+03   -.450E+02 -.102E-01 -.357E+03   0.604E+01 0.143E-02 -.294E+01
   -.390E+02 0.566E-01 0.540E+03   0.457E+02 -.560E-01 -.543E+03   -.598E+01 -.134E-02 0.258E+01
   -.351E+02 -.123E+00 -.109E+03   0.404E+02 0.272E+00 0.102E+03   -.484E+01 -.132E+00 0.551E+01
   0.435E+02 0.262E+01 -.758E+03   -.498E+02 -.256E+01 0.766E+03   0.573E+01 -.567E-01 -.724E+01
   0.360E+02 0.348E+01 -.505E+03   -.431E+02 -.332E+01 0.508E+03   0.639E+01 -.137E+00 -.293E+01
   -.415E+02 -.163E-02 -.341E+03   0.478E+02 0.168E-01 0.339E+03   -.569E+01 -.123E-01 0.244E+01
   -.402E+02 -.276E-01 -.964E+03   0.421E+02 0.459E-01 0.953E+03   -.200E+01 -.176E-01 0.936E+01
   0.419E+02 0.622E-03 -.749E+03   -.483E+02 0.558E-02 0.757E+03   0.585E+01 -.576E-02 -.719E+01
   0.401E+02 0.423E-01 -.515E+03   -.467E+02 -.403E-01 0.518E+03   0.599E+01 -.346E-02 -.311E+01
   -.380E+02 0.243E+01 -.331E+03   0.444E+02 -.240E+01 0.328E+03   -.580E+01 -.225E-01 0.267E+01
   -.280E+02 0.934E+01 -.963E+03   0.295E+02 -.965E+01 0.952E+03   -.158E+01 0.266E+00 0.914E+01
   0.272E+02 0.149E+02 -.159E+04   -.326E+02 -.147E+02 0.161E+04   0.479E+01 -.135E+00 -.203E+02
   0.278E+02 0.784E+01 -.144E+04   -.326E+02 -.776E+01 0.144E+04   0.442E+01 -.770E-01 -.741E+01
   -.242E+02 0.382E-01 -.121E+04   0.300E+02 -.494E-01 0.121E+04   -.528E+01 0.982E-02 0.318E+01
   0.976E+01 -.943E-02 -.159E+04   -.155E+02 -.136E-02 0.161E+04   0.504E+01 0.861E-02 -.203E+02
   0.310E+02 -.410E-01 -.144E+04   -.354E+02 0.438E-01 0.145E+04   0.401E+01 -.152E-02 -.789E+01
   -.315E+02 0.179E+02 -.119E+04   0.370E+02 -.175E+02 0.119E+04   -.503E+01 -.371E+00 0.312E+01
   -.654E+01 0.500E-01 0.160E+04   0.117E+02 -.509E-01 -.162E+04   -.628E+01 0.178E-02 0.166E+02
   -.686E+01 -.755E-03 0.160E+04   0.120E+02 0.819E-03 -.162E+04   -.629E+01 -.147E-03 0.166E+02
   0.435E+02 -.290E-02 0.102E+04   -.485E+02 -.126E-01 -.101E+04   0.368E+01 0.153E-01 -.417E+01
   0.314E+02 -.409E-02 0.124E+04   -.388E+02 0.460E-02 -.123E+04   0.701E+01 -.633E-03 -.254E+01
   -.425E+02 0.101E+00 0.141E+04   0.501E+02 -.102E+00 -.141E+04   -.651E+01 0.308E-02 -.246E+00
   -.356E+02 0.651E+00 0.761E+03   0.412E+02 -.726E+00 -.765E+03   -.523E+01 0.657E-01 0.412E+01
   0.442E+02 -.143E-01 0.102E+04   -.490E+02 -.127E-01 -.101E+04   0.353E+01 0.281E-01 -.401E+01
   0.306E+02 -.109E-02 0.123E+04   -.380E+02 0.901E-02 -.123E+04   0.704E+01 -.143E-01 -.255E+01
   -.426E+02 -.307E-02 0.141E+04   0.501E+02 0.343E-02 -.141E+04   -.648E+01 -.791E-03 -.266E+00
   -.407E+02 0.338E-01 0.759E+03   0.477E+02 -.535E-01 -.763E+03   -.625E+01 0.192E-01 0.399E+01
   0.388E+02 -.396E-01 0.134E+03   -.463E+02 0.452E-01 -.128E+03   0.674E+01 -.566E-02 -.502E+01
   0.388E+02 -.309E-01 0.368E+03   -.453E+02 0.388E-01 -.365E+03   0.589E+01 -.686E-02 -.260E+01
   -.408E+02 0.333E+00 0.540E+03   0.476E+02 -.358E+00 -.543E+03   -.616E+01 0.226E-01 0.256E+01
   -.347E+02 0.859E+00 -.998E+02   0.394E+02 -.752E+00 0.941E+02   -.432E+01 -.930E-01 0.502E+01
   0.412E+02 -.364E+00 0.138E+03   -.475E+02 0.469E+00 -.134E+03   0.573E+01 -.926E-01 -.385E+01
   0.383E+02 -.621E+00 0.360E+03   -.450E+02 0.573E+00 -.357E+03   0.605E+01 0.466E-01 -.279E+01
   -.375E+02 -.129E-01 0.540E+03   0.438E+02 0.176E-01 -.543E+03   -.572E+01 -.378E-02 0.262E+01
   -.389E+02 0.863E-01 -.114E+03   0.461E+02 -.997E-01 0.109E+03   -.647E+01 0.117E-01 0.463E+01
   0.445E+02 -.143E-01 -.755E+03   -.518E+02 0.238E-01 0.764E+03   0.655E+01 -.940E-02 -.724E+01
   0.319E+02 -.696E-01 -.504E+03   -.381E+02 0.871E-01 0.507E+03   0.558E+01 -.131E-01 -.301E+01
   -.434E+02 0.133E+01 -.337E+03   0.500E+02 -.141E+01 0.334E+03   -.600E+01 0.730E-01 0.263E+01
   -.490E+02 0.118E+02 -.952E+03   0.513E+02 -.125E+02 0.942E+03   -.229E+01 0.599E+00 0.938E+01
   0.412E+02 0.114E+02 -.727E+03   -.478E+02 -.121E+02 0.733E+03   0.591E+01 0.694E+00 -.537E+01
   0.418E+02 0.166E+01 -.517E+03   -.485E+02 -.179E+01 0.520E+03   0.598E+01 0.122E+00 -.321E+01
   -.354E+02 -.232E-01 -.336E+03   0.417E+02 0.291E-01 0.334E+03   -.571E+01 -.578E-02 0.211E+01
   -.211E+02 -.233E+00 -.962E+03   0.263E+02 0.274E+00 0.955E+03   -.483E+01 -.368E-01 0.681E+01
   0.694E+02 -.147E-01 -.157E+04   -.761E+02 0.491E-02 0.160E+04   0.592E+01 0.832E-02 -.202E+02
   0.140E+02 -.213E-01 -.142E+04   -.177E+02 0.298E-01 0.143E+04   0.342E+01 -.791E-02 -.705E+01
   -.200E+02 0.856E+01 -.121E+04   0.247E+02 -.845E+01 0.120E+04   -.435E+01 -.984E-01 0.295E+01
   -.312E+02 0.442E+02 -.156E+04   0.258E+02 -.439E+02 0.158E+04   0.484E+01 -.238E+00 -.183E+02
   0.551E+02 0.533E+02 -.138E+04   -.600E+02 -.533E+02 0.139E+04   0.448E+01 0.336E-01 -.651E+01
   -.331E+02 -.361E+00 -.110E+04   0.365E+02 0.355E+00 0.109E+04   -.310E+01 0.331E-02 0.503E+01
 -----------------------------------------------------------------------------------------------
   -.471E+02 -.154E+01 0.745E+02   -.441E-12 -.512E-12 -.659E-11   0.446E+02 0.131E+01 -.670E+02


 POSITION                                       TOTAL-FORCE (eV/Angst)
 -----------------------------------------------------------------------------------
      7.12601      4.92762     21.55423        -0.317124      0.317918      0.026084
      7.07816      6.46372     21.59719        -0.296952     -0.341995      0.010380
      6.49485      5.67657     21.61376         0.460189      0.023841     -0.250127
      8.29921      9.47401      8.23548         4.284479      0.004106      2.083317
      6.08023      7.57921      9.11607        -1.886065      0.003111     -2.124313
      3.16233      7.57921      8.23548         4.246597     -0.000805      2.058049
      0.94335      9.47401      9.11607        -1.931013     -0.003897     -2.127087
      9.70804      9.47696     11.79939        -0.018760     -0.000738     -0.034552
      7.46680      7.57573     12.59376         0.011751      0.002449      0.028941
      4.56313      7.57772     11.79452        -0.014866     -0.000283     -0.021062
      2.31691      9.47426     12.60946         0.023307      0.000702      0.020792
      0.88581      9.47973     15.36543        -0.004430     -0.004748     -0.025082
      8.89061      7.57665     16.05893         0.064409      0.009351      0.086127
      6.00361      7.58012     15.33207        -0.003064     -0.001727     -0.008305
      3.73970      9.47663     16.10029         0.053041      0.000615      0.064329
      2.37420      9.46848     19.00448        -0.030230      0.007343      0.002633
      0.00061      7.57079     19.54914         0.226258     -0.009055      0.083881
      7.48719      7.56984     18.89699         0.012071      0.014765      0.040939
      5.17131      9.48586     19.55488         0.221646      0.003342      0.056596
      8.29921      1.89480      8.23548         4.283905     -0.003819      2.082635
      6.08023      0.00000      9.11607        -1.913856     -0.000407     -2.121569
      3.16233      0.00000      8.23548         4.274446     -0.000220      2.076024
      0.94335      1.89480      9.11607        -1.930409      0.002927     -2.126944
      9.70775      1.89443     11.79934        -0.014803     -0.002601     -0.034086
      7.45840      0.00121     12.59926         0.017299     -0.002334      0.021770
      4.56506      0.00071     11.79888        -0.015538     -0.000892     -0.030463
      2.31702      1.89600     12.60912         0.021693     -0.001446      0.023348
      0.88555      1.89426     15.36503        -0.001894      0.002240     -0.025034
      8.87554      0.00249     16.07756         0.062067     -0.000279      0.069635
      6.01053      0.00188     15.34967        -0.009521     -0.000789     -0.022072
      3.73944      1.89581     16.10016         0.050908     -0.001328      0.062289
      2.37400      1.90629     19.00429        -0.033606     -0.007124      0.001935
      0.02796      0.00320     19.54922         0.234398     -0.000789      0.071040
      7.52089      0.00202     18.97289        -0.029142      0.001717     -0.001675
      5.17094      1.88638     19.55435         0.226223     -0.002040      0.057331
      8.29921      5.68441      8.23548         4.290800      0.000636      2.072627
      6.08023      3.78960      9.11607        -1.884390     -0.003114     -2.124111
      3.16233      3.78960      8.23548         4.245453      0.001616      2.056723
      0.94335      5.68441      9.11607        -1.894953     -0.000021     -2.059366
      9.72335      5.68586     11.79347        -0.022242     -0.000105     -0.036959
      7.46718      3.79564     12.59351         0.009455     -0.002473      0.030472
      4.56290      3.79264     11.79430        -0.012931      0.000017     -0.021041
      2.32113      5.68515     12.63847         0.017797      0.000827     -0.003213
      0.91611      5.68740     15.37096        -0.020216     -0.001155     -0.035504
      8.89151      3.79737     16.05804         0.061922     -0.011410      0.086481
      6.00291      3.79240     15.33113        -0.000530      0.002568     -0.008761
      3.76101      5.68639     16.18358         0.033384      0.000709     -0.000062
      2.40874      5.68700     19.01769        -0.038271      0.001129     -0.031099
     10.27277      3.80414     19.54998         0.221618      0.010122      0.079797
      7.48558      3.80345     18.89296         0.011495     -0.015343      0.042462
      5.18998      5.68612     19.72347         0.232189     -0.001752     -0.000889
      5.01563      7.57921      7.50000        -2.126517     -0.001420      1.521097
     10.15251      9.47401      7.50000        -2.119320      0.001312      1.514513
      9.36381      9.47401      9.85155        -0.812819      0.002032     -0.335221
      6.44591      9.47401      8.97095         0.686912     -0.002940     -0.191649
      7.93353      7.57921      8.38059         0.046912     -0.003702     -1.071890
      6.41347      7.57921     11.02238        -0.335652      0.005389      0.583682
      4.22693      7.57921      9.85155        -0.823038     -0.002279     -0.321336
      1.30903      7.57921      8.97095         0.700648      0.008751     -0.200023
      2.79665      9.47401      8.38059         0.059524     -0.005487     -1.075182
      1.27659      9.47401     11.02238        -0.243326      0.000677      0.666871
      0.50804      9.47723     13.39340         0.273102     -0.000121     -0.107393
      7.84846      9.47461     12.49029         0.269037      0.004009     -0.109810
      9.34416      7.57923     11.91136        -0.270689     -0.001748      0.100814
      7.85040      7.57352     14.51664        -0.283578     -0.001412      0.064707
      5.64034      7.57404     13.39082         0.270428      0.001344     -0.108281
      2.70905      7.57832     12.50582         0.263117     -0.006130     -0.111121
      4.19730      9.47344     11.90996        -0.273382      0.000684      0.104870
      2.71491      9.47041     14.54257        -0.279829      0.004000      0.066492
      1.97947      9.47283     16.94236         0.260113      0.000499     -0.138658
      9.28777      9.47824     15.99269         0.257376     -0.002362     -0.088809
      0.52919      7.57909     15.44067        -0.271395     -0.002507      0.105253
      9.38619      7.59508     18.00942        -0.374575     -0.006667     -0.098404
      7.13014      7.61116     16.89979         0.247224     -0.018083     -0.123053
      4.15775      7.57883     16.04625         0.251903     -0.003072     -0.109501
      5.64173      9.47609     15.42836        -0.267431     -0.001368      0.112229
      4.23789      9.48967     18.04017        -0.374802     -0.001319     -0.089792
      3.56013      9.47181     20.43547         0.052330      0.003122     -0.332119
      0.53003      9.46890     19.78234         0.214215      0.000749     -0.183315
      2.00041      7.57673     19.01208        -0.254485     -0.000477      0.142404
      8.64171      7.51813     20.39784         0.056333      0.019170     -0.348108
      5.69519      7.59929     19.76541         0.198700      0.001820     -0.166275
      7.13977      9.48086     18.95095        -0.261813     -0.007932      0.145488
      5.01563      0.00000      7.50000        -2.122598      0.000063      1.516380
     10.15251      1.89480      7.50000        -2.119465     -0.001291      1.514705
      9.36381      1.89480      9.85155        -0.812981      0.002815     -0.335029
      6.44591      1.89480      8.97095         0.686963      0.003467     -0.191670
      7.93353      0.00000      8.38059         0.050640      0.000379     -1.074300
      6.41347      0.00000     11.02238        -0.314874      0.003089      0.591701
      4.22693      0.00000      9.85155        -0.821579      0.001462     -0.329875
      1.30903      0.00000      8.97095         0.694346      0.000347     -0.192283
      2.79665      1.89480      8.38059         0.059546      0.006168     -1.075069
      1.27659      1.89480     11.02238        -0.244364      0.004498      0.664313
      0.50798      1.89510     13.39324         0.273432     -0.001115     -0.106996
      7.84848      1.89646     12.49023         0.268197     -0.005077     -0.109517
      9.34077      0.00107     11.90997        -0.272963     -0.000414      0.104905
      7.84588      0.00190     14.52601        -0.282088     -0.000929      0.067640
      5.64107      0.00120     13.38836         0.272047      0.000327     -0.108858
      2.70901      0.00077     12.50456         0.264980     -0.000966     -0.111691
      4.19727      1.89681     11.90980        -0.272911     -0.001050      0.105009
      2.71499      1.90132     14.54224        -0.280301     -0.003210      0.068929
      1.97922      1.90138     16.94203         0.259401     -0.001254     -0.138787
      9.28765      1.89549     15.99189         0.258847     -0.001773     -0.089267
      0.52814      0.00227     15.44465        -0.274171      0.001107      0.106799
      9.38409      0.00336     18.02286        -0.372846     -0.001884     -0.081601
      7.12115      0.00242     16.91652         0.256689     -0.000348     -0.138496
      4.14688      0.00180     16.02267         0.257563     -0.001945     -0.100147
      5.64126      1.89645     15.42780        -0.265564      0.002188      0.113209
      4.23737      1.88063     18.03987        -0.375749      0.003289     -0.089300
      3.56019      1.90337     20.43512         0.051018     -0.003142     -0.331061
      0.52943      1.90631     19.78341         0.212996     -0.001210     -0.183205
      2.00007      0.00313     19.00468        -0.267245     -0.000004      0.147260
      8.68785      0.00200     20.42037         0.061265     -0.000986     -0.327266
      5.69379      0.00182     19.79404         0.203254      0.001037     -0.184769
      7.14048      1.89219     18.95207        -0.262701      0.007212      0.144157
      5.01563      3.78960      7.50000        -2.126873      0.001399      1.521366
     10.15251      5.68441      7.50000        -2.135027     -0.000061      1.503003
      9.36381      5.68441      9.85155        -0.825205      0.002213     -0.343630
      6.44591      5.68441      8.97095         0.684858     -0.000185     -0.191019
      7.93353      3.78960      8.38059         0.046728      0.003463     -1.071772
      6.41347      3.78960     11.02238        -0.335799      0.000573      0.583989
      4.22693      3.78960      9.85155        -0.823411      0.005488     -0.321349
      1.30903      3.78960      8.97095         0.700906     -0.008815     -0.200045
      2.79665      5.68441      8.38059         0.064903     -0.000524     -1.080103
      1.27659      5.68441     11.02238        -0.191238      0.002386      0.804382
      0.51495      5.68628     13.39997         0.281648     -0.000884     -0.107085
      7.84967      5.68557     12.48299         0.269517      0.000015     -0.108805
      9.34405      3.79179     11.91144        -0.269998      0.001469      0.100132
      7.85034      3.79934     14.51648        -0.285104     -0.000647      0.062325
      5.64016      3.79744     13.39079         0.270584     -0.001494     -0.107743
      2.70911      3.79203     12.50578         0.262485      0.006465     -0.111775
      4.19812      5.68511     11.91039        -0.274565      0.000296      0.111680
      2.72799      5.68568     14.57069        -0.275649      0.000008      0.110263
      1.98509      5.68729     16.96420         0.277196     -0.001415     -0.129725
      9.29014      5.68673     16.00732         0.262625      0.002596     -0.096411
      0.52907      3.79466     15.44053        -0.269454      0.000475      0.104172
      9.38592      3.77763     18.00929        -0.371783      0.006164     -0.093231
      7.13023      3.76182     16.89922         0.246207      0.018578     -0.122426
      4.15795      3.79366     16.04770         0.251725      0.004350     -0.112040
      5.65779      5.68618     15.46271        -0.274893     -0.000814      0.107017
      4.24705      5.68812     18.11858        -0.303912     -0.001855      0.092208
      3.54204      5.68646     20.49770         0.079713     -0.000192     -0.319552
      0.52904      5.68717     19.77764         0.205424     -0.000763     -0.174706
      1.99939      3.79770     19.01108        -0.254246      0.000522      0.143921
      8.63879      3.86148     20.39754         0.058519     -0.021420     -0.350605
      5.69334      3.77385     19.75785         0.199963     -0.000274     -0.165209
      7.11529      5.68720     18.85004        -0.223846     -0.001858      0.175215
 -----------------------------------------------------------------------------------
    total drift:                                0.055295     -0.006506      0.010477


--------------------------------------------------------------------------------------------------------



  FREE ENERGIE OF THE ION-ELECTRON SYSTEM (eV)
  ---------------------------------------------------
  free  energy   TOTEN  =     -1589.00639010 eV

  energy  without entropy=    -1589.00639010  energy(sigma->0) =    -1589.00639010



--------------------------------------------------------------------------------------------------------


    POTLOK:  cpu time      1.4293: real time      1.4301


--------------------------------------------------------------------------------------------------------


     LOOP+:  cpu time   6103.1943: real time   6107.5052
    4ORBIT:  cpu time      0.0000: real time      0.0000

 total amount of memory used by VASP MPI-rank0   630791. kBytes
=======================================================================

   base      :      30000. kBytes
   nonl-proj :     209240. kBytes
   fftplans  :      17233. kBytes
   grid      :      15282. kBytes
   one-center:        799. kBytes
   HF        :        180. kBytes
   nonlr-proj:      42634. kBytes
   wavefun   :      10812. kBytes
   fock_wrk  :     304611. kBytes

  
  
 General timing and accounting informations for this job:
 ========================================================
  
                  Total CPU time used (sec):     6200.598
                            User time (sec):     6175.936
                          System time (sec):       24.662
                         Elapsed time (sec):     6217.423
  
                   Maximum memory used (kb):     1244204.
                   Average memory used (kb):          N/A
  
                          Minor page faults:      1491229
                          Major page faults:         1341
                 Voluntary context switches:        30783
