 vasp.6.3.0 20Jan22 (build Aug 21 2024 11:13:42) complex                         
 executed on        HPECrayEX_GCC date 2024.11.26  18:07:21
 running  512 mpi-ranks, with    1 threads/rank
 distrk:  each k-point on  512 cores,    1 groups
 distr:  one band on NCORE=  16 cores,   32 groups


--------------------------------------------------------------------------------------------------------


 INCAR:
   SYSTEM = TiO2
   ISMEAR = 0
   SIGMA = 0.05
   EDIFF = 1E-4
   ALGO = ALL
   ISTART = 0
   IBRION = -1
   NSW = 0
   ISYM = 0
   ISIF = 2
   EDIFFG = -0.01
   DIPOL = 0.5 0.5 0.5
   IDIPOL = 3
   LDIPOL = .TRUE.
   GGA = PE
   IVDW = 21
   ENCUT = 600
   PREC = Accurate
   LASPH = .TRUE.
   LREAL = .FALSE.
   ISPIN = 1
   NELM = 200
   NELMIN = 8
   NCORE = 16
   KPAR = 1
   LWAVE = .FALSE.
   LCHARG = .FALSE.

 POTCAR:    PAW_PBE H 15Jun2001                   
 POTCAR:    PAW_PBE O 08Apr2002                   
 POTCAR:    PAW_PBE Ti_pv 07Sep2000               
 POTCAR:    PAW_PBE O 08Apr2002                   
 POTCAR:    PAW_PBE H 15Jun2001                   
   SHA256 =  030f79b5d3ab3cf0e668861823c8fb652ff669f3e15e46930bd03bfd63a607b6 H/POTCAR              
   COPYR  = (c) Copyright 15Jun2001 Georg Kresse                                                    
   COPYR  = This file is part of the software VASP. Any use, copying, and all other rights are regul
   COPYR  = If you do not have a valid VASP license, you may not use, copy or distribute this file. 
   VRHFIN =H: ultrasoft test                                                                        
   LEXCH  = PE                                                                                      
   EATOM  =    12.4884 eV,    0.9179 Ry                                                             
                                                                                                    
   TITEL  = PAW_PBE H 15Jun2001                                                                     
   LULTRA =        F    use ultrasoft PP ?                                                          
   IUNSCR =        0    unscreen: 0-lin 1-nonlin 2-no                                               
   RPACOR =    0.000    partial core radius                                                         
   POMASS =    1.000; ZVAL   =    1.000    mass and valenz                                          
   RCORE  =    1.100    outmost cutoff radius                                                       
   RWIGS  =    0.700; RWIGS  =    0.370    wigner-seitz radius (au A)                               
   ENMAX  =  250.000; ENMIN  =  200.000 eV                                                          
   RCLOC  =    0.701    cutoff for local pot                                                        
   LCOR   =        T    correct aug charges                                                         
   LPAW   =        T    paw PP                                                                      
   EAUG   =  400.000                                                                                
   RMAX   =    1.123    core radius for proj-oper                                                   
   RAUG   =    1.200    factor for augmentation sphere                                              
   RDEP   =    1.112    radius for radial grids                                                     
   RDEPT  =    0.926    core radius for aug-charge                                                  
                                                                                                    
   Atomic configuration                                                                             
    2 entries                                                                                       
     n  l   j            E        occ.                                                              
     1  0  0.50        -6.4927   1.0000                                                             
     2  1  0.50        -3.4015   0.0000                                                             
   Description                                                                                      
     l       E           TYP  RCUT    TYP  RCUT                                                     
     0     -6.4927494     23  1.100                                                                 
     0      6.8029130     23  1.100                                                                 
     1     -4.0817478     23  1.100                                                                 
  local pseudopotential read in
  atomic valenz-charges read in
  non local Contribution for L=           0  read in
    real space projection operators read in
  non local Contribution for L=           0  read in
    real space projection operators read in
  non local Contribution for L=           1  read in
    real space projection operators read in
    PAW grid and wavefunctions read in

   number of l-projection  operators is LMAX  =           3
   number of lm-projection operators is LMMAX =           5

 POTCAR:    PAW_PBE O 08Apr2002                   
   SHA256 =  818f92134a0a090dccd8ba1447fa70422a3b330e708bb4f08108d8ae51209ddf O/POTCAR              
   COPYR  = (c) Copyright 08Apr2002 Georg Kresse                                                    
   COPYR  = This file is part of the software VASP. Any use, copying, and all other rights are regul
   COPYR  = If you do not have a valid VASP license, you may not use, copy or distribute this file. 
   VRHFIN =O: s2p4                                                                                  
   LEXCH  = PE                                                                                      
   EATOM  =   432.3788 eV,   31.7789 Ry                                                             
                                                                                                    
   TITEL  = PAW_PBE O 08Apr2002                                                                     
   LULTRA =        F    use ultrasoft PP ?                                                          
   IUNSCR =        1    unscreen: 0-lin 1-nonlin 2-no                                               
   RPACOR =    1.200    partial core radius                                                         
   POMASS =   16.000; ZVAL   =    6.000    mass and valenz                                          
   RCORE  =    1.520    outmost cutoff radius                                                       
   RWIGS  =    1.550; RWIGS  =    0.820    wigner-seitz radius (au A)                               
   ENMAX  =  400.000; ENMIN  =  300.000 eV                                                          
   ICORE  =        2    local potential                                                             
   LCOR   =        T    correct aug charges                                                         
   LPAW   =        T    paw PP                                                                      
   EAUG   =  605.392                                                                                
   DEXC   =    0.000                                                                                
   RMAX   =    1.553    core radius for proj-oper                                                   
   RAUG   =    1.300    factor for augmentation sphere                                              
   RDEP   =    1.550    radius for radial grids                                                     
   RDEPT  =    1.329    core radius for aug-charge                                                  
                                                                                                    
   Atomic configuration                                                                             
    4 entries                                                                                       
     n  l   j            E        occ.                                                              
     1  0  0.50      -514.6923   2.0000                                                             
     2  0  0.50       -23.9615   2.0000                                                             
     2  1  0.50        -9.0305   4.0000                                                             
     3  2  1.50        -9.5241   0.0000                                                             
   Description                                                                                      
     l       E           TYP  RCUT    TYP  RCUT                                                     
     0    -23.9615318     23  1.200                                                                 
     0     -9.5240782     23  1.200                                                                 
     1     -9.0304911     23  1.520                                                                 
     1      8.1634956     23  1.520                                                                 
     2     -9.5240782      7  1.500                                                                 
  local pseudopotential read in
  partial core-charges read in
  partial kinetic energy density read in
  kinetic energy density of atom read in
  atomic valenz-charges read in
  non local Contribution for L=           0  read in
    real space projection operators read in
  non local Contribution for L=           0  read in
    real space projection operators read in
  non local Contribution for L=           1  read in
    real space projection operators read in
  non local Contribution for L=           1  read in
    real space projection operators read in
    PAW grid and wavefunctions read in

   number of l-projection  operators is LMAX  =           4
   number of lm-projection operators is LMMAX =           8

 POTCAR:    PAW_PBE Ti_pv 07Sep2000               
   SHA256 =  f757a1b2c6d082f4c628fa3d987464a8763bf92e53844ac0500b0e2ddc9ce5c0 Ti_pv/POTCAR          
   COPYR  = (c) Copyright 07Sep2000 Georg Kresse                                                    
   COPYR  = This file is part of the software VASP. Any use, copying, and all other rights are regul
   COPYR  = If you do not have a valid VASP license, you may not use, copy or distribute this file. 
   VRHFIN =Ti: d3 s1                                                                                
   LEXCH  = PE                                                                                      
   EATOM  =  1042.5995 eV,   76.6289 Ry                                                             
                                                                                                    
   TITEL  = PAW_PBE Ti_pv 07Sep2000                                                                 
   LULTRA =        F    use ultrasoft PP ?                                                          
   IUNSCR =        1    unscreen: 0-lin 1-nonlin 2-no                                               
   RPACOR =    2.200    partial core radius                                                         
   POMASS =   47.880; ZVAL   =   10.000    mass and valenz                                          
   RCORE  =    2.500    outmost cutoff radius                                                       
   RWIGS  =    2.500; RWIGS  =    1.323    wigner-seitz radius (au A)                               
   ENMAX  =  222.335; ENMIN  =  166.751 eV                                                          
   RCLOC  =    1.701    cutoff for local pot                                                        
   LCOR   =        T    correct aug charges                                                         
   LPAW   =        T    paw PP                                                                      
   EAUG   =  482.848                                                                                
   DEXC   =    0.000                                                                                
   RMAX   =    2.564    core radius for proj-oper                                                   
   RAUG   =    1.300    factor for augmentation sphere                                              
   RDEP   =    2.538    radius for radial grids                                                     
   RDEPT  =    1.952    core radius for aug-charge                                                  
                                                                                                    
   Atomic configuration                                                                             
    8 entries                                                                                       
     n  l   j            E        occ.                                                              
     1  0  0.50     -4865.3608   2.0000                                                             
     2  0  0.50      -533.1368   2.0000                                                             
     2  1  1.50      -440.5031   6.0000                                                             
     3  0  0.50       -59.3186   2.0000                                                             
     3  1  1.50       -35.7012   6.0000                                                             
     3  2  2.50        -1.9157   3.0000                                                             
     4  0  0.50        -3.7291   1.0000                                                             
     4  3  2.50        -1.3606   0.0000                                                             
   Description                                                                                      
     l       E           TYP  RCUT    TYP  RCUT                                                     
     1    -35.7012140     23  2.300                                                                 
     1     -1.3605826     23  2.300                                                                 
     2     -1.9156996     23  2.500                                                                 
     2     -0.4063033     23  2.500                                                                 
     0     -3.7290856     23  2.500                                                                 
     0     20.4087390     23  2.500                                                                 
  local pseudopotential read in
  partial core-charges read in
  partial kinetic energy density read in
  atomic valenz-charges read in
  non local Contribution for L=           1  read in
    real space projection operators read in
  non local Contribution for L=           1  read in
    real space projection operators read in
  non local Contribution for L=           2  read in
    real space projection operators read in
  non local Contribution for L=           2  read in
    real space projection operators read in
  non local Contribution for L=           0  read in
    real space projection operators read in
  non local Contribution for L=           0  read in
    real space projection operators read in
    PAW grid and wavefunctions read in

   number of l-projection  operators is LMAX  =           6
   number of lm-projection operators is LMMAX =          18

 POTCAR:    PAW_PBE O 08Apr2002                   
   SHA256 =  818f92134a0a090dccd8ba1447fa70422a3b330e708bb4f08108d8ae51209ddf O/POTCAR              
   COPYR  = (c) Copyright 08Apr2002 Georg Kresse                                                    
   COPYR  = This file is part of the software VASP. Any use, copying, and all other rights are regul
   COPYR  = If you do not have a valid VASP license, you may not use, copy or distribute this file. 
   VRHFIN =O: s2p4                                                                                  
   LEXCH  = PE                                                                                      
   EATOM  =   432.3788 eV,   31.7789 Ry                                                             
                                                                                                    
   TITEL  = PAW_PBE O 08Apr2002                                                                     
   LULTRA =        F    use ultrasoft PP ?                                                          
   IUNSCR =        1    unscreen: 0-lin 1-nonlin 2-no                                               
   RPACOR =    1.200    partial core radius                                                         
   POMASS =   16.000; ZVAL   =    6.000    mass and valenz                                          
   RCORE  =    1.520    outmost cutoff radius                                                       
   RWIGS  =    1.550; RWIGS  =    0.820    wigner-seitz radius (au A)                               
   ENMAX  =  400.000; ENMIN  =  300.000 eV                                                          
   ICORE  =        2    local potential                                                             
   LCOR   =        T    correct aug charges                                                         
   LPAW   =        T    paw PP                                                                      
   EAUG   =  605.392                                                                                
   DEXC   =    0.000                                                                                
   RMAX   =    1.553    core radius for proj-oper                                                   
   RAUG   =    1.300    factor for augmentation sphere                                              
   RDEP   =    1.550    radius for radial grids                                                     
   RDEPT  =    1.329    core radius for aug-charge                                                  
                                                                                                    
   Atomic configuration                                                                             
    4 entries                                                                                       
     n  l   j            E        occ.                                                              
     1  0  0.50      -514.6923   2.0000                                                             
     2  0  0.50       -23.9615   2.0000                                                             
     2  1  0.50        -9.0305   4.0000                                                             
     3  2  1.50        -9.5241   0.0000                                                             
   Description                                                                                      
     l       E           TYP  RCUT    TYP  RCUT                                                     
     0    -23.9615318     23  1.200                                                                 
     0     -9.5240782     23  1.200                                                                 
     1     -9.0304911     23  1.520                                                                 
     1      8.1634956     23  1.520                                                                 
     2     -9.5240782      7  1.500                                                                 
  local pseudopotential read in
  partial core-charges read in
  partial kinetic energy density read in
  kinetic energy density of atom read in
  atomic valenz-charges read in
  non local Contribution for L=           0  read in
    real space projection operators read in
  non local Contribution for L=           0  read in
    real space projection operators read in
  non local Contribution for L=           1  read in
    real space projection operators read in
  non local Contribution for L=           1  read in
    real space projection operators read in
    PAW grid and wavefunctions read in

   number of l-projection  operators is LMAX  =           4
   number of lm-projection operators is LMMAX =           8

 -----------------------------------------------------------------------------
|                                                                             |
|               ----> ADVICE to this user running VASP <----                  |
|                                                                             |
|     You have a (more or less) 'large supercell' and for larger cells it     |
|     might be more efficient to use real-space projection operators.         |
|     Therefore, try LREAL= Auto in the INCAR file.                           |
|     Mind: For very accurate calculation, you might also keep the            |
|     reciprocal projection scheme (i.e. LREAL=.FALSE.).                      |
|                                                                             |
 -----------------------------------------------------------------------------

  PAW_PBE H 15Jun2001                   :
 energy of atom  1       EATOM=  -12.4884
 kinetic energy error for atom=    0.0004 (will be added to EATOM!!)
  PAW_PBE O 08Apr2002                   :
 energy of atom  2       EATOM= -432.3788
 kinetic energy error for atom=    0.0168 (will be added to EATOM!!)
  PAW_PBE Ti_pv 07Sep2000               :
 energy of atom  3       EATOM=-1042.5995
 kinetic energy error for atom=    0.0007 (will be added to EATOM!!)
  PAW_PBE O 08Apr2002                   :
 energy of atom  4       EATOM= -432.3788
 kinetic energy error for atom=    0.0168 (will be added to EATOM!!)


 POSCAR:  H  O Ti  O
  positions in direct lattice
  No initial velocities read in
 exchange correlation table for  LEXCH =        8
   RHO(1)=    0.500       N(1)  =     2000
   RHO(2)=  100.500       N(2)  =     4000



--------------------------------------------------------------------------------------------------------


 ion  position               nearest neighbor table
   1  0.486  0.542  0.806-   3 0.97
   2  0.595  0.500  0.793-   3 0.98
   3  0.522  0.491  0.787-   1 0.97   2 0.98  83 2.30
   4  0.750  0.625  0.285-  84 1.98 144 1.98  85 1.98 145 1.98 166 2.02  87 2.02  14 3.00  34 3.00

   5  0.000  0.750  0.285-  86 1.98  87 1.98 106 1.98 107 1.98  88 2.02  35 3.00  15 3.00
   6  0.000  0.625  0.393-  88 1.98 148 1.98  89 1.98 149 1.98  90 2.02  91 2.02  16 3.00  36 3.00

   7  0.750  0.750  0.393- 171 1.98 191 1.98  90 1.98 110 1.98  92 2.02  85 2.02  17 3.00  37 3.00

   8  0.750  0.625  0.500-  92 1.98  93 1.98 152 1.98 153 1.98  95 2.02 174 2.02  18 3.00  38 3.00

   9  0.000  0.750  0.500-  94 1.98 114 1.98  95 1.98 115 1.98  89 2.02  96 2.05  19 3.00  39 3.00

  10  0.009  0.625  0.605-  99 1.87  96 1.92 156 1.92  97 2.05 157 2.05  98 2.12  20 2.99  40 3.00

  11  0.757  0.750  0.612- 100 1.89 118 1.93  98 1.93 199 2.06 179 2.06  93 2.16  21 2.99  41 3.00

  12  0.751  0.625  0.722- 101 1.85 161 1.87 182 2.06 103 2.07 160 2.12 100 2.12  22 2.99  42 3.01

  13  1.000  0.750  0.710-  97 1.83 122 1.97 123 1.97 102 1.98 103 1.98  23 2.99  43 3.00
  14  0.750  0.875  0.285-  84 1.98 104 1.98  85 1.98 105 1.98 186 2.02 107 2.02   4 3.00  24 3.00

  15  0.000  0.000  0.285- 106 1.98 107 1.98 126 1.98 127 1.98 108 2.02  25 3.00   5 3.00
  16  0.000  0.875  0.393-  88 1.98 108 1.98  89 1.98 109 1.98 110 2.02 111 2.02   6 3.00  26 3.00

  17  0.750  0.000  0.393- 191 1.98 211 1.98 110 1.98 130 1.98 112 2.02 105 2.02   7 3.00  27 3.00

  18  0.750  0.875  0.500-  92 1.98  93 1.98 112 1.98 113 1.98 115 2.02 194 2.02   8 3.00  28 3.00

  19  0.000  0.000  0.500- 114 1.98 134 1.98 115 1.98 135 1.98 109 2.02 116 2.05   9 3.00  29 3.00

  20  0.009  0.875  0.605- 119 1.87  96 1.92 116 1.92 117 2.05  97 2.06 118 2.12  30 2.99  10 2.99

  21  0.757  0.000  0.612- 120 1.89 118 1.93 138 1.93 219 2.06 199 2.06 113 2.16  11 2.99  31 2.99

  22  0.749  0.875  0.722- 121 1.85 101 1.85 202 2.06 123 2.08 100 2.12 120 2.13  12 2.99  32 2.99

  23  1.000  1.000  0.710- 117 1.83 143 1.97 123 1.97 142 1.98 122 1.98  13 2.99  33 2.99
  24  0.750  0.125  0.285- 104 1.98 124 1.98 105 1.98 125 1.98 206 2.02 127 2.02  14 3.00  34 3.00

  25  0.000  0.250  0.285- 126 1.98 127 1.98 146 1.98 147 1.98 128 2.02  35 3.00  15 3.00
  26  0.000  0.125  0.393- 108 1.98 128 1.98 109 1.98 129 1.98 130 2.02 131 2.02  16 3.00  36 3.00

  27  0.750  0.250  0.393- 211 1.98 231 1.98 130 1.98 150 1.98 132 2.02 125 2.02  17 3.00  37 3.00

  28  0.750  0.125  0.500- 112 1.98 113 1.98 132 1.98 133 1.98 135 2.02 214 2.02  18 3.00  38 3.00

  29  0.000  0.250  0.500- 134 1.98 154 1.98 135 1.98 155 1.98 129 2.02 136 2.05  19 3.00  39 3.00

  30  0.009  0.125  0.605- 139 1.87 116 1.92 136 1.92 117 2.05 137 2.06 138 2.12  20 2.99  40 3.00

  31  0.757  0.250  0.612- 140 1.89 138 1.93 158 1.93 219 2.06 239 2.06 133 2.16  21 2.99  41 3.00

  32  0.749  0.124  0.722- 121 1.85 141 1.86 222 2.06 143 2.08 120 2.12 140 2.14  22 2.99  42 2.99

  33  1.000  0.250  0.710- 137 1.83 142 1.97 143 1.97 162 1.98 163 1.98  23 2.99  43 3.00
  34  0.750  0.375  0.285- 124 1.98 144 1.98 125 1.98 145 1.98 226 2.02 147 2.02   4 3.00  24 3.00

  35  0.000  0.500  0.285-  86 1.98  87 1.98 146 1.98 147 1.98 148 2.02  25 3.00   5 3.00
  36  0.000  0.375  0.393- 128 1.98 148 1.98 129 1.98 149 1.98 150 2.02 151 2.02   6 3.00  26 3.00

  37  0.750  0.500  0.393- 171 1.98 231 1.98  90 1.98 150 1.98 145 2.02 152 2.02   7 3.00  27 3.00

  38  0.750  0.375  0.500- 132 1.98 133 1.98 152 1.98 153 1.98 155 2.02 234 2.02   8 3.00  28 3.00

  39  0.000  0.500  0.500-  94 1.98 154 1.98  95 1.98 155 1.98 149 2.02 156 2.05   9 3.00  29 3.00

  40  0.009  0.375  0.605- 159 1.87 156 1.92 136 1.92 137 2.05 157 2.05 158 2.12  30 3.00  10 3.00

  41  0.758  0.500  0.612- 160 1.89  98 1.93 158 1.93 179 2.06 239 2.06 153 2.16  11 3.00  31 3.00

  42  0.751  0.374  0.722- 141 1.85 161 1.87 163 2.06 242 2.06 140 2.11 160 2.13  32 2.99  12 3.01

  43  0.000  0.500  0.710- 157 1.83 162 1.97 102 1.97 103 1.97 163 1.98  13 3.00  33 3.00
  44  0.250  0.625  0.285- 164 1.98 224 1.98 165 1.98 225 1.98 167 2.02  86 2.02  54 3.00  74 3.00

  45  0.500  0.750  0.285- 166 1.98 167 1.98 186 1.98 187 1.98 168 2.02  75 3.00  55 3.00
  46  0.500  0.625  0.393- 168 1.98 228 1.98 169 1.98 229 1.98 170 2.02 171 2.02  56 3.00  76 3.00

  47  0.250  0.750  0.393- 170 1.98 190 1.98  91 1.98 111 1.98 172 2.02 165 2.02  57 3.00  77 3.00

  48  0.250  0.625  0.500- 172 1.98 173 1.98 232 1.98 233 1.98 175 2.02  94 2.02  58 3.00  78 3.00

  49  0.500  0.750  0.500- 174 1.98 175 1.98 194 1.98 195 1.98 169 2.02 176 2.04  59 3.00  79 3.00

  50  0.510  0.623  0.606- 179 1.87 236 1.92 176 1.95 237 2.03 177 2.04 178 2.13  80 2.95  60 3.01

  51  0.257  0.750  0.612- 180 1.89 178 1.93 198 1.93  99 2.07 119 2.07 173 2.16  81 2.99  61 3.00

  52  0.250  0.625  0.722- 181 1.85 241 1.86 102 2.07 183 2.08 180 2.12 240 2.13  62 2.99  82 3.00

  53  0.501  0.750  0.709- 177 1.83 182 1.94 183 1.97 202 1.97 203 1.99  63 2.99  83 3.01
  54  0.250  0.875  0.285- 164 1.98 184 1.98 165 1.98 185 1.98 187 2.02 106 2.02  44 3.00  64 3.00

  55  0.500  0.000  0.285- 186 1.98 187 1.98 206 1.98 207 1.98 188 2.02  65 3.00  45 3.00
  56  0.500  0.875  0.393- 168 1.98 188 1.98 169 1.98 189 1.98 190 2.02 191 2.02  46 3.00  66 3.00

  57  0.250  0.000  0.393- 190 1.98 210 1.98 111 1.98 131 1.98 192 2.02 185 2.02  47 3.00  67 3.00

  58  0.250  0.875  0.500- 172 1.98 173 1.98 192 1.98 193 1.98 195 2.02 114 2.02  48 3.00  68 3.00

  59  0.500  0.000  0.500- 194 1.98 195 1.98 214 1.98 215 1.98 189 2.02 196 2.04  49 3.00  69 3.00

  60  0.509  0.874  0.604- 199 1.88 176 1.91 196 1.92 177 2.04 197 2.07 198 2.13  50 3.01  70 3.01

  61  0.257  0.000  0.612- 200 1.89 218 1.93 198 1.93 139 2.07 119 2.07 193 2.17  71 3.00  51 3.00

  62  0.251  0.875  0.722- 201 1.85 181 1.85 203 2.06 122 2.08 200 2.13 180 2.13  52 2.99  72 2.99

  63  0.499  1.000  0.709- 197 1.83 203 1.96 223 1.96 222 1.98 202 1.98  73 2.99  53 2.99
  64  0.250  0.125  0.285- 184 1.98 204 1.98 185 1.98 205 1.98 207 2.02 126 2.02  54 3.00  74 3.00

  65  0.500  0.250  0.285- 206 1.98 207 1.98 226 1.98 227 1.98 208 2.02  75 3.00  55 3.00
  66  0.500  0.125  0.393- 188 1.98 208 1.98 189 1.98 209 1.98 210 2.02 211 2.02  56 3.00  76 3.00

  67  0.250  0.250  0.393- 210 1.98 230 1.98 131 1.98 151 1.98 212 2.02 205 2.02  57 3.00  77 3.00

  68  0.250  0.125  0.500- 192 1.98 193 1.98 212 1.98 213 1.98 215 2.02 134 2.02  58 3.00  78 3.00

  69  0.500  0.250  0.500- 214 1.98 215 1.98 234 1.98 235 1.98 209 2.02 216 2.05  59 3.00  79 3.00

  70  0.509  0.126  0.605- 219 1.88 216 1.91 196 1.92 217 2.04 197 2.07 218 2.13  80 3.01  60 3.01

  71  0.257  0.250  0.612- 220 1.89 238 1.93 218 1.93 159 2.07 139 2.07 213 2.16  81 2.99  61 3.00

  72  0.250  0.125  0.722- 221 1.85 201 1.85 223 2.07 142 2.08 220 2.13 200 2.13  62 2.99  82 2.99

  73  0.500  0.250  0.709- 217 1.83 242 1.95 243 1.97 222 1.97 223 1.98  83 2.99  63 2.99
  74  0.250  0.375  0.285- 204 1.98 224 1.98 205 1.98 225 1.98 227 2.02 146 2.02  44 3.00  64 3.00

  75  0.500  0.500  0.285- 166 1.98 167 1.98 226 1.98 227 1.98 228 2.02  65 3.00  45 3.00
  76  0.500  0.375  0.393- 208 1.98 228 1.98 209 1.98 229 1.98 230 2.02 231 2.02  46 3.00  66 3.00

  77  0.250  0.500  0.393- 170 1.98 230 1.98  91 1.98 151 1.98 225 2.02 232 2.02  47 3.00  67 3.00

  78  0.250  0.375  0.500- 212 1.98 213 1.98 232 1.98 233 1.98 235 2.02 154 2.02  48 3.00  68 3.00

  79  0.500  0.500  0.500- 174 1.98 175 1.98 234 1.98 235 1.98 229 2.02 236 2.05  49 3.00  69 3.00

  80  0.510  0.377  0.606- 239 1.87 236 1.92 216 1.95 237 2.03 217 2.04 238 2.13  50 2.95  70 3.01

  81  0.257  0.500  0.612- 240 1.89 238 1.93 178 1.93 159 2.07  99 2.07 233 2.17  71 2.99  51 2.99

  82  0.250  0.375  0.722- 221 1.85 241 1.85 162 2.07 243 2.07 240 2.13 220 2.13  72 2.99  52 3.00

  83  0.500  0.499  0.713- 237 1.91 243 1.96 183 1.97 242 1.99 182 2.00   3 2.30  73 2.99  53 3.01

  84  0.750  0.750  0.243-   4 1.98  14 1.98
  85  0.750  0.750  0.327-   4 1.98  14 1.98   7 2.02
  86  0.098  0.625  0.285-   5 1.98  35 1.98  44 2.02
  87  0.902  0.625  0.285-   5 1.98  35 1.98   4 2.02
  88  0.000  0.750  0.351-   6 1.98  16 1.98   5 2.02
  89  0.000  0.750  0.434-   6 1.98  16 1.98   9 2.02
  90  0.848  0.625  0.393-   7 1.98  37 1.98   6 2.02
  91  0.152  0.625  0.393-  47 1.98  77 1.98   6 2.02
  92  0.750  0.750  0.458-   8 1.98  18 1.98   7 2.02
  93  0.750  0.750  0.542-   8 1.98  18 1.98  11 2.16
  94  0.098  0.625  0.500-   9 1.98  39 1.98  48 2.02
  95  0.902  0.625  0.500-   9 1.98  39 1.98   8 2.02
  96  0.000  0.750  0.566-  20 1.92  10 1.92   9 2.05
  97  1.000  0.750  0.651-  13 1.83  10 2.05  20 2.06
  98  0.849  0.625  0.608-  41 1.93  11 1.93  10 2.12
  99  0.150  0.625  0.608-  10 1.87  51 2.07  81 2.07
 100  0.752  0.751  0.673-  11 1.89  12 2.12  22 2.12
 101  0.749  0.749  0.757-  12 1.85  22 1.85
 102  0.094  0.625  0.721-  43 1.97  13 1.98  52 2.07
 103  0.907  0.625  0.721-  43 1.97  13 1.98  12 2.07
 104  0.750  0.000  0.243-  14 1.98  24 1.98
 105  0.750  0.000  0.327-  14 1.98  24 1.98  17 2.02
 106  0.098  0.875  0.285-   5 1.98  15 1.98  54 2.02
 107  0.902  0.875  0.285-   5 1.98  15 1.98  14 2.02
 108  0.000  0.000  0.351-  16 1.98  26 1.98  15 2.02
 109  0.000  0.000  0.434-  16 1.98  26 1.98  19 2.02
 110  0.848  0.875  0.393-   7 1.98  17 1.98  16 2.02
 111  0.152  0.875  0.393-  47 1.98  57 1.98  16 2.02
 112  0.750  0.000  0.458-  18 1.98  28 1.98  17 2.02
 113  0.750  0.000  0.542-  18 1.98  28 1.98  21 2.16
 114  0.098  0.875  0.500-   9 1.98  19 1.98  58 2.02
 115  0.902  0.875  0.500-   9 1.98  19 1.98  18 2.02
 116  0.000  0.000  0.566-  20 1.92  30 1.92  19 2.05
 117  0.000  0.000  0.651-  23 1.83  20 2.05  30 2.05
 118  0.849  0.875  0.608-  11 1.93  21 1.93  20 2.12
 119  0.150  0.875  0.608-  20 1.87  61 2.07  51 2.07
 120  0.751  0.000  0.673-  21 1.89  32 2.12  22 2.13
 121  0.750  1.000  0.758-  32 1.85  22 1.85
 122  0.094  0.875  0.721-  13 1.97  23 1.98  62 2.08
 123  0.906  0.875  0.721-  13 1.97  23 1.97  22 2.08
 124  0.750  0.250  0.243-  24 1.98  34 1.98
 125  0.750  0.250  0.327-  24 1.98  34 1.98  27 2.02
 126  0.098  0.125  0.285-  15 1.98  25 1.98  64 2.02
 127  0.902  0.125  0.285-  15 1.98  25 1.98  24 2.02
 128  0.000  0.250  0.351-  26 1.98  36 1.98  25 2.02
 129  0.000  0.250  0.434-  26 1.98  36 1.98  29 2.02
 130  0.848  0.125  0.393-  17 1.98  27 1.98  26 2.02
 131  0.152  0.125  0.393-  57 1.98  67 1.98  26 2.02
 132  0.750  0.250  0.458-  28 1.98  38 1.98  27 2.02
 133  0.750  0.250  0.542-  28 1.98  38 1.98  31 2.16
 134  0.098  0.125  0.500-  19 1.98  29 1.98  68 2.02
 135  0.902  0.125  0.500-  19 1.98  29 1.98  28 2.02
 136  0.000  0.250  0.566-  40 1.92  30 1.92  29 2.05
 137  0.000  0.250  0.651-  33 1.83  40 2.05  30 2.06
 138  0.849  0.125  0.608-  31 1.93  21 1.93  30 2.12
 139  0.150  0.125  0.608-  30 1.87  61 2.07  71 2.07
 140  0.752  0.250  0.673-  31 1.89  42 2.11  32 2.14
 141  0.749  0.250  0.757-  42 1.85  32 1.86
 142  0.094  0.125  0.721-  33 1.97  23 1.98  72 2.08
 143  0.906  0.125  0.721-  33 1.97  23 1.97  32 2.08
 144  0.750  0.500  0.243-   4 1.98  34 1.98
 145  0.750  0.500  0.327-   4 1.98  34 1.98  37 2.02
 146  0.098  0.375  0.285-  25 1.98  35 1.98  74 2.02
 147  0.902  0.375  0.285-  25 1.98  35 1.98  34 2.02
 148  0.000  0.500  0.351-   6 1.98  36 1.98  35 2.02
 149  0.000  0.500  0.434-   6 1.98  36 1.98  39 2.02
 150  0.848  0.375  0.393-  27 1.98  37 1.98  36 2.02
 151  0.152  0.375  0.393-  67 1.98  77 1.98  36 2.02
 152  0.750  0.500  0.458-   8 1.98  38 1.98  37 2.02
 153  0.750  0.500  0.542-   8 1.98  38 1.98  41 2.16
 154  0.098  0.375  0.500-  29 1.98  39 1.98  78 2.02
 155  0.902  0.375  0.500-  29 1.98  39 1.98  38 2.02
 156  0.000  0.500  0.566-  40 1.92  10 1.92  39 2.05
 157  0.000  0.500  0.651-  43 1.83  10 2.05  40 2.05
 158  0.849  0.375  0.608-  31 1.93  41 1.93  40 2.12
 159  0.150  0.375  0.608-  40 1.87  81 2.07  71 2.07
 160  0.754  0.500  0.673-  41 1.89  12 2.12  42 2.13
 161  0.743  0.500  0.757-  12 1.87  42 1.87
 162  0.094  0.375  0.721-  43 1.97  33 1.98  82 2.07
 163  0.906  0.375  0.721-  43 1.98  33 1.98  42 2.06
 164  0.250  0.750  0.243-  44 1.98  54 1.98
 165  0.250  0.750  0.327-  44 1.98  54 1.98  47 2.02
 166  0.598  0.625  0.285-  45 1.98  75 1.98   4 2.02
 167  0.402  0.625  0.285-  45 1.98  75 1.98  44 2.02
 168  0.500  0.750  0.351-  46 1.98  56 1.98  45 2.02
 169  0.500  0.750  0.434-  46 1.98  56 1.98  49 2.02
 170  0.348  0.625  0.393-  47 1.98  77 1.98  46 2.02
 171  0.652  0.625  0.393-   7 1.98  37 1.98  46 2.02
 172  0.250  0.750  0.458-  48 1.98  58 1.98  47 2.02
 173  0.250  0.750  0.542-  48 1.98  58 1.98  51 2.16
 174  0.598  0.625  0.500-  49 1.98  79 1.98   8 2.02
 175  0.402  0.625  0.500-  49 1.98  79 1.98  48 2.02
 176  0.501  0.749  0.566-  60 1.91  50 1.95  49 2.04
 177  0.499  0.751  0.650-  53 1.83  60 2.04  50 2.04
 178  0.349  0.625  0.608-  51 1.93  81 1.93  50 2.13
 179  0.651  0.625  0.609-  50 1.87  11 2.06  41 2.06
 180  0.251  0.750  0.673-  51 1.89  52 2.12  62 2.13
 181  0.250  0.750  0.758-  52 1.85  62 1.85
 182  0.596  0.628  0.718-  53 1.94  83 2.00  12 2.06
 183  0.407  0.626  0.721-  83 1.97  53 1.97  52 2.08
 184  0.250  0.000  0.243-  54 1.98  64 1.98
 185  0.250  0.000  0.327-  54 1.98  64 1.98  57 2.02
 186  0.598  0.875  0.285-  45 1.98  55 1.98  14 2.02
 187  0.402  0.875  0.285-  45 1.98  55 1.98  54 2.02
 188  0.500  0.000  0.351-  56 1.98  66 1.98  55 2.02
 189  0.500  0.000  0.434-  56 1.98  66 1.98  59 2.02
 190  0.348  0.875  0.393-  47 1.98  57 1.98  56 2.02
 191  0.652  0.875  0.393-   7 1.98  17 1.98  56 2.02
 192  0.250  0.000  0.458-  58 1.98  68 1.98  57 2.02
 193  0.250  0.000  0.542-  58 1.98  68 1.98  61 2.17
 194  0.598  0.875  0.500-  49 1.98  59 1.98  18 2.02
 195  0.402  0.875  0.500-  49 1.98  59 1.98  58 2.02
 196  0.500  0.000  0.566-  60 1.92  70 1.92  59 2.04
 197  0.500  1.000  0.650-  63 1.83  60 2.07  70 2.07
 198  0.349  0.875  0.608-  61 1.93  51 1.93  60 2.13
 199  0.651  0.875  0.608-  60 1.88  21 2.06  11 2.06
 200  0.250  1.000  0.673-  61 1.89  62 2.13  72 2.13
 201  0.250  0.000  0.758-  62 1.85  72 1.85
 202  0.594  0.875  0.720-  53 1.97  63 1.98  22 2.06
 203  0.406  0.876  0.721-  63 1.96  53 1.99  62 2.06
 204  0.250  0.250  0.243-  64 1.98  74 1.98
 205  0.250  0.250  0.327-  64 1.98  74 1.98  67 2.02
 206  0.598  0.125  0.285-  55 1.98  65 1.98  24 2.02
 207  0.402  0.125  0.285-  55 1.98  65 1.98  64 2.02
 208  0.500  0.250  0.351-  66 1.98  76 1.98  65 2.02
 209  0.500  0.250  0.434-  66 1.98  76 1.98  69 2.02
 210  0.348  0.125  0.393-  57 1.98  67 1.98  66 2.02
 211  0.652  0.125  0.393-  17 1.98  27 1.98  66 2.02
 212  0.250  0.250  0.458-  68 1.98  78 1.98  67 2.02
 213  0.250  0.250  0.542-  68 1.98  78 1.98  71 2.16
 214  0.598  0.125  0.500-  59 1.98  69 1.98  28 2.02
 215  0.402  0.125  0.500-  59 1.98  69 1.98  68 2.02
 216  0.501  0.251  0.566-  70 1.91  80 1.95  69 2.05
 217  0.500  0.249  0.650-  73 1.83  70 2.04  80 2.04
 218  0.349  0.125  0.608-  61 1.93  71 1.93  70 2.13
 219  0.651  0.125  0.608-  70 1.88  21 2.06  31 2.06
 220  0.250  0.250  0.673-  71 1.89  72 2.13  82 2.13
 221  0.250  0.250  0.757-  82 1.85  72 1.85
 222  0.594  0.125  0.720-  73 1.97  63 1.98  32 2.06
 223  0.406  0.124  0.720-  63 1.96  73 1.98  72 2.07
 224  0.250  0.500  0.243-  44 1.98  74 1.98
 225  0.250  0.500  0.327-  44 1.98  74 1.98  77 2.02
 226  0.598  0.375  0.285-  65 1.98  75 1.98  34 2.02
 227  0.402  0.375  0.285-  65 1.98  75 1.98  74 2.02
 228  0.500  0.500  0.351-  46 1.98  76 1.98  75 2.02
 229  0.500  0.500  0.434-  46 1.98  76 1.98  79 2.02
 230  0.348  0.375  0.393-  67 1.98  77 1.98  76 2.02
 231  0.652  0.375  0.393-  27 1.98  37 1.98  76 2.02
 232  0.250  0.500  0.458-  48 1.98  78 1.98  77 2.02
 233  0.250  0.500  0.542-  48 1.98  78 1.98  81 2.17
 234  0.598  0.375  0.500-  69 1.98  79 1.98  38 2.02
 235  0.402  0.375  0.500-  69 1.98  79 1.98  78 2.02
 236  0.501  0.500  0.567-  50 1.92  80 1.92  79 2.05
 237  0.500  0.500  0.651-  83 1.91  50 2.03  80 2.03
 238  0.349  0.375  0.609-  71 1.93  81 1.93  80 2.13
 239  0.651  0.375  0.609-  80 1.87  31 2.06  41 2.06
 240  0.250  0.500  0.673-  81 1.89  52 2.13  82 2.13
 241  0.252  0.500  0.757-  82 1.85  52 1.86
 242  0.595  0.372  0.718-  73 1.95  83 1.99  42 2.06
 243  0.406  0.374  0.719-  83 1.96  73 1.97  82 2.07


IMPORTANT INFORMATION: All symmetrisations will be switched off!
NOSYMM: (Re-)initialisation of all symmetry stuff for point group C_1.


----------------------------------------------------------------------------------------

                                     Primitive cell                                     

  volume of cell :    4896.0359

  direct lattice vectors                    reciprocal lattice vectors
    13.251808214  0.000000000  0.000000000     0.075461400  0.000000000  0.000000000
     0.000000000 11.981455428  0.000000000     0.000000000  0.083462314  0.000000000
     0.000000000  0.000000000 30.836130416     0.000000000  0.000000000  0.032429491

  length of vectors
    13.251808214 11.981455428 30.836130416     0.075461400  0.083462314  0.032429491

  position of ions in fractional coordinates (direct lattice)
     0.485535181  0.542094287  0.805861096
     0.594596928  0.499875298  0.793223727
     0.522363865  0.490926674  0.787122229
     0.750000000  0.625000000  0.285125305
     0.000000000  0.750000000  0.285125305
     0.000000000  0.625000000  0.392562653
     0.750000000  0.750000000  0.392562653
     0.750000000  0.625000000  0.500000000
     0.000000000  0.750000000  0.500000000
     0.009321705  0.625107090  0.605227828
     0.757405639  0.750243900  0.611806379
     0.750678543  0.625257078  0.721587341
     0.999987207  0.750424250  0.710115072
     0.750000000  0.875000000  0.285125305
     0.000000000  0.000000000  0.285125305
     0.000000000  0.875000000  0.392562653
     0.750000000  0.000000000  0.392562653
     0.750000000  0.875000000  0.500000000
     0.000000000  0.000000000  0.500000000
     0.009386169  0.875071513  0.605272489
     0.756908956  0.000074119  0.612044865
     0.749294005  0.874783227  0.722267443
     0.999708336  0.999993447  0.710097529
     0.750000000  0.125000000  0.285125305
     0.000000000  0.250000000  0.285125305
     0.000000000  0.125000000  0.392562653
     0.750000000  0.250000000  0.392562653
     0.750000000  0.125000000  0.500000000
     0.000000000  0.250000000  0.500000000
     0.009364154  0.124953340  0.605266198
     0.757370566  0.249908022  0.611839565
     0.749090459  0.124375579  0.722279948
     0.999980389  0.249578965  0.710106699
     0.750000000  0.375000000  0.285125305
     0.000000000  0.500000000  0.285125305
     0.000000000  0.375000000  0.392562653
     0.750000000  0.500000000  0.392562653
     0.750000000  0.375000000  0.500000000
     0.000000000  0.500000000  0.500000000
     0.009204751  0.374999885  0.605224464
     0.757752634  0.500109149  0.611906878
     0.751017355  0.373992550  0.721690543
     0.000391843  0.500083205  0.710056432
     0.250000000  0.625000000  0.285125305
     0.500000000  0.750000000  0.285125305
     0.500000000  0.625000000  0.392562653
     0.250000000  0.750000000  0.392562653
     0.250000000  0.625000000  0.500000000
     0.500000000  0.750000000  0.500000000
     0.509588352  0.623163056  0.606293249
     0.257395568  0.749901768  0.611977983
     0.249843566  0.625385849  0.722150872
     0.500811712  0.750054604  0.709118763
     0.250000000  0.875000000  0.285125305
     0.500000000  0.000000000  0.285125305
     0.500000000  0.875000000  0.392562653
     0.250000000  0.000000000  0.392562653
     0.250000000  0.875000000  0.500000000
     0.500000000  0.000000000  0.500000000
     0.509268661  0.874216367  0.604450905
     0.257287090  0.000018880  0.612057909
     0.250577785  0.875204034  0.722319858
     0.499061457  0.999957200  0.709331678
     0.250000000  0.125000000  0.285125305
     0.500000000  0.250000000  0.285125305
     0.500000000  0.125000000  0.392562653
     0.250000000  0.250000000  0.392562653
     0.250000000  0.125000000  0.500000000
     0.500000000  0.250000000  0.500000000
     0.509298424  0.125850169  0.604530481
     0.257215560  0.250062186  0.612018235
     0.250354702  0.125097333  0.722285267
     0.500459978  0.249779154  0.709307261
     0.250000000  0.375000000  0.285125305
     0.500000000  0.500000000  0.285125305
     0.500000000  0.375000000  0.392562653
     0.250000000  0.500000000  0.392562653
     0.250000000  0.375000000  0.500000000
     0.500000000  0.500000000  0.500000000
     0.509586276  0.376732793  0.606387195
     0.257097486  0.499957773  0.612084658
     0.249809237  0.375003387  0.722166337
     0.500015068  0.499286750  0.713252228
     0.750000000  0.750000000  0.243221179
     0.750000000  0.750000000  0.327029432
     0.097508286  0.625000000  0.285125305
     0.902491714  0.625000000  0.285125305
     0.000000000  0.750000000  0.350658526
     0.000000000  0.750000000  0.434466779
     0.847508286  0.625000000  0.392562653
     0.152491714  0.625000000  0.392562653
     0.750000000  0.750000000  0.458095874
     0.750000000  0.750000000  0.541904126
     0.097508286  0.625000000  0.500000000
     0.902491714  0.625000000  0.500000000
     0.000407371  0.750148880  0.566415304
     0.999966651  0.749950476  0.650684268
     0.849470074  0.625312275  0.608054476
     0.150145096  0.625167007  0.608122731
     0.752279356  0.750621392  0.673106015
     0.749246847  0.749301240  0.757413504
     0.093959461  0.624983198  0.720942453
     0.906535398  0.624588720  0.721426203
     0.750000000  0.000000000  0.243221179
     0.750000000  0.000000000  0.327029432
     0.097508286  0.875000000  0.285125305
     0.902491714  0.875000000  0.285125305
     0.000000000  0.000000000  0.350658526
     0.000000000  0.000000000  0.434466779
     0.847508286  0.875000000  0.392562653
     0.152491714  0.875000000  0.392562653
     0.750000000  0.000000000  0.458095874
     0.750000000  0.000000000  0.541904126
     0.097508286  0.875000000  0.500000000
     0.902491714  0.875000000  0.500000000
     0.000442596  0.000002658  0.566414689
     0.000084264  0.000007303  0.650658772
     0.849193569  0.875352109  0.608249907
     0.150169443  0.874945229  0.608191562
     0.750675561  0.000148796  0.673324266
     0.749980483  0.999808202  0.757580835
     0.093748363  0.874769517  0.720772724
     0.906429490  0.874933245  0.721074553
     0.750000000  0.250000000  0.243221179
     0.750000000  0.250000000  0.327029432
     0.097508286  0.125000000  0.285125305
     0.902491714  0.125000000  0.285125305
     0.000000000  0.250000000  0.350658526
     0.000000000  0.250000000  0.434466779
     0.847508286  0.125000000  0.392562653
     0.152491714  0.125000000  0.392562653
     0.750000000  0.250000000  0.458095874
     0.750000000  0.250000000  0.541904126
     0.097508286  0.125000000  0.500000000
     0.902491714  0.125000000  0.500000000
     0.000396437  0.249955796  0.566428684
     0.000015999  0.250083268  0.650694101
     0.849205848  0.124836406  0.608289513
     0.150113782  0.124903016  0.608132296
     0.752133612  0.249821789  0.673122729
     0.749327342  0.250393760  0.757385018
     0.093656187  0.125182837  0.720857231
     0.906378530  0.125026228  0.721004509
     0.750000000  0.500000000  0.243221179
     0.750000000  0.500000000  0.327029432
     0.097508286  0.375000000  0.285125305
     0.902491714  0.375000000  0.285125305
     0.000000000  0.500000000  0.350658526
     0.000000000  0.500000000  0.434466779
     0.847508286  0.375000000  0.392562653
     0.152491714  0.375000000  0.392562653
     0.750000000  0.500000000  0.458095874
     0.750000000  0.500000000  0.541904126
     0.097508286  0.375000000  0.500000000
     0.902491714  0.375000000  0.500000000
     0.000425582  0.500016081  0.566414491
     0.000047310  0.500076110  0.650649493
     0.849459423  0.374831567  0.608082545
     0.150112954  0.374989738  0.608129963
     0.753675714  0.500209278  0.673029126
     0.743348106  0.499946203  0.757482742
     0.093875831  0.375127337  0.720899334
     0.906470647  0.375429545  0.721435690
     0.250000000  0.750000000  0.243221179
     0.250000000  0.750000000  0.327029432
     0.597508286  0.625000000  0.285125305
     0.402491714  0.625000000  0.285125305
     0.500000000  0.750000000  0.350658526
     0.500000000  0.750000000  0.434466779
     0.347508286  0.625000000  0.392562653
     0.652491714  0.625000000  0.392562653
     0.250000000  0.750000000  0.458095874
     0.250000000  0.750000000  0.541904126
     0.597508286  0.625000000  0.500000000
     0.402491714  0.625000000  0.500000000
     0.500539995  0.749095582  0.566304000
     0.499025947  0.750982802  0.649883117
     0.348765999  0.624938400  0.608378717
     0.650813325  0.625016790  0.608510106
     0.250769789  0.749763197  0.673229634
     0.250315898  0.749928499  0.757584885
     0.595710232  0.628281038  0.717773509
     0.407113386  0.626089205  0.721117011
     0.250000000  0.000000000  0.243221179
     0.250000000  0.000000000  0.327029432
     0.597508286  0.875000000  0.285125305
     0.402491714  0.875000000  0.285125305
     0.500000000  0.000000000  0.350658526
     0.500000000  0.000000000  0.434466779
     0.347508286  0.875000000  0.392562653
     0.652491714  0.875000000  0.392562653
     0.250000000  0.000000000  0.458095874
     0.250000000  0.000000000  0.541904126
     0.597508286  0.875000000  0.500000000
     0.402491714  0.875000000  0.500000000
     0.500244887  0.000012517  0.566019286
     0.500048262  0.999938998  0.650094703
     0.348901400  0.875060595  0.608166223
     0.650577402  0.874959075  0.608042050
     0.250370779  0.999879122  0.673193254
     0.249762550  0.000051593  0.757545757
     0.593915785  0.875003440  0.720451682
     0.406269233  0.875532212  0.720609663
     0.250000000  0.250000000  0.243221179
     0.250000000  0.250000000  0.327029432
     0.597508286  0.125000000  0.285125305
     0.402491714  0.125000000  0.285125305
     0.500000000  0.250000000  0.350658526
     0.500000000  0.250000000  0.434466779
     0.347508286  0.125000000  0.392562653
     0.652491714  0.125000000  0.392562653
     0.250000000  0.250000000  0.458095874
     0.250000000  0.250000000  0.541904126
     0.597508286  0.125000000  0.500000000
     0.402491714  0.125000000  0.500000000
     0.500530238  0.250994483  0.566368686
     0.499582828  0.248715397  0.649993568
     0.348915671  0.124941551  0.608214385
     0.650632005  0.125105482  0.608019455
     0.249913243  0.249715809  0.673145924
     0.250418197  0.250239612  0.757472779
     0.593900622  0.124623780  0.720466616
     0.406165198  0.124423750  0.720491709
     0.250000000  0.500000000  0.243221179
     0.250000000  0.500000000  0.327029432
     0.597508286  0.375000000  0.285125305
     0.402491714  0.375000000  0.285125305
     0.500000000  0.500000000  0.350658526
     0.500000000  0.500000000  0.434466779
     0.347508286  0.375000000  0.392562653
     0.652491714  0.375000000  0.392562653
     0.250000000  0.500000000  0.458095874
     0.250000000  0.500000000  0.541904126
     0.597508286  0.375000000  0.500000000
     0.402491714  0.375000000  0.500000000
     0.500605133  0.499872990  0.566632461
     0.500012525  0.500295944  0.651278363
     0.348752223  0.374992323  0.608537912
     0.650781974  0.375165822  0.608545613
     0.249937664  0.500302642  0.673199506
     0.251914013  0.500056756  0.757473692
     0.595491359  0.372135151  0.717759068
     0.406162744  0.373649349  0.719450649

  ion indices of the primitive-cell ions
   primitive index   ion index
                 1           1
                 2           2
                 3           3
                 4           4
                 5           5
                 6           6
                 7           7
                 8           8
                 9           9
                10          10
                11          11
                12          12
                13          13
                14          14
                15          15
                16          16
                17          17
                18          18
                19          19
                20          20
                21          21
                22          22
                23          23
                24          24
                25          25
                26          26
                27          27
                28          28
                29          29
                30          30
                31          31
                32          32
                33          33
                34          34
                35          35
                36          36
                37          37
                38          38
                39          39
                40          40
                41          41
                42          42
                43          43
                44          44
                45          45
                46          46
                47          47
                48          48
                49          49
                50          50
                51          51
                52          52
                53          53
                54          54
                55          55
                56          56
                57          57
                58          58
                59          59
                60          60
                61          61
                62          62
                63          63
                64          64
                65          65
                66          66
                67          67
                68          68
                69          69
                70          70
                71          71
                72          72
                73          73
                74          74
                75          75
                76          76
                77          77
                78          78
                79          79
                80          80
                81          81
                82          82
                83          83
                84          84
                85          85
                86          86
                87          87
                88          88
                89          89
                90          90
                91          91
                92          92
                93          93
                94          94
                95          95
                96          96
                97          97
                98          98
                99          99
               100         100
               101         101
               102         102
               103         103
               104         104
               105         105
               106         106
               107         107
               108         108
               109         109
               110         110
               111         111
               112         112
               113         113
               114         114
               115         115
               116         116
               117         117
               118         118
               119         119
               120         120
               121         121
               122         122
               123         123
               124         124
               125         125
               126         126
               127         127
               128         128
               129         129
               130         130
               131         131
               132         132
               133         133
               134         134
               135         135
               136         136
               137         137
               138         138
               139         139
               140         140
               141         141
               142         142
               143         143
               144         144
               145         145
               146         146
               147         147
               148         148
               149         149
               150         150
               151         151
               152         152
               153         153
               154         154
               155         155
               156         156
               157         157
               158         158
               159         159
               160         160
               161         161
               162         162
               163         163
               164         164
               165         165
               166         166
               167         167
               168         168
               169         169
               170         170
               171         171
               172         172
               173         173
               174         174
               175         175
               176         176
               177         177
               178         178
               179         179
               180         180
               181         181
               182         182
               183         183
               184         184
               185         185
               186         186
               187         187
               188         188
               189         189
               190         190
               191         191
               192         192
               193         193
               194         194
               195         195
               196         196
               197         197
               198         198
               199         199
               200         200
               201         201
               202         202
               203         203
               204         204
               205         205
               206         206
               207         207
               208         208
               209         209
               210         210
               211         211
               212         212
               213         213
               214         214
               215         215
               216         216
               217         217
               218         218
               219         219
               220         220
               221         221
               222         222
               223         223
               224         224
               225         225
               226         226
               227         227
               228         228
               229         229
               230         230
               231         231
               232         232
               233         233
               234         234
               235         235
               236         236
               237         237
               238         238
               239         239
               240         240
               241         241
               242         242
               243         243

----------------------------------------------------------------------------------------



 KPOINTS: pymatgen v2020.8.13 with grid density = 

Automatic generation of k-mesh.
 Grid dimensions read from file:
 generate k-points for:    2    2    1

 Generating k-lattice:

  Cartesian coordinates                     Fractional coordinates (reciprocal lattice)
     0.037730700  0.000000000  0.000000000     0.500000000  0.000000000  0.000000000
     0.000000000  0.041731157  0.000000000     0.000000000  0.500000000  0.000000000
     0.000000000  0.000000000  0.032429491     0.000000000  0.000000000  1.000000000

  Length of vectors
     0.037730700  0.041731157  0.032429491

  Shift w.r.t. Gamma in fractional coordinates (k-lattice)
     0.000000000  0.000000000  0.000000000

 
 Subroutine IBZKPT returns following result:
 ===========================================
 
 Found      4 irreducible k-points:
 
 Following reciprocal coordinates:
            Coordinates               Weight
  0.000000  0.000000  0.000000      1.000000
  0.500000  0.000000  0.000000      1.000000
  0.000000  0.500000  0.000000      1.000000
  0.500000  0.500000  0.000000      1.000000
 
 Following cartesian coordinates:
            Coordinates               Weight
  0.000000  0.000000  0.000000      1.000000
  0.037731  0.000000  0.000000      1.000000
  0.000000  0.041731  0.000000      1.000000
  0.037731  0.041731  0.000000      1.000000
 


--------------------------------------------------------------------------------------------------------




 Dimension of arrays:
   k-points           NKPTS =      4   k-points in BZ     NKDIM =      4   number of bands    NBANDS=   1088
   number of dos      NEDOS =    301   number of ions     NIONS =    243
   non local maximal  LDIM  =      6   non local SUM 2l+1 LMDIM =     18
   total plane-waves  NPLWV = ******
   max r-space proj   IRMAX =      1   max aug-charges    IRDMAX=  20751
   dimension x,y,z NGX =   108 NGY =   96 NGZ =  250
   dimension x,y,z NGXF=   216 NGYF=  192 NGZF=  500
   support grid    NGXF=   216 NGYF=  192 NGZF=  500
   ions per type =               2   1  80 160
   NGX,Y,Z   is equivalent  to a cutoff of  13.55, 13.32, 13.48 a.u.
   NGXF,Y,Z  is equivalent  to a cutoff of  27.10, 26.64, 26.96 a.u.

 SYSTEM =  TiO2                                    
 POSCAR =   H  O Ti  O                             

--------------------------------------------------------------------------------------------------------


  energy-cutoff  :      600.00
  volume of cell :     4896.04
      direct lattice vectors                 reciprocal lattice vectors
    13.251808214  0.000000000  0.000000000     0.075461400  0.000000000  0.000000000
     0.000000000 11.981455428  0.000000000     0.000000000  0.083462314  0.000000000
     0.000000000  0.000000000 30.836130416     0.000000000  0.000000000  0.032429491

  length of vectors
    13.251808214 11.981455428 30.836130416     0.075461400  0.083462314  0.032429491



 k-points in units of 2pi/SCALE and weight: pymatgen v2020.8.13 with grid density = 
   0.00000000  0.00000000  0.00000000       0.250
   0.03773070  0.00000000  0.00000000       0.250
   0.00000000  0.04173116  0.00000000       0.250
   0.03773070  0.04173116  0.00000000       0.250

 k-points in reciprocal lattice and weights: pymatgen v2020.8.13 with grid density = 
   0.00000000  0.00000000  0.00000000       0.250
   0.50000000  0.00000000  0.00000000       0.250
   0.00000000  0.50000000  0.00000000       0.250
   0.50000000  0.50000000  0.00000000       0.250

 position of ions in fractional coordinates (direct lattice) 
   0.48553518  0.54209429  0.80586110
   0.59459693  0.49987530  0.79322373
   0.52236386  0.49092667  0.78712223
   0.75000000  0.62500000  0.28512531
   0.00000000  0.75000000  0.28512531
   0.00000000  0.62500000  0.39256265
   0.75000000  0.75000000  0.39256265
   0.75000000  0.62500000  0.50000000
   0.00000000  0.75000000  0.50000000
   0.00932170  0.62510709  0.60522783
   0.75740564  0.75024390  0.61180638
   0.75067854  0.62525708  0.72158734
   0.99998721  0.75042425  0.71011507
   0.75000000  0.87500000  0.28512531
   0.00000000  0.00000000  0.28512531
   0.00000000  0.87500000  0.39256265
   0.75000000  0.00000000  0.39256265
   0.75000000  0.87500000  0.50000000
   0.00000000  0.00000000  0.50000000
   0.00938617  0.87507151  0.60527249
   0.75690896  0.00007412  0.61204487
   0.74929401  0.87478323  0.72226744
   0.99970834  0.99999345  0.71009753
   0.75000000  0.12500000  0.28512531
   0.00000000  0.25000000  0.28512531
   0.00000000  0.12500000  0.39256265
   0.75000000  0.25000000  0.39256265
   0.75000000  0.12500000  0.50000000
   0.00000000  0.25000000  0.50000000
   0.00936415  0.12495334  0.60526620
   0.75737057  0.24990802  0.61183956
   0.74909046  0.12437558  0.72227995
   0.99998039  0.24957897  0.71010670
   0.75000000  0.37500000  0.28512531
   0.00000000  0.50000000  0.28512531
   0.00000000  0.37500000  0.39256265
   0.75000000  0.50000000  0.39256265
   0.75000000  0.37500000  0.50000000
   0.00000000  0.50000000  0.50000000
   0.00920475  0.37499989  0.60522446
   0.75775263  0.50010915  0.61190688
   0.75101735  0.37399255  0.72169054
   0.00039184  0.50008320  0.71005643
   0.25000000  0.62500000  0.28512531
   0.50000000  0.75000000  0.28512531
   0.50000000  0.62500000  0.39256265
   0.25000000  0.75000000  0.39256265
   0.25000000  0.62500000  0.50000000
   0.50000000  0.75000000  0.50000000
   0.50958835  0.62316306  0.60629325
   0.25739557  0.74990177  0.61197798
   0.24984357  0.62538585  0.72215087
   0.50081171  0.75005460  0.70911876
   0.25000000  0.87500000  0.28512531
   0.50000000  0.00000000  0.28512531
   0.50000000  0.87500000  0.39256265
   0.25000000  0.00000000  0.39256265
   0.25000000  0.87500000  0.50000000
   0.50000000  0.00000000  0.50000000
   0.50926866  0.87421637  0.60445090
   0.25728709  0.00001888  0.61205791
   0.25057778  0.87520403  0.72231986
   0.49906146  0.99995720  0.70933168
   0.25000000  0.12500000  0.28512531
   0.50000000  0.25000000  0.28512531
   0.50000000  0.12500000  0.39256265
   0.25000000  0.25000000  0.39256265
   0.25000000  0.12500000  0.50000000
   0.50000000  0.25000000  0.50000000
   0.50929842  0.12585017  0.60453048
   0.25721556  0.25006219  0.61201824
   0.25035470  0.12509733  0.72228527
   0.50045998  0.24977915  0.70930726
   0.25000000  0.37500000  0.28512531
   0.50000000  0.50000000  0.28512531
   0.50000000  0.37500000  0.39256265
   0.25000000  0.50000000  0.39256265
   0.25000000  0.37500000  0.50000000
   0.50000000  0.50000000  0.50000000
   0.50958628  0.37673279  0.60638720
   0.25709749  0.49995777  0.61208466
   0.24980924  0.37500339  0.72216634
   0.50001507  0.49928675  0.71325223
   0.75000000  0.75000000  0.24322118
   0.75000000  0.75000000  0.32702943
   0.09750829  0.62500000  0.28512531
   0.90249171  0.62500000  0.28512531
   0.00000000  0.75000000  0.35065853
   0.00000000  0.75000000  0.43446678
   0.84750829  0.62500000  0.39256265
   0.15249171  0.62500000  0.39256265
   0.75000000  0.75000000  0.45809587
   0.75000000  0.75000000  0.54190413
   0.09750829  0.62500000  0.50000000
   0.90249171  0.62500000  0.50000000
   0.00040737  0.75014888  0.56641530
   0.99996665  0.74995048  0.65068427
   0.84947007  0.62531228  0.60805448
   0.15014510  0.62516701  0.60812273
   0.75227936  0.75062139  0.67310601
   0.74924685  0.74930124  0.75741350
   0.09395946  0.62498320  0.72094245
   0.90653540  0.62458872  0.72142620
   0.75000000  0.00000000  0.24322118
   0.75000000  0.00000000  0.32702943
   0.09750829  0.87500000  0.28512531
   0.90249171  0.87500000  0.28512531
   0.00000000  0.00000000  0.35065853
   0.00000000  0.00000000  0.43446678
   0.84750829  0.87500000  0.39256265
   0.15249171  0.87500000  0.39256265
   0.75000000  0.00000000  0.45809587
   0.75000000  0.00000000  0.54190413
   0.09750829  0.87500000  0.50000000
   0.90249171  0.87500000  0.50000000
   0.00044260  0.00000266  0.56641469
   0.00008426  0.00000730  0.65065877
   0.84919357  0.87535211  0.60824991
   0.15016944  0.87494523  0.60819156
   0.75067556  0.00014880  0.67332427
   0.74998048  0.99980820  0.75758084
   0.09374836  0.87476952  0.72077272
   0.90642949  0.87493324  0.72107455
   0.75000000  0.25000000  0.24322118
   0.75000000  0.25000000  0.32702943
   0.09750829  0.12500000  0.28512531
   0.90249171  0.12500000  0.28512531
   0.00000000  0.25000000  0.35065853
   0.00000000  0.25000000  0.43446678
   0.84750829  0.12500000  0.39256265
   0.15249171  0.12500000  0.39256265
   0.75000000  0.25000000  0.45809587
   0.75000000  0.25000000  0.54190413
   0.09750829  0.12500000  0.50000000
   0.90249171  0.12500000  0.50000000
   0.00039644  0.24995580  0.56642868
   0.00001600  0.25008327  0.65069410
   0.84920585  0.12483641  0.60828951
   0.15011378  0.12490302  0.60813230
   0.75213361  0.24982179  0.67312273
   0.74932734  0.25039376  0.75738502
   0.09365619  0.12518284  0.72085723
   0.90637853  0.12502623  0.72100451
   0.75000000  0.50000000  0.24322118
   0.75000000  0.50000000  0.32702943
   0.09750829  0.37500000  0.28512531
   0.90249171  0.37500000  0.28512531
   0.00000000  0.50000000  0.35065853
   0.00000000  0.50000000  0.43446678
   0.84750829  0.37500000  0.39256265
   0.15249171  0.37500000  0.39256265
   0.75000000  0.50000000  0.45809587
   0.75000000  0.50000000  0.54190413
   0.09750829  0.37500000  0.50000000
   0.90249171  0.37500000  0.50000000
   0.00042558  0.50001608  0.56641449
   0.00004731  0.50007611  0.65064949
   0.84945942  0.37483157  0.60808254
   0.15011295  0.37498974  0.60812996
   0.75367571  0.50020928  0.67302913
   0.74334811  0.49994620  0.75748274
   0.09387583  0.37512734  0.72089933
   0.90647065  0.37542954  0.72143569
   0.25000000  0.75000000  0.24322118
   0.25000000  0.75000000  0.32702943
   0.59750829  0.62500000  0.28512531
   0.40249171  0.62500000  0.28512531
   0.50000000  0.75000000  0.35065853
   0.50000000  0.75000000  0.43446678
   0.34750829  0.62500000  0.39256265
   0.65249171  0.62500000  0.39256265
   0.25000000  0.75000000  0.45809587
   0.25000000  0.75000000  0.54190413
   0.59750829  0.62500000  0.50000000
   0.40249171  0.62500000  0.50000000
   0.50053999  0.74909558  0.56630400
   0.49902595  0.75098280  0.64988312
   0.34876600  0.62493840  0.60837872
   0.65081332  0.62501679  0.60851011
   0.25076979  0.74976320  0.67322963
   0.25031590  0.74992850  0.75758489
   0.59571023  0.62828104  0.71777351
   0.40711339  0.62608921  0.72111701
   0.25000000  0.00000000  0.24322118
   0.25000000  0.00000000  0.32702943
   0.59750829  0.87500000  0.28512531
   0.40249171  0.87500000  0.28512531
   0.50000000  0.00000000  0.35065853
   0.50000000  0.00000000  0.43446678
   0.34750829  0.87500000  0.39256265
   0.65249171  0.87500000  0.39256265
   0.25000000  0.00000000  0.45809587
   0.25000000  0.00000000  0.54190413
   0.59750829  0.87500000  0.50000000
   0.40249171  0.87500000  0.50000000
   0.50024489  0.00001252  0.56601929
   0.50004826  0.99993900  0.65009470
   0.34890140  0.87506060  0.60816622
   0.65057740  0.87495907  0.60804205
   0.25037078  0.99987912  0.67319325
   0.24976255  0.00005159  0.75754576
   0.59391579  0.87500344  0.72045168
   0.40626923  0.87553221  0.72060966
   0.25000000  0.25000000  0.24322118
   0.25000000  0.25000000  0.32702943
   0.59750829  0.12500000  0.28512531
   0.40249171  0.12500000  0.28512531
   0.50000000  0.25000000  0.35065853
   0.50000000  0.25000000  0.43446678
   0.34750829  0.12500000  0.39256265
   0.65249171  0.12500000  0.39256265
   0.25000000  0.25000000  0.45809587
   0.25000000  0.25000000  0.54190413
   0.59750829  0.12500000  0.50000000
   0.40249171  0.12500000  0.50000000
   0.50053024  0.25099448  0.56636869
   0.49958283  0.24871540  0.64999357
   0.34891567  0.12494155  0.60821439
   0.65063201  0.12510548  0.60801946
   0.24991324  0.24971581  0.67314592
   0.25041820  0.25023961  0.75747278
   0.59390062  0.12462378  0.72046662
   0.40616520  0.12442375  0.72049171
   0.25000000  0.50000000  0.24322118
   0.25000000  0.50000000  0.32702943
   0.59750829  0.37500000  0.28512531
   0.40249171  0.37500000  0.28512531
   0.50000000  0.50000000  0.35065853
   0.50000000  0.50000000  0.43446678
   0.34750829  0.37500000  0.39256265
   0.65249171  0.37500000  0.39256265
   0.25000000  0.50000000  0.45809587
   0.25000000  0.50000000  0.54190413
   0.59750829  0.37500000  0.50000000
   0.40249171  0.37500000  0.50000000
   0.50060513  0.49987299  0.56663246
   0.50001253  0.50029594  0.65127836
   0.34875222  0.37499232  0.60853791
   0.65078197  0.37516582  0.60854561
   0.24993766  0.50030264  0.67319951
   0.25191401  0.50005676  0.75747369
   0.59549136  0.37213515  0.71775907
   0.40616274  0.37364935  0.71945065

 position of ions in cartesian coordinates  (Angst):
   6.43421910  6.49507854 24.84963786
   7.87948446  5.98923360 24.45995028
   6.92226575  5.88201606 24.27180370
   9.93885616  7.48840964  8.79216110
   0.00000000  8.98609157  8.79216110
   0.00000000  7.48840964 12.10511315
   9.93885616  8.98609157 12.10511315
   9.93885616  7.48840964 15.41806521
   0.00000000  8.98609157 15.41806521
   0.12352945  7.48969273 18.66288424
  10.03699427  8.98901384 18.86574128
   9.94784808  7.49148982 22.25096134
  13.25163868  8.99117470 21.89720098
   9.93885616 10.48377350  8.79216110
   0.00000000  0.00000000  8.79216110
   0.00000000 10.48377350 12.10511315
   9.93885616  0.00000000 12.10511315
   9.93885616 10.48377350 15.41806521
   0.00000000  0.00000000 15.41806521
   0.12438371 10.48463033 18.66426140
  10.03041232  0.00088806 18.87309529
   9.92950045 10.48117624 22.27193307
  13.24794314 11.98137692 21.89666001
   9.93885616  1.49768193  8.79216110
   0.00000000  2.99536386  8.79216110
   0.00000000  1.49768193 12.10511315
   9.93885616  2.99536386 12.10511315
   9.93885616  1.49768193 15.41806521
   0.00000000  2.99536386 15.41806521
   0.12409197  1.49712287 18.66406743
  10.03652949  2.99426183 18.86676461
   9.92680310  1.49020046 22.27231867
  13.25154834  2.99031925 21.89694279
   9.93885616  4.49304579  8.79216110
   0.00000000  5.99072771  8.79216110
   0.00000000  4.49304579 12.10511315
   9.93885616  5.99072771 12.10511315
   9.93885616  4.49304579 15.41806521
   0.00000000  5.99072771 15.41806521
   0.12197960  4.49304441 18.66278051
  10.04159258  5.99203548 18.86884028
   9.95233795  4.48097507 22.25414372
   0.00519262  5.99172463 21.89539275
   3.31295205  7.48840964  8.79216110
   6.62590411  8.98609157  8.79216110
   6.62590411  7.48840964 12.10511315
   3.31295205  8.98609157 12.10511315
   3.31295205  7.48840964 15.41806521
   6.62590411  8.98609157 15.41806521
   6.75296712  7.46640038 18.69573771
   3.41095671  8.98491461 18.87103289
   3.31087903  7.49303267 22.26833848
   6.63666076  8.98674581 21.86647866
   3.31295205 10.48377350  8.79216110
   6.62590411  0.00000000  8.79216110
   6.62590411 10.48377350 12.10511315
   3.31295205  0.00000000 12.10511315
   3.31295205 10.48377350 15.41806521
   6.62590411  0.00000000 15.41806521
   6.74873062 10.47438444 18.63892692
   3.40951917  0.00022621 18.87349751
   3.32060875 10.48621813 22.27354934
   6.61346671 11.98094263 21.87304413
   3.31295205  1.49768193  8.79216110
   6.62590411  2.99536386  8.79216110
   6.62590411  1.49768193 12.10511315
   3.31295205  2.99536386 12.10511315
   3.31295205  1.49768193 15.41806521
   6.62590411  2.99536386 15.41806521
   6.74912504  1.50786819 18.64138075
   3.40857127  2.99610894 18.87227412
   3.31765249  1.49884812 22.27248269
   6.63199965  2.99271780 21.87229120
   3.31295205  4.49304579  8.79216110
   6.62590411  5.99072771  8.79216110
   6.62590411  4.49304579 12.10511315
   3.31295205  5.99072771 12.10511315
   3.31295205  4.49304579 15.41806521
   6.62590411  5.99072771 15.41806521
   6.75293960  4.51380717 18.69863463
   3.40700657  5.99022177 18.87432233
   3.31042409  4.49308637 22.26881536
   6.62610379  5.98218195 21.99393872
   9.93885616  8.98609157  7.50000000
   9.93885616  8.98609157 10.08432220
   1.29216110  7.48840964  8.79216110
  11.95964711  7.48840964  8.79216110
   0.00000000  8.98609157 10.81295205
   0.00000000  8.98609157 13.39727426
  11.23101726  7.48840964 12.10511315
   2.02079095  7.48840964 12.10511315
   9.93885616  8.98609157 14.12590411
   9.93885616  8.98609157 16.71022631
   1.29216110  7.48840964 15.41806521
  11.95964711  7.48840964 15.41806521
   0.00539840  8.98787537 17.46605619
  13.25136628  8.98549820 20.06458496
  11.25701450  7.49215115 18.75004712
   1.98969401  7.49041063 18.75215184
   9.96906175  8.99353675 20.75598486
   9.92887552  8.97771941 23.35570160
   1.24513276  7.48820833 22.23107549
  12.01323324  7.48348191 22.24599248
   9.93885616  0.00000000  7.50000000
   9.93885616  0.00000000 10.08432220
   1.29216110 10.48377350  8.79216110
  11.95964711 10.48377350  8.79216110
   0.00000000  0.00000000 10.81295205
   0.00000000  0.00000000 13.39727426
  11.23101726 10.48377350 12.10511315
   2.02079095 10.48377350 12.10511315
   9.93885616  0.00000000 14.12590411
   9.93885616  0.00000000 16.71022631
   1.29216110 10.48377350 15.41806521
  11.95964711 10.48377350 15.41806521
   0.00586520  0.00003185 17.46603722
   0.00111665  0.00008750 20.06379876
  11.25335031 10.48799228 18.75607347
   1.99001666 10.48311727 18.75427433
   9.94780857  0.00178280 20.76271489
   9.93859753 11.97915740 23.36086144
   1.24233533 10.48101198 22.22584171
  12.01182976 10.48297367 22.23514897
   9.93885616  2.99536386  7.50000000
   9.93885616  2.99536386 10.08432220
   1.29216110  1.49768193  8.79216110
  11.95964711  1.49768193  8.79216110
   0.00000000  2.99536386 10.81295205
   0.00000000  2.99536386 13.39727426
  11.23101726  1.49768193 12.10511315
   2.02079095  1.49768193 12.10511315
   9.93885616  2.99536386 14.12590411
   9.93885616  2.99536386 16.71022631
   1.29216110  1.49768193 15.41806521
  11.95964711  1.49768193 15.41806521
   0.00525350  2.99483423 17.46646877
   0.00021201  2.99636153 20.06488815
  11.25351303  1.49572183 18.75729476
   1.98927905  1.49651992 18.75244680
   9.96713038  2.99322863 20.75650025
   9.92994223  3.00008167 23.35482318
   1.24111383  1.49987258 22.22844757
  12.01115445  1.49799618 22.23298907
   9.93885616  5.99072771  7.50000000
   9.93885616  5.99072771 10.08432220
   1.29216110  4.49304579  8.79216110
  11.95964711  4.49304579  8.79216110
   0.00000000  5.99072771 10.81295205
   0.00000000  5.99072771 13.39727426
  11.23101726  4.49304579 12.10511315
   2.02079095  4.49304579 12.10511315
   9.93885616  5.99072771 14.12590411
   9.93885616  5.99072771 16.71022631
   1.29216110  4.49304579 15.41806521
  11.95964711  4.49304579 15.41806521
   0.00563973  5.99092039 17.46603112
   0.00062694  5.99163963 20.06351262
  11.25687335  4.49102771 18.75091266
   1.98926808  4.49292284 18.75237485
   9.98756602  5.99323517 20.75361390
   9.85070653  5.99008315 23.35783663
   1.24402451  4.49457146 22.22974589
  12.01237516  4.49819236 22.24628503
   3.31295205  8.98609157  7.50000000
   3.31295205  8.98609157 10.08432220
   7.91806521  7.48840964  8.79216110
   5.33374301  7.48840964  8.79216110
   6.62590411  8.98609157 10.81295205
   6.62590411  8.98609157 13.39727426
   4.60511315  7.48840964 12.10511315
   8.64669506  7.48840964 12.10511315
   3.31295205  8.98609157 14.12590411
   3.31295205  8.98609157 16.71022631
   7.91806521  7.48840964 15.41806521
   5.33374301  7.48840964 15.41806521
   6.63306002  8.97525532 17.46262400
   6.61299614  8.99786696 20.03988056
   4.62178014  7.48767158 18.76004547
   8.62445336  7.48861081 18.76409700
   3.32315315  8.98325433 20.75979678
   3.31713827  8.98523488 23.36098632
   7.89423775  7.52772125 22.13335752
   5.39498851  7.50145991 22.23645820
   3.31295205  0.00000000  7.50000000
   3.31295205  0.00000000 10.08432220
   7.91806521 10.48377350  8.79216110
   5.33374301 10.48377350  8.79216110
   6.62590411  0.00000000 10.81295205
   6.62590411  0.00000000 13.39727426
   4.60511315 10.48377350 12.10511315
   8.64669506 10.48377350 12.10511315
   3.31295205  0.00000000 14.12590411
   3.31295205  0.00000000 16.71022631
   7.91806521 10.48377350 15.41806521
   5.33374301 10.48377350 15.41806521
   6.62914930  0.00014997 17.45384452
   6.62654366 11.98072453 20.04640506
   4.62357443 10.48449952 18.75349295
   8.62132696 10.48328316 18.74966395
   3.31786555 11.98000713 20.75867499
   3.30980541  0.00061816 23.35977976
   7.87045808 10.48381472 22.21594202
   5.38380196 10.49015018 22.22081356
   3.31295205  2.99536386  7.50000000
   3.31295205  2.99536386 10.08432220
   7.91806521  1.49768193  8.79216110
   5.33374301  1.49768193  8.79216110
   6.62590411  2.99536386 10.81295205
   6.62590411  2.99536386 13.39727426
   4.60511315  1.49768193 12.10511315
   8.64669506  1.49768193 12.10511315
   3.31295205  2.99536386 14.12590411
   3.31295205  2.99536386 16.71022631
   7.91806521  1.49768193 15.41806521
   5.33374301  1.49768193 15.41806521
   6.63293072  3.00727921 17.46461866
   6.62037582  2.97997244 20.04328644
   4.62376356  1.49698162 18.75497810
   8.62205055  1.49894576 18.74896722
   3.31180237  2.99195883 20.75721552
   3.31849392  2.99823475 23.35752941
   7.87025714  1.49317426 22.21640255
   5.38242330  1.49077761 22.21717630
   3.31295205  5.99072771  7.50000000
   3.31295205  5.99072771 10.08432220
   7.91806521  4.49304579  8.79216110
   5.33374301  4.49304579  8.79216110
   6.62590411  5.99072771 10.81295205
   6.62590411  5.99072771 13.39727426
   4.60511315  4.49304579 12.10511315
   8.64669506  4.49304579 12.10511315
   3.31295205  5.99072771 14.12590411
   3.31295205  5.99072771 16.71022631
   7.91806521  4.49304579 15.41806521
   5.33374301  4.49304579 15.41806521
   6.63392322  5.98920595 17.47275245
   6.62607009  5.99427355 20.08290453
   4.62159757  4.49295380 18.76495441
   8.62403791  4.49503257 18.76519187
   3.31212599  5.99435381 20.75886775
   3.33831618  5.99140774 23.35755756
   7.89133729  4.45872072 22.13291221
   5.38239079  4.47686302 22.18507404



--------------------------------------------------------------------------------------------------------

--------------------------------------- Iteration      FINAL  ---------------------------------------


--------------------OUTCAR has been truncated-------------------------


--------------------OUTCAR has been truncated-------------------------


[...]
      9.92680      1.49020     22.27232        -0.001758     -0.002345     -0.069446
     13.25155      2.99032     21.89694         0.005415     -0.004977     -0.344871
      9.93886      4.49305      8.79216        -0.001665     -0.000243     -3.185906
      0.00000      5.99073      8.79216         0.000413     -0.000103      3.104473
      0.00000      4.49305     12.10511         0.001644     -0.000113      0.485129
      9.93886      5.99073     12.10511        -0.004461      0.000133     -0.678449
      9.93886      4.49305     15.41807        -0.014255      0.005715      0.641970
      0.00000      5.99073     15.41807        -0.012830     -0.000210     -0.697435
      0.12198      4.49304     18.66278         0.093115     -0.001049     -0.027774
     10.04159      5.99204     18.86884         0.023897      0.000258      0.091322
      9.95234      4.48098     22.25414        -0.021929     -0.018359     -0.065098
      0.00519      5.99172     21.89539         0.003259     -0.000907     -0.341204
      3.31295      7.48841      8.79216         0.001762      0.000040     -3.185136
      6.62590      8.98609      8.79216        -0.000415      0.000355      3.109162
      6.62590      7.48841     12.10511        -0.002349      0.007772      0.500766
      3.31295      8.98609     12.10511         0.005771      0.000652     -0.671838
      3.31295      7.48841     15.41807         0.039825     -0.009290      0.663123
      6.62590      8.98609     15.41807        -0.023052     -0.028257     -0.594263
      6.75297      7.46640     18.69574         0.092869      0.000411     -0.020890
      3.41096      8.98491     18.87103         0.027287     -0.002655      0.081592
      3.31088      7.49303     22.26834        -0.001583     -0.004820     -0.061546
      6.63666      8.98675     21.86648         0.020312     -0.033070     -0.330551
      3.31295     10.48377      8.79216         0.001878      0.000190     -3.184963
      6.62590      0.00000      8.79216        -0.000387      0.000121      3.109496
      6.62590     10.48377     12.10511        -0.002536      0.001412      0.503522
      3.31295      0.00000     12.10511         0.006115     -0.000063     -0.671548
      3.31295     10.48377     15.41807         0.035881      0.008266      0.661719
      6.62590      0.00000     15.41807        -0.027047     -0.000714     -0.716648
      6.74873     10.47438     18.63893         0.096704     -0.010673     -0.025753
      3.40952      0.00023     18.87350         0.023933     -0.002693      0.085990
      3.32061     10.48622     22.27355         0.010763      0.007100     -0.063546
      6.61347     11.98094     21.87304        -0.007526      0.001537     -0.342003
      3.31295      1.49768      8.79216         0.001805     -0.000122     -3.185059
      6.62590      2.99536      8.79216        -0.000432     -0.000303      3.109000
      6.62590      1.49768     12.10511        -0.002572     -0.002832      0.502704
      3.31295      2.99536     12.10511         0.005601     -0.000665     -0.671244
      3.31295      1.49768     15.41807         0.035465     -0.003587      0.665064
      6.62590      2.99536     15.41807        -0.023184      0.030271     -0.592865
      6.74913      1.50787     18.64138         0.094895      0.010601     -0.025648
      3.40857      2.99611     18.87227         0.027323      0.001996      0.089835
      3.31765      1.49885     22.27248         0.009521      0.001545     -0.065911
      6.63200      2.99272     21.87229         0.015951      0.025129     -0.333849
      3.31295      4.49305      8.79216         0.001694     -0.000304     -3.185037
      6.62590      5.99073      8.79216        -0.000437     -0.000067      3.108873
      6.62590      4.49305     12.10511        -0.002372     -0.006375      0.499971
      3.31295      5.99073     12.10511         0.005219      0.000069     -0.671279
      3.31295      4.49305     15.41807         0.039777      0.004571      0.666382
      6.62590      5.99073     15.41807        -0.020721     -0.001500     -0.631211
      6.75294      4.51381     18.69863         0.091884     -0.000981     -0.021025
      3.40701      5.99022     18.87432         0.033513      0.001246      0.090491
      3.31042      4.49309     22.26882         0.000906     -0.000530     -0.062759
      6.62610      5.98218     21.99394         0.002273     -0.004753     -0.145251
      9.93886      8.98609      7.50000         0.000358     -0.000188      2.323672
      9.93886      8.98609     10.08432         0.000550     -0.000222      1.536743
      1.29216      7.48841      8.79216        -1.797957     -0.000053     -0.750310
     11.95965      7.48841      8.79216         1.797190     -0.000071     -0.750212
      0.00000      8.98609     10.81295        -0.000336     -0.000106     -1.119570
      0.00000      8.98609     13.39727         0.000681     -0.000038     -0.198096
     11.23102      7.48841     12.10511         0.309551     -0.000136      0.054545
      2.02079      7.48841     12.10511        -0.312430     -0.000054      0.053806
      9.93886      8.98609     14.12590        -0.001817     -0.002236     -0.006189
      9.93886      8.98609     16.71023         0.016283      0.000313     -0.190490
      1.29216      7.48841     15.41807        -0.575018      0.000933      0.093322
     11.95965      7.48841     15.41807         0.570011      0.000503      0.105659
      0.00540      8.98788     17.46606         0.032263     -0.003192      0.153951
     13.25137      8.98550     20.06458         0.026336      0.001570      0.033612
     11.25701      7.49215     18.75005        -0.173263     -0.001276      0.020678
      1.98969      7.49041     18.75215        -0.025368      0.000101      0.004420
      9.96906      8.99354     20.75598         0.004381     -0.006407     -0.075407
      9.92888      8.97772     23.35570         0.006592      0.000997     -0.454766
      1.24513      7.48821     22.23108        -0.125181     -0.002499     -0.075143
     12.01323      7.48348     22.24599         0.119197     -0.003408     -0.086623
      9.93886      0.00000      7.50000         0.000365     -0.000011      2.323883
      9.93886      0.00000     10.08432         0.000640      0.000033      1.536447
      1.29216     10.48377      8.79216        -1.797995     -0.000047     -0.750271
     11.95965     10.48377      8.79216         1.797191     -0.000048     -0.750189
      0.00000      0.00000     10.81295        -0.000308      0.000024     -1.119563
      0.00000      0.00000     13.39727         0.000709      0.000061     -0.198285
     11.23102     10.48377     12.10511         0.309609     -0.000220      0.054519
      2.02079     10.48377     12.10511        -0.312404     -0.000151      0.053875
      9.93886      0.00000     14.12590        -0.001944      0.000053     -0.008033
      9.93886      0.00000     16.71023         0.010992      0.001757     -0.211832
      1.29216     10.48377     15.41807        -0.573154     -0.000162      0.090826
     11.95965     10.48377     15.41807         0.570574     -0.000740      0.103421
      0.00587      0.00003     17.46604         0.029702      0.000443      0.156447
      0.00112      0.00009     20.06380         0.022747      0.000896      0.033473
     11.25335     10.48799     18.75607        -0.169307     -0.002476      0.023425
      1.99002     10.48312     18.75427        -0.026809     -0.000136      0.005320
      9.94781      0.00178     20.76271         0.006602      0.000413     -0.082879
      9.93860     11.97916     23.36086        -0.001662      0.000102     -0.445790
      1.24234     10.48101     22.22584        -0.131262     -0.001064     -0.078910
     12.01183     10.48297     22.23515         0.137815     -0.000683     -0.085326
      9.93886      2.99536      7.50000         0.000396      0.000136      2.323833
      9.93886      2.99536     10.08432         0.000552      0.000205      1.536700
      1.29216      1.49768      8.79216        -1.798075      0.000044     -0.750239
     11.95965      1.49768      8.79216         1.797265      0.000042     -0.750150
      0.00000      2.99536     10.81295        -0.000325      0.000132     -1.119414
      0.00000      2.99536     13.39727         0.000627      0.000163     -0.197239
     11.23102      1.49768     12.10511         0.309632      0.000246      0.054464
      2.02079      1.49768     12.10511        -0.312456      0.000118      0.053816
      9.93886      2.99536     14.12590        -0.001813      0.002202     -0.006901
      9.93886      2.99536     16.71023         0.015646      0.005193     -0.189588
      1.29216      1.49768     15.41807        -0.574615      0.001101      0.091682
     11.95965      1.49768     15.41807         0.571305      0.001552      0.104501
      0.00525      2.99483     17.46647         0.031941     -0.001595      0.151831
      0.00021      2.99636     20.06489         0.025573     -0.002681      0.032534
     11.25351      1.49572     18.75729        -0.171644     -0.001026      0.021401
      1.98928      1.49652     18.75245        -0.024812     -0.000636      0.004065
      9.96713      2.99323     20.75650         0.001919      0.010508     -0.073148
      9.92994      3.00008     23.35482         0.007753      0.005136     -0.455888
      1.24111      1.49987     22.22845        -0.130393      0.001738     -0.080416
     12.01115      1.49800     22.23299         0.139704     -0.000941     -0.084006
      9.93886      5.99073      7.50000         0.000370      0.000027      2.323619
      9.93886      5.99073     10.08432         0.000550      0.000000      1.536711
      1.29216      4.49305      8.79216        -1.797990      0.000103     -0.750318
     11.95965      4.49305      8.79216         1.797171      0.000090     -0.750202
      0.00000      5.99073     10.81295        -0.000332     -0.000039     -1.119418
      0.00000      5.99073     13.39727         0.000652      0.000030     -0.197520
     11.23102      4.49305     12.10511         0.309615      0.000160      0.054532
      2.02079      4.49305     12.10511        -0.312536      0.000098      0.053779
      9.93886      5.99073     14.12590        -0.000550      0.000634     -0.006486
      9.93886      5.99073     16.71023         0.014936      0.001527     -0.197202
      1.29216      4.49305     15.41807        -0.575995     -0.000589      0.092783
     11.95965      4.49305     15.41807         0.570386     -0.000096      0.105399
      0.00564      5.99092     17.46603         0.033163      0.002106      0.152403
      0.00063      5.99164     20.06351         0.027656     -0.000331      0.030635
     11.25687      4.49103     18.75091        -0.169800      0.000591      0.019077
      1.98927      4.49292     18.75237        -0.022746     -0.000352      0.002932
      9.98757      5.99324     20.75361        -0.001875      0.003405     -0.071456
      9.85071      5.99008     23.35784         0.003653      0.003380     -0.398979
      1.24402      4.49457     22.22975        -0.126042      0.001529     -0.074745
     12.01238      4.49819     22.24629         0.116444      0.000956     -0.085854
      3.31295      8.98609      7.50000        -0.000444     -0.000221      2.323322
      3.31295      8.98609     10.08432        -0.000978     -0.000127      1.535126
      7.91807      7.48841      8.79216        -1.795662     -0.000238     -0.750972
      5.33374      7.48841      8.79216         1.796249     -0.000260     -0.750994
      6.62590      8.98609     10.81295         0.000296     -0.001380     -1.128719
      6.62590      8.98609     13.39727         0.002171     -0.002285     -0.233595
      4.60511      7.48841     12.10511         0.303937     -0.000364      0.052767
      8.64670      7.48841     12.10511        -0.302174     -0.000496      0.053693
      3.31295      8.98609     14.12590        -0.009119     -0.000215     -0.015404
      3.31295      8.98609     16.71023         0.001739     -0.000908     -0.194347
      7.91807      7.48841     15.41807        -0.540326     -0.019811      0.078331
      5.33374      7.48841     15.41807         0.557164     -0.020037      0.093162
      6.63306      8.97526     17.46262         0.032850      0.021360      0.147826
      6.61300      8.99787     20.03988         0.033045     -0.010862      0.032085
      4.62178      7.48767     18.76005        -0.178340      0.001695      0.022553
      8.62445      7.48861     18.76410        -0.023312      0.002357      0.003583
      3.32315      8.98325     20.75980         0.008856     -0.003311     -0.075497
      3.31714      8.98523     23.36099         0.001409      0.000688     -0.451132
      7.89424      7.52772     22.13336        -0.119183      0.024472     -0.039670
      5.39499      7.50146     22.23646         0.128107     -0.003421     -0.077666
      3.31295      0.00000      7.50000        -0.000455      0.000007      2.323573
      3.31295      0.00000     10.08432        -0.001052     -0.000022      1.534965
      7.91807     10.48377      8.79216        -1.795626     -0.000163     -0.750926
      5.33374     10.48377      8.79216         1.796212     -0.000207     -0.750939
      6.62590      0.00000     10.81295         0.000315      0.000219     -1.129277
      6.62590      0.00000     13.39727         0.001765      0.000318     -0.237349
      4.60511     10.48377     12.10511         0.302673     -0.000138      0.052637
      8.64670     10.48377     12.10511        -0.301081     -0.000183      0.053620
      3.31295      0.00000     14.12590        -0.008916     -0.000642     -0.016057
      3.31295      0.00000     16.71023        -0.002065     -0.001448     -0.209458
      7.91807     10.48377     15.41807        -0.536457     -0.000012      0.083570
      5.33374     10.48377     15.41807         0.549143     -0.003079      0.091544
      6.62915      0.00015     17.45384         0.031592      0.000491      0.148609
      6.62654     11.98072     20.04641         0.023244     -0.000453      0.033674
      4.62357     10.48450     18.75349        -0.174340      0.000089      0.019385
      8.62133     10.48328     18.74966        -0.027859     -0.000907      0.000022
      3.31787     11.98001     20.75867         0.009143     -0.001264     -0.080692
      3.30981      0.00062     23.35978         0.003747     -0.004733     -0.454050
      7.87046     10.48381     22.21594        -0.119006     -0.005945     -0.078125
      5.38380     10.49015     22.22081         0.124544      0.013496     -0.081162
      3.31295      2.99536      7.50000        -0.000420      0.000175      2.323553
      3.31295      2.99536     10.08432        -0.000967      0.000117      1.534999
      7.91807      1.49768      8.79216        -1.795663      0.000172     -0.750890
      5.33374      1.49768      8.79216         1.796267      0.000197     -0.750912
      6.62590      2.99536     10.81295         0.000261      0.001338     -1.128303
      6.62590      2.99536     13.39727         0.002133      0.002342     -0.228966
      4.60511      1.49768     12.10511         0.302938      0.000158      0.052651
      8.64670      1.49768     12.10511        -0.301325      0.000233      0.053656
      3.31295      2.99536     14.12590        -0.009118     -0.000061     -0.016996
      3.31295      2.99536     16.71023         0.000181      0.001213     -0.198910
      7.91807      1.49768     15.41807        -0.538862      0.003111      0.085586
      5.33374      1.49768     15.41807         0.551619      0.005861      0.093251
      6.63293      3.00728     17.46462         0.031091     -0.022290      0.147186
      6.62038      2.97997     20.04329         0.028052      0.007863      0.026626
      4.62376      1.49698     18.75498        -0.176624     -0.000443      0.019702
      8.62205      1.49895     18.74897        -0.027940     -0.000967     -0.000156
      3.31180      2.99196     20.75722         0.013362      0.000566     -0.079102
      3.31849      2.99823     23.35753        -0.001354     -0.001319     -0.453741
      7.87026      1.49317     22.21640        -0.117823      0.002407     -0.080611
      5.38242      1.49078     22.21718         0.126122     -0.009258     -0.081321
      3.31295      5.99073      7.50000        -0.000385      0.000085      2.323218
      3.31295      5.99073     10.08432        -0.000972      0.000033      1.535017
      7.91807      4.49305      8.79216        -1.795652      0.000218     -0.750933
      5.33374      4.49305      8.79216         1.796297      0.000225     -0.750968
      6.62590      5.99073     10.81295         0.000286     -0.000170     -1.127177
      6.62590      5.99073     13.39727         0.001989     -0.000390     -0.204532
      4.60511      4.49305     12.10511         0.304171      0.000357      0.052732
      8.64670      4.49305     12.10511        -0.302383      0.000443      0.053702
      3.31295      5.99073     14.12590        -0.009947      0.000801     -0.017184
      3.31295      5.99073     16.71023         0.001249     -0.000764     -0.201393
      7.91807      4.49305     15.41807        -0.541159      0.016662      0.077122
      5.33374      4.49305     15.41807         0.558178      0.017069      0.092277
      6.63392      5.98921     17.47275         0.032055      0.001551      0.162113
      6.62607      5.99427     20.08290         0.030429      0.000825     -0.052752
      4.62160      4.49295     18.76495        -0.172827      0.000055      0.021244
      8.62404      4.49503     18.76519        -0.023458     -0.002981      0.005065
      3.31213      5.99435     20.75887         0.011486      0.001488     -0.080220
      3.33832      5.99141     23.35756        -0.020026      0.002366     -0.450424
      7.89134      4.45872     22.13291        -0.130161     -0.010058     -0.034067
      5.38239      4.47686     22.18507         0.132659      0.007679     -0.061579
 -----------------------------------------------------------------------------------
    total drift:                                0.007275     -0.000284     -0.026857


--------------------------------------------------------------------------------------------------------



  FREE ENERGIE OF THE ION-ELECTRON SYSTEM (eV)
  ---------------------------------------------------
  free  energy   TOTEN  =     -2167.39990410 eV

  energy  without entropy=    -2167.39990410  energy(sigma->0) =    -2167.39990410



--------------------------------------------------------------------------------------------------------


    POTLOK:  cpu time      0.3573: real time      0.3579


--------------------------------------------------------------------------------------------------------


     LOOP+:  cpu time    942.2943: real time    942.8967
    4ORBIT:  cpu time      0.0000: real time      0.0000

 total amount of memory used by VASP MPI-rank0   183370. kBytes
=======================================================================

   base      :      30000. kBytes
   nonl-proj :      63406. kBytes
   fftplans  :       7952. kBytes
   grid      :      13664. kBytes
   one-center:        248. kBytes
   wavefun   :      68100. kBytes

  
  
 General timing and accounting informations for this job:
 ========================================================
  
                  Total CPU time used (sec):     1029.501
                            User time (sec):     1018.422
                          System time (sec):       11.079
                         Elapsed time (sec):     1043.903
  
                   Maximum memory used (kb):      536564.
                   Average memory used (kb):          N/A
  
                          Minor page faults:      1044840
                          Major page faults:          751
                 Voluntary context switches:        11148
