 vasp.6.3.0 20Jan22 (build Apr  1 2022 16:44:48) gamma-only                      
 executed on        HPECrayEX_GCC date 2023.03.12  03:01:11
 running  768 mpi-ranks, with    1 threads/rank
 distrk:  each k-point on  768 cores,    1 groups
 distr:  one band on NCORE=   8 cores,   96 groups


--------------------------------------------------------------------------------------------------------


 INCAR:
   SYSTEM = MgO-rocksalt
   ISMEAR = 0
   SIGMA = 0.05
   EDIFF = 1E-6
   ALGO = ALL
   ISTART = 0
   IBRION = -1
   NSW = 0
   ISYM = 0
   DIPOL = 0.5 0.5 0.5
   IDIPOL = 3
   LDIPOL = .TRUE.
   LHFCALC = .TRUE.
   GGA = B5
   AEXX = 0.2
   AGGAX = 0.72
   AGGAC = 0.81
   ALDAC = 0.19
   IVDW = 1
   VDW_S6 = 1.05
   VDW_C6 = 0.63 0.70
   VDW_R0 = 1.243 1.342
   ENCUT = 520
   PREC = Accurate
   LASPH = .TRUE.
   LREAL = Auto
   ISPIN = 1
   NELM = 200
   NELMIN = 8
   NCORE = 8
   KPAR = 1
   LWAVE = .FALSE.
   LCHARG = .FALSE.

 POTCAR:    PAW_PBE Mg_pv 13Apr2007               
 POTCAR:    PAW_PBE O 08Apr2002                   
 POTCAR:    PAW_PBE Mg_pv 13Apr2007               
   SHA256 =  f474ac0dd33840b9ae76c01d57fea79fdf77cdfbb07d5ade72c65f83c709b62b Mg_pv/POTCAR          
   COPYR  = (c) Copyright 13Apr2007 Georg Kresse                                                    
   COPYR  = This file is part of the software VASP. Any use, copying, and all other rights are regul
   COPYR  = If you do not have a valid VASP license, you may not use, copy or distribute this file. 
   VRHFIN =Mg: p6s2                                                                                 
   LEXCH  = PE                                                                                      
   EATOM  =  1056.7344 eV,   77.6678 Ry                                                             
                                                                                                    
   TITEL  = PAW_PBE Mg_pv 13Apr2007                                                                 
   LULTRA =        F    use ultrasoft PP ?                                                          
   IUNSCR =        1    unscreen: 0-lin 1-nonlin 2-no                                               
   RPACOR =    1.500    partial core radius                                                         
   POMASS =   24.305; ZVAL   =    8.000    mass and valenz                                          
   RCORE  =    2.000    outmost cutoff radius                                                       
   RWIGS  =    2.000; RWIGS  =    1.058    wigner-seitz radius (au A)                               
   ENMAX  =  403.929; ENMIN  =  302.947 eV                                                          
   RCLOC  =    1.506    cutoff for local pot                                                        
   LCOR   =        T    correct aug charges                                                         
   LPAW   =        T    paw PP                                                                      
   EAUG   =  758.780                                                                                
   DEXC   =    0.000                                                                                
   RMAX   =    2.045    core radius for proj-oper                                                   
   RAUG   =    1.300    factor for augmentation sphere                                              
   RDEP   =    2.025    radius for radial grids                                                     
   RDEPT  =    1.557    core radius for aug-charge                                                  
                                                                                                    
   Atomic configuration                                                                             
    5 entries                                                                                       
     n  l   j            E        occ.                                                              
     1  0  0.50     -1259.6230   2.0000                                                             
     2  0  0.50       -79.8442   2.0000                                                             
     2  1  1.50       -46.6121   6.0000                                                             
     3  0  0.50        -4.7055   2.0000                                                             
     3  2  1.50        -1.3606   0.0000                                                             
   Description                                                                                      
     l       E           TYP  RCUT    TYP  RCUT                                                     
     1    -46.6121073     23  1.600                                                                 
     1      2.7211652     23  1.600                                                                 
     0     -4.7054661     23  2.000                                                                 
     0     61.2262170     23  2.000                                                                 
     2     -1.3605826     23  2.000                                                                 
  local pseudopotential read in
  partial core-charges read in
  partial kinetic energy density read in
  atomic valenz-charges read in
  non local Contribution for L=           1  read in
    real space projection operators read in
  non local Contribution for L=           1  read in
    real space projection operators read in
  non local Contribution for L=           0  read in
    real space projection operators read in
  non local Contribution for L=           0  read in
    real space projection operators read in
  non local Contribution for L=           2  read in
    real space projection operators read in
    PAW grid and wavefunctions read in

   number of l-projection  operators is LMAX  =           5
   number of lm-projection operators is LMMAX =          13

 POTCAR:    PAW_PBE O 08Apr2002                   
   SHA256 =  818f92134a0a090dccd8ba1447fa70422a3b330e708bb4f08108d8ae51209ddf O/POTCAR              
   COPYR  = (c) Copyright 08Apr2002 Georg Kresse                                                    
   COPYR  = This file is part of the software VASP. Any use, copying, and all other rights are regul
   COPYR  = If you do not have a valid VASP license, you may not use, copy or distribute this file. 
   VRHFIN =O: s2p4                                                                                  
   LEXCH  = PE                                                                                      
   EATOM  =   432.3788 eV,   31.7789 Ry                                                             
                                                                                                    
   TITEL  = PAW_PBE O 08Apr2002                                                                     
   LULTRA =        F    use ultrasoft PP ?                                                          
   IUNSCR =        1    unscreen: 0-lin 1-nonlin 2-no                                               
   RPACOR =    1.200    partial core radius                                                         
   POMASS =   16.000; ZVAL   =    6.000    mass and valenz                                          
   RCORE  =    1.520    outmost cutoff radius                                                       
   RWIGS  =    1.550; RWIGS  =    0.820    wigner-seitz radius (au A)                               
   ENMAX  =  400.000; ENMIN  =  300.000 eV                                                          
   ICORE  =        2    local potential                                                             
   LCOR   =        T    correct aug charges                                                         
   LPAW   =        T    paw PP                                                                      
   EAUG   =  605.392                                                                                
   DEXC   =    0.000                                                                                
   RMAX   =    1.553    core radius for proj-oper                                                   
   RAUG   =    1.300    factor for augmentation sphere                                              
   RDEP   =    1.550    radius for radial grids                                                     
   RDEPT  =    1.329    core radius for aug-charge                                                  
                                                                                                    
   Atomic configuration                                                                             
    4 entries                                                                                       
     n  l   j            E        occ.                                                              
     1  0  0.50      -514.6923   2.0000                                                             
     2  0  0.50       -23.9615   2.0000                                                             
     2  1  0.50        -9.0305   4.0000                                                             
     3  2  1.50        -9.5241   0.0000                                                             
   Description                                                                                      
     l       E           TYP  RCUT    TYP  RCUT                                                     
     0    -23.9615318     23  1.200                                                                 
     0     -9.5240782     23  1.200                                                                 
     1     -9.0304911     23  1.520                                                                 
     1      8.1634956     23  1.520                                                                 
     2     -9.5240782      7  1.500                                                                 
  local pseudopotential read in
  partial core-charges read in
  partial kinetic energy density read in
  kinetic energy density of atom read in
  atomic valenz-charges read in
  non local Contribution for L=           0  read in
    real space projection operators read in
  non local Contribution for L=           0  read in
    real space projection operators read in
  non local Contribution for L=           1  read in
    real space projection operators read in
  non local Contribution for L=           1  read in
    real space projection operators read in
    PAW grid and wavefunctions read in

   number of l-projection  operators is LMAX  =           4
   number of lm-projection operators is LMMAX =           8

 Optimization of the real space projectors (new method)

 maximal supplied QI-value         = 18.90
 optimisation between [QCUT,QGAM] = [ 11.53, 23.24] = [ 37.21,151.29] Ry 
 Optimized for a Real-space Cutoff    1.28 Angstroem

   l    n(q)    QCUT    max X(q) W(low)/X(q) W(high)/X(q)  e(spline) 
   1      8    11.527     2.974    0.44E-04    0.56E-04    0.12E-06
   1      8    11.527     4.279    0.12E-03    0.12E-03    0.26E-06
   0      9    11.527    16.381    0.46E-04    0.64E-04    0.78E-07
   0      9    11.527     5.611    0.26E-04    0.43E-04    0.55E-07
   2      8    11.527     4.652    0.22E-03    0.72E-04    0.47E-07
 Optimization of the real space projectors (new method)

 maximal supplied QI-value         = 24.76
 optimisation between [QCUT,QGAM] = [ 11.64, 23.27] = [ 37.91,151.63] Ry 
 Optimized for a Real-space Cutoff    1.14 Angstroem

   l    n(q)    QCUT    max X(q) W(low)/X(q) W(high)/X(q)  e(spline) 
   0      8    11.635    20.381    0.10E-03    0.33E-03    0.24E-06
   0      8    11.635    15.268    0.11E-03    0.35E-03    0.26E-06
   1      7    11.635     5.964    0.24E-03    0.31E-03    0.30E-06
   1      7    11.635     5.382    0.22E-03    0.25E-03    0.26E-06
 -----------------------------------------------------------------------------
|                                                                             |
|               ----> ADVICE to this user running VASP <----                  |
|                                                                             |
|     You enforced a specific xc type in the INCAR file but a different       |
|     type was found in the POTCAR file.                                      |
|     I HOPE YOU KNOW WHAT YOU ARE DOING!                                     |
|                                                                             |
 -----------------------------------------------------------------------------

  PAW_PBE Mg_pv 13Apr2007               :
 energy of atom  1       EATOM=-1056.7344
 kinetic energy error for atom=    0.0340 (will be added to EATOM!!)
  PAW_PBE O 08Apr2002                   :
 energy of atom  2       EATOM= -432.3788
 kinetic energy error for atom=    0.0208 (will be added to EATOM!!)


 POSCAR: Mg  O
  positions in direct lattice
  No initial velocities read in
 exchange correlation table for  LEXCH =       12
   RHO(1)=    0.500       N(1)  =     2000
   RHO(2)=  100.500       N(2)  =     4000



--------------------------------------------------------------------------------------------------------


 ion  position               nearest neighbor table
   1  0.125  0.000  0.351- 129 2.12 131 2.12 132 2.12 148 2.12 171 2.12
   2  0.250  0.125  0.351- 130 2.12 131 2.12 132 2.12 140 2.12 147 2.12
   3  0.125  0.125  0.450- 135 2.11 131 2.12 129 2.12 130 2.12 137 2.12 146 2.12
   4  0.250  0.000  0.450- 136 2.11 132 2.12 129 2.12 130 2.12 145 2.12 170 2.12
   5  0.125  1.000  0.550- 135 2.12 136 2.12 152 2.12 175 2.12 129 2.12 133 2.14
   6  0.250  0.125  0.550- 144 2.12 151 2.12 130 2.12 135 2.12 136 2.12 134 2.14
   7  0.125  0.125  0.648- 135 2.10 134 2.11 150 2.12 133 2.12 141 2.12
   8  0.250  1.000  0.647- 136 2.10 134 2.11 174 2.12 149 2.12 133 2.12
   9  0.125  0.250  0.351- 137 2.12 131 2.12 139 2.12 140 2.12 156 2.12
  10  0.250  0.375  0.351- 138 2.12 139 2.12 140 2.12 155 2.12 164 2.12
  11  0.125  0.375  0.450- 143 2.11 139 2.12 137 2.12 138 2.12 154 2.12 161 2.12
  12  0.250  0.250  0.450- 144 2.11 140 2.12 138 2.12 130 2.12 137 2.12 153 2.12
  13  0.125  0.250  0.550- 144 2.11 160 2.12 143 2.12 135 2.12 137 2.12 141 2.15
  14  0.250  0.375  0.550- 159 2.10 144 2.12 168 2.12 143 2.12 138 2.12 142 2.17
  15  0.125  0.375  0.648- 143 2.09 142 2.10 158 2.11 141 2.12 165 2.12
  16  0.250  0.250  0.647- 144 2.09 157 2.10 141 2.12 134 2.12 142 2.13
  17  0.375  0.000  0.351- 145 2.12 132 2.12 147 2.12 187 2.12 212 2.12
  18  0.000  0.125  0.351- 146 2.12 131 2.12 148 2.12 156 2.12 211 2.12
  19  0.375  0.125  0.450- 151 2.11 147 2.12 130 2.12 145 2.12 153 2.12 210 2.12
  20  0.000  0.000  0.450- 152 2.11 148 2.12 129 2.12 146 2.12 186 2.12 209 2.12
  21  0.375  1.000  0.550- 151 2.11 191 2.12 216 2.12 145 2.12 136 2.12 149 2.15
  22  0.000  0.125  0.550- 215 2.11 135 2.12 152 2.12 160 2.12 146 2.12 150 2.14
  23  0.375  0.125  0.647- 151 2.08 157 2.09 149 2.12 134 2.12 214 2.12
  24  0.000  1.000  0.648- 152 2.10 213 2.11 133 2.11 190 2.12 150 2.12
  25  0.375  0.250  0.351- 153 2.12 147 2.12 140 2.12 155 2.12 220 2.12
  26  0.000  0.375  0.351- 154 2.12 139 2.12 156 2.12 180 2.12 219 2.12
  27  0.375  0.375  0.450- 155 2.12 153 2.12 138 2.12 177 2.12 218 2.12 159 2.12
  28  0.000  0.250  0.450- 160 2.11 156 2.12 154 2.12 137 2.12 146 2.12 217 2.12
  29  0.375  0.250  0.550- 224 2.11 159 2.11 157 2.12 151 2.13 144 2.13 153 2.13
  30  0.000  0.375  0.550- 223 2.12 143 2.12 184 2.12 160 2.12 154 2.12 158 2.14
  31  0.375  0.374  0.650- 222 2.11 157 2.13 142 2.14 159 2.15 181 2.15
  32  0.000  0.250  0.648- 160 2.10 141 2.11 221 2.11 150 2.12 158 2.12
  33  0.125  0.500  0.351- 161 2.12 139 2.12 163 2.12 164 2.12 180 2.12
  34  0.250  0.625  0.351- 162 2.12 163 2.12 164 2.12 172 2.12 179 2.12
  35  0.125  0.625  0.450- 167 2.11 163 2.12 161 2.12 162 2.12 169 2.12 178 2.12
  36  0.250  0.500  0.450- 168 2.11 164 2.12 162 2.12 138 2.12 161 2.12 177 2.12
  37  0.125  0.500  0.550- 168 2.11 184 2.12 143 2.12 161 2.12 167 2.12 165 2.15
  38  0.250  0.625  0.550- 183 2.12 168 2.12 162 2.12 176 2.12 167 2.12 166 2.14
  39  0.125  0.625  0.648- 167 2.10 166 2.11 182 2.11 173 2.12 165 2.12
  40  0.250  0.500  0.647- 168 2.08 181 2.09 165 2.12 166 2.12 142 2.12
  41  0.125  0.750  0.351- 169 2.12 163 2.12 171 2.12 172 2.12 188 2.12
  42  0.250  0.875  0.351- 170 2.12 132 2.12 171 2.12 172 2.12 187 2.12
  43  0.125  0.875  0.450- 175 2.11 171 2.12 170 2.12 129 2.12 169 2.12 186 2.12
  44  0.250  0.750  0.450- 176 2.11 172 2.12 170 2.12 162 2.12 169 2.12 185 2.12
  45  0.125  0.750  0.550- 176 2.12 192 2.12 167 2.12 175 2.12 169 2.12 173 2.14
  46  0.250  0.875  0.550- 136 2.11 176 2.12 175 2.12 191 2.12 170 2.12 174 2.14
  47  0.125  0.875  0.648- 175 2.10 133 2.11 173 2.11 190 2.12 174 2.12
  48  0.250  0.750  0.648- 176 2.10 166 2.11 174 2.12 173 2.12 189 2.12
  49  0.375  0.500  0.351- 177 2.12 164 2.12 155 2.12 179 2.12 244 2.12
  50  0.000  0.625  0.351- 178 2.12 163 2.12 180 2.12 188 2.12 243 2.12
  51  0.375  0.625  0.450- 183 2.11 179 2.12 162 2.12 177 2.12 185 2.12 242 2.12
  52  0.000  0.500  0.450- 184 2.11 180 2.12 178 2.12 154 2.12 161 2.12 241 2.12
  53  0.375  0.500  0.550- 248 2.11 159 2.11 181 2.12 168 2.13 177 2.13 183 2.13
  54  0.000  0.625  0.550- 247 2.12 167 2.12 184 2.12 192 2.12 178 2.12 182 2.14
  55  0.375  0.625  0.647- 183 2.09 181 2.10 189 2.12 166 2.12 246 2.13
  56  0.000  0.500  0.648- 184 2.09 245 2.11 165 2.11 182 2.12 158 2.12
  57  0.375  0.750  0.351- 185 2.12 179 2.12 172 2.12 187 2.12 252 2.12
  58  0.000  0.875  0.351- 186 2.12 171 2.12 148 2.12 188 2.12 251 2.12
  59  0.375  0.875  0.450- 191 2.11 187 2.12 185 2.12 145 2.12 170 2.12 250 2.12
  60  0.000  0.750  0.450- 192 2.11 188 2.12 186 2.12 169 2.12 178 2.12 249 2.12
  61  0.375  0.750  0.550- 183 2.11 191 2.12 256 2.12 176 2.12 185 2.12 189 2.15
  62  0.000  0.875  0.550- 255 2.12 175 2.12 152 2.12 192 2.12 186 2.12 190 2.14
  63  0.375  0.875  0.648- 191 2.10 149 2.11 189 2.11 174 2.12 254 2.12
  64  0.000  0.750  0.648- 192 2.10 253 2.11 173 2.11 190 2.12 182 2.12
  65  0.625  0.000  0.351- 193 2.12 195 2.12 196 2.12 212 2.12 235 2.12
  66  0.750  0.125  0.351- 194 2.12 195 2.12 196 2.12 204 2.12 211 2.12
  67  0.625  0.125  0.450- 199 2.11 195 2.12 193 2.12 194 2.12 201 2.12 210 2.12
  68  0.750  0.000  0.450- 200 2.11 196 2.12 193 2.12 194 2.12 209 2.12 234 2.12
  69  0.625  1.000  0.550- 199 2.11 216 2.12 239 2.12 193 2.12 200 2.12 197 2.15
  70  0.750  0.125  0.550- 199 2.12 208 2.12 194 2.12 200 2.12 215 2.12 198 2.14
  71  0.625  0.125  0.647- 199 2.09 205 2.10 197 2.12 198 2.12 214 2.13
  72  0.750  1.000  0.647- 200 2.10 198 2.11 238 2.12 197 2.12 213 2.12
  73  0.625  0.250  0.351- 201 2.12 195 2.12 203 2.12 204 2.12 220 2.12
  74  0.750  0.375  0.351- 202 2.12 203 2.12 204 2.12 219 2.12 228 2.12
  75  0.625  0.375  0.450- 203 2.12 202 2.12 201 2.12 218 2.12 225 2.12 207 2.12
  76  0.750  0.250  0.450- 208 2.11 204 2.12 202 2.12 194 2.12 201 2.12 217 2.12
  77  0.625  0.250  0.550- 224 2.11 207 2.11 205 2.12 208 2.13 199 2.13 201 2.13
  78  0.750  0.375  0.550- 207 2.10 232 2.12 208 2.12 223 2.12 202 2.12 206 2.17
  79  0.624  0.376  0.650- 222 2.11 229 2.13 206 2.14 207 2.15 205 2.15
  80  0.750  0.250  0.647- 208 2.08 205 2.09 221 2.12 198 2.12 206 2.13
  81  0.875  0.000  0.351- 209 2.12 196 2.12 148 2.12 211 2.12 251 2.12
  82  0.500  0.125  0.351- 210 2.12 195 2.12 147 2.12 212 2.12 220 2.12
  83  0.875  0.125  0.450- 215 2.11 211 2.12 209 2.12 146 2.12 194 2.12 217 2.12
  84  0.500  0.000  0.450- 216 2.12 212 2.12 210 2.12 145 2.12 193 2.12 250 2.12
  85  0.875  1.000  0.550- 215 2.12 200 2.12 152 2.12 255 2.12 209 2.12 213 2.14
  86  0.500  0.125  0.550- 224 2.10 199 2.12 151 2.12 216 2.12 210 2.12 214 2.16
  87  0.875  0.125  0.648- 215 2.10 198 2.11 150 2.12 221 2.12 213 2.12
  88  0.500  1.000  0.648- 216 2.09 214 2.10 254 2.11 197 2.12 149 2.12
  89  0.875  0.250  0.351- 217 2.12 204 2.12 211 2.12 156 2.12 219 2.12
  90  0.500  0.375  0.351- 218 2.12 203 2.12 155 2.12 220 2.12 244 2.12
  91  0.875  0.375  0.450- 223 2.11 219 2.12 217 2.12 154 2.12 202 2.12 241 2.12
  92  0.500  0.250  0.450- 220 2.12 201 2.12 210 2.12 218 2.12 153 2.12 224 2.12
  93  0.875  0.250  0.550- 208 2.11 160 2.12 223 2.12 217 2.12 215 2.12 221 2.15
  94  0.500  0.375  0.551- 222 2.07 224 2.13 207 2.13 159 2.13 248 2.13 218 2.14
  95  0.875  0.375  0.648- 223 2.09 206 2.10 158 2.11 245 2.12 221 2.12
  96  0.501  0.250  0.651- 222 2.11 205 2.13 214 2.14 157 2.15 224 2.15
  97  0.625  0.500  0.351- 225 2.12 203 2.12 227 2.12 228 2.12 244 2.12
  98  0.750  0.625  0.351- 226 2.12 227 2.12 228 2.12 236 2.12 243 2.12
  99  0.625  0.625  0.450- 231 2.11 227 2.12 225 2.12 226 2.12 233 2.12 242 2.12
 100  0.750  0.500  0.450- 232 2.11 228 2.12 226 2.12 202 2.12 225 2.12 241 2.12
 101  0.625  0.500  0.550- 207 2.11 248 2.11 229 2.12 232 2.13 231 2.13 225 2.13
 102  0.750  0.625  0.550- 232 2.12 226 2.12 247 2.12 231 2.12 240 2.12 230 2.14
 103  0.626  0.625  0.647- 231 2.08 229 2.09 237 2.12 230 2.12 246 2.13
 104  0.750  0.500  0.647- 232 2.09 229 2.10 245 2.12 230 2.12 206 2.13
 105  0.625  0.750  0.351- 233 2.12 227 2.12 235 2.12 236 2.12 252 2.12
 106  0.750  0.875  0.351- 234 2.12 196 2.12 235 2.12 236 2.12 251 2.12
 107  0.625  0.875  0.450- 239 2.11 235 2.12 234 2.12 193 2.12 233 2.12 250 2.12
 108  0.750  0.750  0.450- 240 2.11 236 2.12 234 2.12 226 2.12 233 2.12 249 2.12
 109  0.625  0.750  0.550- 231 2.11 239 2.12 256 2.12 233 2.12 240 2.12 237 2.15
 110  0.750  0.875  0.550- 200 2.11 240 2.12 255 2.12 239 2.12 234 2.12 238 2.14
 111  0.625  0.875  0.648- 239 2.10 197 2.11 237 2.11 238 2.12 254 2.12
 112  0.750  0.750  0.648- 240 2.10 230 2.11 238 2.11 253 2.12 237 2.12
 113  0.875  0.500  0.351- 241 2.12 219 2.12 228 2.12 180 2.12 243 2.12
 114  0.500  0.625  0.351- 242 2.12 227 2.12 179 2.12 244 2.12 252 2.12
 115  0.875  0.625  0.450- 247 2.11 243 2.12 241 2.12 178 2.12 226 2.12 249 2.12
 116  0.500  0.500  0.450- 244 2.12 218 2.12 225 2.12 242 2.12 177 2.12 248 2.12
 117  0.875  0.500  0.550- 232 2.11 184 2.12 223 2.12 247 2.12 241 2.12 245 2.15
 118  0.500  0.625  0.550- 248 2.10 183 2.12 231 2.12 256 2.12 242 2.12 246 2.17
 119  0.875  0.625  0.648- 247 2.10 230 2.11 182 2.12 245 2.12 253 2.12
 120  0.499  0.499  0.650- 222 2.10 181 2.13 248 2.14 246 2.15 229 2.15
 121  0.875  0.750  0.351- 249 2.12 236 2.12 243 2.12 188 2.12 251 2.12
 122  0.500  0.875  0.351- 250 2.12 212 2.12 235 2.12 187 2.12 252 2.12
 123  0.875  0.875  0.450- 255 2.11 251 2.12 234 2.12 249 2.12 186 2.12 209 2.12
 124  0.500  0.750  0.450- 256 2.12 252 2.12 242 2.12 250 2.12 185 2.12 233 2.12
 125  0.875  0.750  0.550- 240 2.12 247 2.12 192 2.12 255 2.12 249 2.12 253 2.14
 126  0.500  0.875  0.550- 216 2.12 191 2.12 239 2.12 256 2.12 250 2.12 254 2.14
 127  0.875  0.875  0.648- 255 2.10 213 2.11 253 2.11 190 2.12 238 2.12
 128  0.500  0.750  0.648- 256 2.09 246 2.11 254 2.11 189 2.12 237 2.12
 129  0.125  0.000  0.450-   1 2.12   3 2.12   4 2.12  20 2.12  43 2.12   5 2.12
 130  0.250  0.125  0.450-   2 2.12   3 2.12   4 2.12  12 2.12  19 2.12   6 2.12
 131  0.125  0.125  0.351-   3 2.12   2 2.12   1 2.12   9 2.12  18 2.12
 132  0.250  0.000  0.351-   4 2.12   2 2.12   1 2.12  17 2.12  42 2.12
 133  0.125  1.000  0.650-  47 2.11  24 2.11   7 2.12   8 2.12   5 2.14
 134  0.250  0.124  0.650-   8 2.11   7 2.11  23 2.12  16 2.12   6 2.14
 135  0.125  0.125  0.549-   7 2.10   3 2.11  22 2.12   5 2.12   6 2.12  13 2.12
 136  0.250  1.000  0.549-   8 2.10   4 2.11  46 2.11   5 2.12   6 2.12  21 2.12
 137  0.125  0.250  0.450-   9 2.12   3 2.12  11 2.12  12 2.12  28 2.12  13 2.12
 138  0.250  0.375  0.450-  10 2.12  11 2.12  12 2.12  27 2.12  36 2.12  14 2.12
 139  0.125  0.375  0.351-  11 2.12  10 2.12   9 2.12  26 2.12  33 2.12
 140  0.250  0.250  0.351-  12 2.12   9 2.12  10 2.12   2 2.12  25 2.12
 141  0.125  0.250  0.650-  32 2.11   7 2.12  16 2.12  15 2.12  13 2.15
 142  0.249  0.375  0.651-  15 2.10  40 2.12  16 2.13  31 2.14  14 2.17
 143  0.125  0.375  0.549-  15 2.09  11 2.11  37 2.12  30 2.12  13 2.12  14 2.12
 144  0.250  0.250  0.549-  16 2.09  13 2.11  12 2.11   6 2.12  14 2.12  29 2.13
 145  0.375  0.000  0.450-  17 2.12   4 2.12  19 2.12  59 2.12  84 2.12  21 2.12
 146  0.000  0.125  0.450-  18 2.12   3 2.12  20 2.12  28 2.12  83 2.12  22 2.12
 147  0.375  0.125  0.351-  19 2.12  17 2.12   2 2.12  25 2.12  82 2.12
 148  0.000  0.000  0.351-  20 2.12  18 2.12   1 2.12  58 2.12  81 2.12
 149  0.375  1.000  0.650-  63 2.11   8 2.12  23 2.12  88 2.12  21 2.15
 150  0.000  0.125  0.650-  87 2.12   7 2.12  24 2.12  32 2.12  22 2.14
 151  0.375  0.125  0.549-  23 2.08  19 2.11  21 2.11   6 2.12  86 2.12  29 2.13
 152  0.000  1.000  0.549-  24 2.10  20 2.11  62 2.12   5 2.12  85 2.12  22 2.12
 153  0.375  0.250  0.450-  25 2.12  19 2.12  12 2.12  27 2.12  92 2.12  29 2.13
 154  0.000  0.375  0.450-  26 2.12  11 2.12  28 2.12  52 2.12  91 2.12  30 2.12
 155  0.375  0.375  0.351-  27 2.12  25 2.12  10 2.12  49 2.12  90 2.12
 156  0.000  0.250  0.351-  28 2.12  18 2.12  26 2.12   9 2.12  89 2.12
 157  0.374  0.248  0.650-  23 2.09  16 2.10  29 2.12  31 2.13  96 2.15
 158  0.000  0.375  0.650-  15 2.11  95 2.11  32 2.12  56 2.12  30 2.14
 159  0.374  0.375  0.550-  14 2.10  29 2.11  53 2.11  27 2.12  94 2.13  31 2.15
 160  0.000  0.250  0.549-  32 2.10  28 2.11  93 2.12  13 2.12  30 2.12  22 2.12
 161  0.125  0.500  0.450-  33 2.12  11 2.12  35 2.12  36 2.12  52 2.12  37 2.12
 162  0.250  0.625  0.450-  34 2.12  35 2.12  36 2.12  44 2.12  51 2.12  38 2.12
 163  0.125  0.625  0.351-  35 2.12  34 2.12  33 2.12  41 2.12  50 2.12
 164  0.250  0.500  0.351-  36 2.12  33 2.12  34 2.12  10 2.12  49 2.12
 165  0.125  0.500  0.650-  56 2.11  39 2.12  40 2.12  15 2.12  37 2.15
 166  0.249  0.626  0.650-  39 2.11  48 2.11  55 2.12  40 2.12  38 2.14
 167  0.125  0.625  0.549-  39 2.10  35 2.11  54 2.12  45 2.12  38 2.12  37 2.12
 168  0.250  0.500  0.549-  40 2.08  36 2.11  37 2.11  38 2.12  14 2.12  53 2.13
 169  0.125  0.750  0.450-  41 2.12  35 2.12  43 2.12  44 2.12  60 2.12  45 2.12
 170  0.250  0.875  0.450-  42 2.12   4 2.12  43 2.12  44 2.12  59 2.12  46 2.12
 171  0.125  0.875  0.351-  43 2.12  41 2.12  42 2.12   1 2.12  58 2.12
 172  0.250  0.750  0.351-  44 2.12  41 2.12  42 2.12  34 2.12  57 2.12
 173  0.125  0.750  0.650-  64 2.11  47 2.11  48 2.12  39 2.12  45 2.14
 174  0.250  0.875  0.650-  48 2.12   8 2.12  47 2.12  63 2.12  46 2.14
 175  0.125  0.875  0.549-  47 2.10  43 2.11  62 2.12   5 2.12  45 2.12  46 2.12
 176  0.250  0.750  0.549-  48 2.10  44 2.11  46 2.12  45 2.12  38 2.12  61 2.12
 177  0.375  0.500  0.450-  49 2.12  36 2.12  27 2.12  51 2.12 116 2.12  53 2.13
 178  0.000  0.625  0.450-  50 2.12  35 2.12  52 2.12  60 2.12 115 2.12  54 2.12
 179  0.375  0.625  0.351-  51 2.12  49 2.12  34 2.12  57 2.12 114 2.12
 180  0.000  0.500  0.351-  52 2.12  33 2.12  50 2.12  26 2.12 113 2.12
 181  0.373  0.501  0.649-  40 2.09  55 2.10  53 2.12 120 2.13  31 2.15
 182  0.000  0.625  0.650-  39 2.11 119 2.12  64 2.12  56 2.12  54 2.14
 183  0.375  0.625  0.549-  55 2.09  61 2.11  51 2.11 118 2.12  38 2.12  53 2.13
 184  0.000  0.500  0.549-  56 2.09  52 2.11  37 2.12 117 2.12  30 2.12  54 2.12
 185  0.375  0.750  0.450-  57 2.12  51 2.12  44 2.12  59 2.12 124 2.12  61 2.12
 186  0.000  0.875  0.450-  58 2.12  43 2.12  20 2.12  60 2.12 123 2.12  62 2.12
 187  0.375  0.875  0.351-  59 2.12  42 2.12  57 2.12  17 2.12 122 2.12
 188  0.000  0.750  0.351-  60 2.12  50 2.12  58 2.12  41 2.12 121 2.12
 189  0.375  0.750  0.650-  63 2.11  48 2.12  55 2.12 128 2.12  61 2.15
 190  0.000  0.875  0.650-  47 2.12 127 2.12  64 2.12  24 2.12  62 2.14
 191  0.375  0.875  0.549-  63 2.10  59 2.11  61 2.12  21 2.12 126 2.12  46 2.12
 192  0.000  0.750  0.549-  64 2.10  60 2.11  45 2.12 125 2.12  62 2.12  54 2.12
 193  0.625  0.000  0.450-  65 2.12  67 2.12  68 2.12  84 2.12 107 2.12  69 2.12
 194  0.750  0.125  0.450-  66 2.12  67 2.12  68 2.12  76 2.12  83 2.12  70 2.12
 195  0.625  0.125  0.351-  67 2.12  66 2.12  65 2.12  73 2.12  82 2.12
 196  0.750  0.000  0.351-  68 2.12  66 2.12  65 2.12  81 2.12 106 2.12
 197  0.625  1.000  0.650- 111 2.11  72 2.12  71 2.12  88 2.12  69 2.15
 198  0.751  0.125  0.650-  87 2.11  72 2.11  80 2.12  71 2.12  70 2.14
 199  0.625  0.125  0.549-  71 2.09  69 2.11  67 2.11  70 2.12  86 2.12  77 2.13
 200  0.750  1.000  0.549-  72 2.10  68 2.11 110 2.11  85 2.12  70 2.12  69 2.12
 201  0.625  0.250  0.450-  73 2.12  67 2.12  75 2.12  76 2.12  92 2.12  77 2.13
 202  0.750  0.375  0.450-  74 2.12  75 2.12  76 2.12  91 2.12 100 2.12  78 2.12
 203  0.625  0.375  0.351-  75 2.12  74 2.12  73 2.12  90 2.12  97 2.12
 204  0.750  0.250  0.351-  76 2.12  73 2.12  74 2.12  66 2.12  89 2.12
 205  0.627  0.249  0.650-  80 2.09  71 2.10  77 2.12  96 2.13  79 2.15
 206  0.751  0.375  0.651-  95 2.10  80 2.13 104 2.13  79 2.14  78 2.17
 207  0.626  0.375  0.550-  78 2.10 101 2.11  77 2.11  75 2.12  94 2.13  79 2.15
 208  0.750  0.250  0.549-  80 2.08  76 2.11  93 2.11  70 2.12  78 2.12  77 2.13
 209  0.875  0.000  0.450-  81 2.12  68 2.12  20 2.12  83 2.12 123 2.12  85 2.12
 210  0.500  0.125  0.450-  82 2.12  67 2.12  19 2.12  84 2.12  92 2.12  86 2.12
 211  0.875  0.125  0.351-  83 2.12  66 2.12  81 2.12  18 2.12  89 2.12
 212  0.500  0.000  0.351-  84 2.12  65 2.12  82 2.12  17 2.12 122 2.12
 213  0.875  1.000  0.650- 127 2.11  24 2.11  72 2.12  87 2.12  85 2.14
 214  0.500  0.124  0.651-  88 2.10  23 2.12  71 2.13  96 2.14  86 2.16
 215  0.875  0.125  0.549-  87 2.10  83 2.11  22 2.11  85 2.12  70 2.12  93 2.12
 216  0.500  1.000  0.550-  88 2.09 126 2.12  84 2.12  21 2.12  69 2.12  86 2.12
 217  0.875  0.250  0.450-  89 2.12  76 2.12  83 2.12  28 2.12  91 2.12  93 2.12
 218  0.500  0.375  0.450-  90 2.12  75 2.12  27 2.12  92 2.12 116 2.12  94 2.14
 219  0.875  0.375  0.351-  91 2.12  74 2.12  89 2.12  26 2.12 113 2.12
 220  0.500  0.250  0.351-  92 2.12  73 2.12  82 2.12  90 2.12  25 2.12
 221  0.875  0.250  0.650-  32 2.11  87 2.12  80 2.12  95 2.12  93 2.15
 222  0.500  0.375  0.648-  94 2.07 120 2.10  31 2.11  79 2.11  96 2.11
 223  0.875  0.375  0.549-  95 2.09  91 2.11 117 2.12  30 2.12  93 2.12  78 2.12
 224  0.500  0.249  0.550-  86 2.10  77 2.11  29 2.11  92 2.12  94 2.13  96 2.15
 225  0.625  0.500  0.450-  97 2.12  75 2.12  99 2.12 100 2.12 116 2.12 101 2.13
 226  0.750  0.625  0.450-  98 2.12  99 2.12 100 2.12 108 2.12 115 2.12 102 2.12
 227  0.625  0.625  0.351-  99 2.12  98 2.12  97 2.12 105 2.12 114 2.12
 228  0.750  0.500  0.351- 100 2.12  97 2.12  98 2.12  74 2.12 113 2.12
 229  0.626  0.502  0.649- 103 2.09 104 2.10 101 2.12  79 2.13 120 2.15
 230  0.751  0.626  0.650- 112 2.11 119 2.11 103 2.12 104 2.12 102 2.14
 231  0.625  0.625  0.549- 103 2.08  99 2.11 109 2.11 102 2.12 118 2.12 101 2.13
 232  0.750  0.500  0.549- 104 2.09 117 2.11 100 2.11 102 2.12  78 2.12 101 2.13
 233  0.625  0.750  0.450- 105 2.12  99 2.12 107 2.12 108 2.12 124 2.12 109 2.12
 234  0.750  0.875  0.450- 106 2.12  68 2.12 107 2.12 108 2.12 123 2.12 110 2.12
 235  0.625  0.875  0.351- 107 2.12 105 2.12 106 2.12  65 2.12 122 2.12
 236  0.750  0.750  0.351- 108 2.12 105 2.12 106 2.12  98 2.12 121 2.12
 237  0.625  0.750  0.650- 111 2.11 112 2.12 103 2.12 128 2.12 109 2.15
 238  0.750  0.875  0.650- 112 2.11  72 2.12 127 2.12 111 2.12 110 2.14
 239  0.625  0.875  0.549- 111 2.10 107 2.11 109 2.12  69 2.12 126 2.12 110 2.12
 240  0.750  0.750  0.549- 112 2.10 108 2.11 110 2.12 125 2.12 102 2.12 109 2.12
 241  0.875  0.500  0.450- 113 2.12  91 2.12 100 2.12  52 2.12 115 2.12 117 2.12
 242  0.500  0.625  0.450- 114 2.12  99 2.12  51 2.12 116 2.12 124 2.12 118 2.12
 243  0.875  0.625  0.351- 115 2.12  98 2.12 113 2.12  50 2.12 121 2.12
 244  0.500  0.500  0.351- 116 2.12  90 2.12  97 2.12 114 2.12  49 2.12
 245  0.875  0.500  0.650-  56 2.11 119 2.12 104 2.12  95 2.12 117 2.15
 246  0.500  0.626  0.652- 128 2.11 103 2.13  55 2.13 120 2.15 118 2.17
 247  0.875  0.625  0.549- 119 2.10 115 2.11  54 2.12 125 2.12 102 2.12 117 2.12
 248  0.500  0.501  0.550- 118 2.10  53 2.11 101 2.11 116 2.12  94 2.13 120 2.14
 249  0.875  0.750  0.450- 121 2.12 108 2.12 115 2.12  60 2.12 123 2.12 125 2.12
 250  0.500  0.875  0.450- 122 2.12  84 2.12 107 2.12  59 2.12 124 2.12 126 2.12
 251  0.875  0.875  0.351- 123 2.12  81 2.12 106 2.12 121 2.12  58 2.12
 252  0.500  0.750  0.351- 124 2.12 105 2.12 114 2.12 122 2.12  57 2.12
 253  0.875  0.750  0.650-  64 2.11 127 2.11 112 2.12 119 2.12 125 2.14
 254  0.500  0.875  0.650- 128 2.11  88 2.11 111 2.12  63 2.12 126 2.14
 255  0.875  0.875  0.549- 127 2.10 123 2.11  62 2.12  85 2.12 125 2.12 110 2.12
 256  0.500  0.750  0.550- 128 2.09 124 2.12  61 2.12 109 2.12 126 2.12 118 2.12


IMPORTANT INFORMATION: All symmetrisations will be switched off!
NOSYMM: (Re-)initialisation of all symmetry stuff for point group C_1.


----------------------------------------------------------------------------------------

                                     Primitive cell                                     

  volume of cell :    6122.6422

  direct lattice vectors                    reciprocal lattice vectors
    16.934285261  0.000000000  0.000000000     0.059051798  0.000000000  0.000000000
     0.000000000 16.934285261  0.000000000     0.000000000  0.059051798  0.000000000
     0.000000000  0.000000000 21.350356973     0.000000000  0.000000000  0.046837624

  length of vectors
    16.934285261 16.934285261 21.350356973     0.059051798  0.059051798  0.046837624

  position of ions in fractional coordinates (direct lattice)
     0.125000000  0.000000000  0.351282183
     0.250000000  0.125000000  0.351282183
     0.125000000  0.125000000  0.450427394
     0.250000000  0.000000000  0.450427394
     0.124976460  0.999995091  0.549662152
     0.249963527  0.125000295  0.549598213
     0.124898938  0.124832303  0.647520932
     0.249821013  0.999907101  0.647494962
     0.125000000  0.250000000  0.351282183
     0.250000000  0.375000000  0.351282183
     0.125000000  0.375000000  0.450427394
     0.250000000  0.250000000  0.450427394
     0.124976666  0.250017933  0.549668808
     0.250388853  0.374968480  0.549914379
     0.124833868  0.375001886  0.647551616
     0.249853559  0.249628296  0.647168623
     0.375000000  0.000000000  0.351282183
     0.000000000  0.125000000  0.351282183
     0.375000000  0.125000000  0.450427394
     0.000000000  0.000000000  0.450427394
     0.375042764  0.999935057  0.549626224
     0.000005717  0.124969241  0.549668640
     0.374635274  0.124826722  0.646828975
     0.000006928  0.999935556  0.647533010
     0.375000000  0.250000000  0.351282183
     0.000000000  0.375000000  0.351282183
     0.375000000  0.375000000  0.450427394
     0.000000000  0.250000000  0.450427394
     0.375471394  0.250339584  0.550251992
     0.000004468  0.375026507  0.549716167
     0.375470488  0.374410050  0.650221597
     0.000012369  0.249876898  0.647516019
     0.125000000  0.500000000  0.351282183
     0.250000000  0.625000000  0.351282183
     0.125000000  0.625000000  0.450427394
     0.250000000  0.500000000  0.450427394
     0.124911611  0.499996615  0.549618992
     0.249980168  0.625089692  0.549591141
     0.124869144  0.625222728  0.647513442
     0.249790272  0.500447719  0.646760090
     0.125000000  0.750000000  0.351282183
     0.250000000  0.875000000  0.351282183
     0.125000000  0.875000000  0.450427394
     0.250000000  0.750000000  0.450427394
     0.124973364  0.750047564  0.549666833
     0.249971578  0.875021513  0.549675421
     0.124887196  0.875044506  0.647530199
     0.249785411  0.750158956  0.647517894
     0.375000000  0.500000000  0.351282183
     0.000000000  0.625000000  0.351282183
     0.375000000  0.625000000  0.450427394
     0.000000000  0.500000000  0.450427394
     0.375317952  0.499578922  0.550196235
     0.000010482  0.625041270  0.549668460
     0.374561273  0.625193168  0.647190290
     0.000003955  0.500162019  0.647543166
     0.375000000  0.750000000  0.351282183
     0.000000000  0.875000000  0.351282183
     0.375000000  0.875000000  0.450427394
     0.000000000  0.750000000  0.450427394
     0.375018374  0.750053722  0.549691142
     0.000009057  0.875035655  0.549652482
     0.374850338  0.875026557  0.647554927
     0.000016558  0.750138545  0.647505489
     0.625000000  0.000000000  0.351282183
     0.750000000  0.125000000  0.351282183
     0.625000000  0.125000000  0.450427394
     0.750000000  0.000000000  0.450427394
     0.624979677  0.999980143  0.549658807
     0.750010977  0.124958508  0.549593970
     0.625379260  0.124854433  0.647161861
     0.750200865  0.999909299  0.647490996
     0.625000000  0.250000000  0.351282183
     0.750000000  0.375000000  0.351282183
     0.625000000  0.375000000  0.450427394
     0.750000000  0.250000000  0.450427394
     0.624609184  0.250432296  0.550273169
     0.749605055  0.375045854  0.549936921
     0.624495401  0.375650955  0.650386202
     0.750178675  0.249614336  0.646797879
     0.875000000  0.000000000  0.351282183
     0.500000000  0.125000000  0.351282183
     0.875000000  0.125000000  0.450427394
     0.500000000  0.000000000  0.450427394
     0.875038626  0.999993592  0.549659775
     0.500043032  0.125404976  0.549948367
     0.875122272  0.124832145  0.647510897
     0.500025462  0.999855384  0.647549442
     0.875000000  0.250000000  0.351282183
     0.500000000  0.375000000  0.351282183
     0.875000000  0.375000000  0.450427394
     0.500000000  0.250000000  0.450427394
     0.875080655  0.250028137  0.549630004
     0.500023328  0.374891705  0.550593184
     0.875187427  0.375023761  0.647551605
     0.500596367  0.250386678  0.650546815
     0.625000000  0.500000000  0.351282183
     0.750000000  0.625000000  0.351282183
     0.625000000  0.625000000  0.450427394
     0.750000000  0.500000000  0.450427394
     0.624608171  0.499632652  0.550221931
     0.750084569  0.625037573  0.549582556
     0.625515823  0.625235369  0.646743475
     0.750177078  0.500412562  0.647145185
     0.625000000  0.750000000  0.351282183
     0.750000000  0.875000000  0.351282183
     0.625000000  0.875000000  0.450427394
     0.750000000  0.750000000  0.450427394
     0.624998461  0.750106379  0.549637600
     0.750051330  0.875017465  0.549669713
     0.625181244  0.875035481  0.647542660
     0.750249567  0.750162110  0.647503389
     0.875000000  0.500000000  0.351282183
     0.500000000  0.625000000  0.351282183
     0.875000000  0.625000000  0.450427394
     0.500000000  0.500000000  0.450427394
     0.875046742  0.500001371  0.549662820
     0.499971581  0.624632802  0.549919938
     0.875144814  0.625214633  0.647513436
     0.499332630  0.499287129  0.649945085
     0.875000000  0.750000000  0.351282183
     0.500000000  0.875000000  0.351282183
     0.875000000  0.875000000  0.450427394
     0.500000000  0.750000000  0.450427394
     0.875052833  0.750042517  0.549663552
     0.500006640  0.875024140  0.549732837
     0.875137589  0.875035758  0.647526581
     0.500009656  0.750234058  0.647596347
     0.125000000  0.000000000  0.450427394
     0.250000000  0.125000000  0.450427394
     0.125000000  0.125000000  0.351282183
     0.250000000  0.000000000  0.351282183
     0.124857757  0.999869052  0.650027094
     0.249515535  0.124486884  0.650060692
     0.124899989  0.124921248  0.549339278
     0.249931143  0.999902475  0.549332226
     0.125000000  0.250000000  0.450427394
     0.250000000  0.375000000  0.450427394
     0.125000000  0.375000000  0.351282183
     0.250000000  0.250000000  0.351282183
     0.124776669  0.249798249  0.650143288
     0.248993047  0.375135952  0.651411430
     0.124987927  0.375016039  0.549488136
     0.249625435  0.249958765  0.549363294
     0.375000000  0.000000000  0.450427394
     0.000000000  0.125000000  0.450427394
     0.375000000  0.125000000  0.351282183
     0.000000000  0.000000000  0.351282183
     0.374754179  0.999782914  0.650127651
     0.000008539  0.124875675  0.650058040
     0.374942638  0.124584416  0.549257374
     0.000008699  0.999975974  0.549394965
     0.375000000  0.250000000  0.450427394
     0.000000000  0.375000000  0.450427394
     0.375000000  0.375000000  0.351282183
     0.000000000  0.250000000  0.351282183
     0.373558513  0.248484181  0.649527028
     0.000012153  0.375012392  0.650158148
     0.374358295  0.374952888  0.549740797
     0.000007415  0.250001987  0.549374397
     0.125000000  0.500000000  0.450427394
     0.250000000  0.625000000  0.450427394
     0.125000000  0.625000000  0.351282183
     0.250000000  0.500000000  0.351282183
     0.124805880  0.500233501  0.650122379
     0.249467090  0.625525332  0.650054435
     0.124912614  0.625083865  0.549345505
     0.249597329  0.500086127  0.549232178
     0.125000000  0.750000000  0.450427394
     0.250000000  0.875000000  0.450427394
     0.125000000  0.875000000  0.351282183
     0.250000000  0.750000000  0.351282183
     0.124822147  0.750198567  0.650022094
     0.249831406  0.875020793  0.650049212
     0.124948757  0.875027227  0.549338287
     0.249924501  0.750115491  0.549366204
     0.375000000  0.500000000  0.450427394
     0.000000000  0.625000000  0.450427394
     0.375000000  0.625000000  0.351282183
     0.000000000  0.500000000  0.351282183
     0.373400977  0.501472039  0.649414957
     0.000017555  0.625206051  0.650051942
     0.374983032  0.625397460  0.549385261
     0.000004454  0.500029302  0.549448933
     0.375000000  0.750000000  0.450427394
     0.000000000  0.875000000  0.450427394
     0.375000000  0.875000000  0.351282183
     0.000000000  0.750000000  0.351282183
     0.374781079  0.750228733  0.650177818
     0.000013039  0.875022636  0.649999262
     0.375004727  0.874993530  0.549397109
     0.000017620  0.750057724  0.549321567
     0.625000000  0.000000000  0.450427394
     0.750000000  0.125000000  0.450427394
     0.625000000  0.125000000  0.351282183
     0.750000000  0.000000000  0.351282183
     0.625279657  0.999777900  0.650137382
     0.750540644  0.124509848  0.650044740
     0.625068196  0.124602188  0.549340550
     0.750089576  0.999900614  0.549329950
     0.625000000  0.250000000  0.450427394
     0.750000000  0.375000000  0.450427394
     0.625000000  0.375000000  0.351282183
     0.750000000  0.250000000  0.351282183
     0.626580855  0.248598770  0.649512077
     0.751068499  0.374969272  0.651418790
     0.625645334  0.375071680  0.549770079
     0.750415921  0.249959549  0.549269267
     0.875000000  0.000000000  0.450427394
     0.500000000  0.125000000  0.450427394
     0.875000000  0.125000000  0.351282183
     0.500000000  0.000000000  0.351282183
     0.875163335  0.999864805  0.650022523
     0.499934426  0.123933751  0.651245571
     0.875112651  0.124925022  0.549335598
     0.500007660  0.999956893  0.549525635
     0.875000000  0.250000000  0.450427394
     0.500000000  0.375000000  0.450427394
     0.875000000  0.375000000  0.351282183
     0.500000000  0.250000000  0.351282183
     0.875246263  0.249795947  0.650122141
     0.499977266  0.375022905  0.647599944
     0.875032977  0.375030107  0.549485154
     0.500059652  0.249360707  0.549763215
     0.625000000  0.500000000  0.450427394
     0.750000000  0.625000000  0.450427394
     0.625000000  0.625000000  0.351282183
     0.750000000  0.500000000  0.351282183
     0.626431891  0.501671225  0.649420292
     0.750530914  0.625559295  0.650038542
     0.625027385  0.625423410  0.549269239
     0.750390137  0.500085593  0.549342735
     0.625000000  0.750000000  0.450427394
     0.750000000  0.875000000  0.450427394
     0.625000000  0.875000000  0.351282183
     0.750000000  0.750000000  0.351282183
     0.625250445  0.750234916  0.650129528
     0.750196141  0.875008421  0.650038155
     0.625014727  0.875005336  0.549387412
     0.750096478  0.750104571  0.549358192
     0.875000000  0.500000000  0.450427394
     0.500000000  0.625000000  0.450427394
     0.875000000  0.625000000  0.351282183
     0.500000000  0.500000000  0.351282183
     0.875221235  0.500243615  0.650142195
     0.500123883  0.626024254  0.651677341
     0.875114850  0.625085484  0.549343021
     0.499935856  0.500632150  0.549756780
     0.875000000  0.750000000  0.450427394
     0.500000000  0.875000000  0.450427394
     0.875000000  0.875000000  0.351282183
     0.500000000  0.750000000  0.351282183
     0.875215266  0.750192100  0.650016181
     0.500017522  0.875006347  0.650187346
     0.875071863  0.875020183  0.549335777
     0.500004272  0.749989736  0.549551493

  ion indices of the primitive-cell ions
   primitive index   ion index
                 1           1
                 2           2
                 3           3
                 4           4
                 5           5
                 6           6
                 7           7
                 8           8
                 9           9
                10          10
                11          11
                12          12
                13          13
                14          14
                15          15
                16          16
                17          17
                18          18
                19          19
                20          20
                21          21
                22          22
                23          23
                24          24
                25          25
                26          26
                27          27
                28          28
                29          29
                30          30
                31          31
                32          32
                33          33
                34          34
                35          35
                36          36
                37          37
                38          38
                39          39
                40          40
                41          41
                42          42
                43          43
                44          44
                45          45
                46          46
                47          47
                48          48
                49          49
                50          50
                51          51
                52          52
                53          53
                54          54
                55          55
                56          56
                57          57
                58          58
                59          59
                60          60
                61          61
                62          62
                63          63
                64          64
                65          65
                66          66
                67          67
                68          68
                69          69
                70          70
                71          71
                72          72
                73          73
                74          74
                75          75
                76          76
                77          77
                78          78
                79          79
                80          80
                81          81
                82          82
                83          83
                84          84
                85          85
                86          86
                87          87
                88          88
                89          89
                90          90
                91          91
                92          92
                93          93
                94          94
                95          95
                96          96
                97          97
                98          98
                99          99
               100         100
               101         101
               102         102
               103         103
               104         104
               105         105
               106         106
               107         107
               108         108
               109         109
               110         110
               111         111
               112         112
               113         113
               114         114
               115         115
               116         116
               117         117
               118         118
               119         119
               120         120
               121         121
               122         122
               123         123
               124         124
               125         125
               126         126
               127         127
               128         128
               129         129
               130         130
               131         131
               132         132
               133         133
               134         134
               135         135
               136         136
               137         137
               138         138
               139         139
               140         140
               141         141
               142         142
               143         143
               144         144
               145         145
               146         146
               147         147
               148         148
               149         149
               150         150
               151         151
               152         152
               153         153
               154         154
               155         155
               156         156
               157         157
               158         158
               159         159
               160         160
               161         161
               162         162
               163         163
               164         164
               165         165
               166         166
               167         167
               168         168
               169         169
               170         170
               171         171
               172         172
               173         173
               174         174
               175         175
               176         176
               177         177
               178         178
               179         179
               180         180
               181         181
               182         182
               183         183
               184         184
               185         185
               186         186
               187         187
               188         188
               189         189
               190         190
               191         191
               192         192
               193         193
               194         194
               195         195
               196         196
               197         197
               198         198
               199         199
               200         200
               201         201
               202         202
               203         203
               204         204
               205         205
               206         206
               207         207
               208         208
               209         209
               210         210
               211         211
               212         212
               213         213
               214         214
               215         215
               216         216
               217         217
               218         218
               219         219
               220         220
               221         221
               222         222
               223         223
               224         224
               225         225
               226         226
               227         227
               228         228
               229         229
               230         230
               231         231
               232         232
               233         233
               234         234
               235         235
               236         236
               237         237
               238         238
               239         239
               240         240
               241         241
               242         242
               243         243
               244         244
               245         245
               246         246
               247         247
               248         248
               249         249
               250         250
               251         251
               252         252
               253         253
               254         254
               255         255
               256         256

----------------------------------------------------------------------------------------



 KPOINTS: pymatgen v2020.8.13 with grid density = 

Automatic generation of k-mesh.
 Grid dimensions read from file:
 generate k-points for:    1    1    1

 Generating k-lattice:

  Cartesian coordinates                     Fractional coordinates (reciprocal lattice)
     0.059051798  0.000000000  0.000000000     1.000000000  0.000000000  0.000000000
     0.000000000  0.059051798  0.000000000     0.000000000  1.000000000  0.000000000
     0.000000000  0.000000000  0.046837624     0.000000000  0.000000000  1.000000000

  Length of vectors
     0.059051798  0.059051798  0.046837624

  Shift w.r.t. Gamma in fractional coordinates (k-lattice)
     0.000000000  0.000000000  0.000000000

 
 Subroutine IBZKPT returns following result:
 ===========================================
 
 Found      1 irreducible k-points:
 
 Following reciprocal coordinates:
            Coordinates               Weight
  0.000000  0.000000  0.000000      1.000000
 
 Following cartesian coordinates:
            Coordinates               Weight
  0.000000  0.000000  0.000000      1.000000
 
 
 Subroutine IBZKPT_HF returns following result:
 ==============================================
 
 Found      1 k-points in 1st BZ
 the following      1 k-points will be used (e.g. in the exchange kernel)
 Following reciprocal coordinates:   # in IRBZ
  0.000000  0.000000  0.000000    1.00000000   1 t-inv F


--------------------------------------------------------------------------------------------------------




 Dimension of arrays:
   k-points           NKPTS =      1   k-points in BZ     NKDIM =      1   number of bands    NBANDS=   1152
   number of dos      NEDOS =    301   number of ions     NIONS =    256
   non local maximal  LDIM  =      5   non local SUM 2l+1 LMDIM =     13
   total plane-waves  NPLWV = ******
   max r-space proj   IRMAX =   3733   max aug-charges    IRDMAX=   8375
   dimension x,y,z NGX =   126 NGY =  126 NGZ =  160
   dimension x,y,z NGXF=   252 NGYF=  252 NGZF=  320
   support grid    NGXF=   252 NGYF=  252 NGZF=  320
   ions per type =             128 128
   NGX,Y,Z   is equivalent  to a cutoff of  12.37, 12.37, 12.46 a.u.
   NGXF,Y,Z  is equivalent  to a cutoff of  24.74, 24.74, 24.92 a.u.

 SYSTEM =  MgO-rocksalt                            
 POSCAR =  Mg  O                                   

--------------------------------------------------------------------------------------------------------


  energy-cutoff  :      520.00
  volume of cell :     6122.64
      direct lattice vectors                 reciprocal lattice vectors
    16.934285261  0.000000000  0.000000000     0.059051798  0.000000000  0.000000000
     0.000000000 16.934285261  0.000000000     0.000000000  0.059051798  0.000000000
     0.000000000  0.000000000 21.350356973     0.000000000  0.000000000  0.046837624

  length of vectors
    16.934285261 16.934285261 21.350356973     0.059051798  0.059051798  0.046837624



 k-points in units of 2pi/SCALE and weight: pymatgen v2020.8.13 with grid density = 
   0.00000000  0.00000000  0.00000000       1.000

 k-points in reciprocal lattice and weights: pymatgen v2020.8.13 with grid density = 
   0.00000000  0.00000000  0.00000000       1.000

 position of ions in fractional coordinates (direct lattice) 
   0.12500000  0.00000000  0.35128218
   0.25000000  0.12500000  0.35128218
   0.12500000  0.12500000  0.45042739
   0.25000000  0.00000000  0.45042739
   0.12497646  0.99999509  0.54966215
   0.24996353  0.12500029  0.54959821
   0.12489894  0.12483230  0.64752093
   0.24982101  0.99990710  0.64749496
   0.12500000  0.25000000  0.35128218
   0.25000000  0.37500000  0.35128218
   0.12500000  0.37500000  0.45042739
   0.25000000  0.25000000  0.45042739
   0.12497667  0.25001793  0.54966881
   0.25038885  0.37496848  0.54991438
   0.12483387  0.37500189  0.64755162
   0.24985356  0.24962830  0.64716862
   0.37500000  0.00000000  0.35128218
   0.00000000  0.12500000  0.35128218
   0.37500000  0.12500000  0.45042739
   0.00000000  0.00000000  0.45042739
   0.37504276  0.99993506  0.54962622
   0.00000572  0.12496924  0.54966864
   0.37463527  0.12482672  0.64682897
   0.00000693  0.99993556  0.64753301
   0.37500000  0.25000000  0.35128218
   0.00000000  0.37500000  0.35128218
   0.37500000  0.37500000  0.45042739
   0.00000000  0.25000000  0.45042739
   0.37547139  0.25033958  0.55025199
   0.00000447  0.37502651  0.54971617
   0.37547049  0.37441005  0.65022160
   0.00001237  0.24987690  0.64751602
   0.12500000  0.50000000  0.35128218
   0.25000000  0.62500000  0.35128218
   0.12500000  0.62500000  0.45042739
   0.25000000  0.50000000  0.45042739
   0.12491161  0.49999661  0.54961899
   0.24998017  0.62508969  0.54959114
   0.12486914  0.62522273  0.64751344
   0.24979027  0.50044772  0.64676009
   0.12500000  0.75000000  0.35128218
   0.25000000  0.87500000  0.35128218
   0.12500000  0.87500000  0.45042739
   0.25000000  0.75000000  0.45042739
   0.12497336  0.75004756  0.54966683
   0.24997158  0.87502151  0.54967542
   0.12488720  0.87504451  0.64753020
   0.24978541  0.75015896  0.64751789
   0.37500000  0.50000000  0.35128218
   0.00000000  0.62500000  0.35128218
   0.37500000  0.62500000  0.45042739
   0.00000000  0.50000000  0.45042739
   0.37531795  0.49957892  0.55019623
   0.00001048  0.62504127  0.54966846
   0.37456127  0.62519317  0.64719029
   0.00000396  0.50016202  0.64754317
   0.37500000  0.75000000  0.35128218
   0.00000000  0.87500000  0.35128218
   0.37500000  0.87500000  0.45042739
   0.00000000  0.75000000  0.45042739
   0.37501837  0.75005372  0.54969114
   0.00000906  0.87503566  0.54965248
   0.37485034  0.87502656  0.64755493
   0.00001656  0.75013854  0.64750549
   0.62500000  0.00000000  0.35128218
   0.75000000  0.12500000  0.35128218
   0.62500000  0.12500000  0.45042739
   0.75000000  0.00000000  0.45042739
   0.62497968  0.99998014  0.54965881
   0.75001098  0.12495851  0.54959397
   0.62537926  0.12485443  0.64716186
   0.75020087  0.99990930  0.64749100
   0.62500000  0.25000000  0.35128218
   0.75000000  0.37500000  0.35128218
   0.62500000  0.37500000  0.45042739
   0.75000000  0.25000000  0.45042739
   0.62460918  0.25043230  0.55027317
   0.74960505  0.37504585  0.54993692
   0.62449540  0.37565096  0.65038620
   0.75017868  0.24961434  0.64679788
   0.87500000  0.00000000  0.35128218
   0.50000000  0.12500000  0.35128218
   0.87500000  0.12500000  0.45042739
   0.50000000  0.00000000  0.45042739
   0.87503863  0.99999359  0.54965978
   0.50004303  0.12540498  0.54994837
   0.87512227  0.12483215  0.64751090
   0.50002546  0.99985538  0.64754944
   0.87500000  0.25000000  0.35128218
   0.50000000  0.37500000  0.35128218
   0.87500000  0.37500000  0.45042739
   0.50000000  0.25000000  0.45042739
   0.87508065  0.25002814  0.54963000
   0.50002333  0.37489170  0.55059318
   0.87518743  0.37502376  0.64755160
   0.50059637  0.25038668  0.65054681
   0.62500000  0.50000000  0.35128218
   0.75000000  0.62500000  0.35128218
   0.62500000  0.62500000  0.45042739
   0.75000000  0.50000000  0.45042739
   0.62460817  0.49963265  0.55022193
   0.75008457  0.62503757  0.54958256
   0.62551582  0.62523537  0.64674347
   0.75017708  0.50041256  0.64714518
   0.62500000  0.75000000  0.35128218
   0.75000000  0.87500000  0.35128218
   0.62500000  0.87500000  0.45042739
   0.75000000  0.75000000  0.45042739
   0.62499846  0.75010638  0.54963760
   0.75005133  0.87501746  0.54966971
   0.62518124  0.87503548  0.64754266
   0.75024957  0.75016211  0.64750339
   0.87500000  0.50000000  0.35128218
   0.50000000  0.62500000  0.35128218
   0.87500000  0.62500000  0.45042739
   0.50000000  0.50000000  0.45042739
   0.87504674  0.50000137  0.54966282
   0.49997158  0.62463280  0.54991994
   0.87514481  0.62521463  0.64751344
   0.49933263  0.49928713  0.64994509
   0.87500000  0.75000000  0.35128218
   0.50000000  0.87500000  0.35128218
   0.87500000  0.87500000  0.45042739
   0.50000000  0.75000000  0.45042739
   0.87505283  0.75004252  0.54966355
   0.50000664  0.87502414  0.54973284
   0.87513759  0.87503576  0.64752658
   0.50000966  0.75023406  0.64759635
   0.12500000  0.00000000  0.45042739
   0.25000000  0.12500000  0.45042739
   0.12500000  0.12500000  0.35128218
   0.25000000  0.00000000  0.35128218
   0.12485776  0.99986905  0.65002709
   0.24951553  0.12448688  0.65006069
   0.12489999  0.12492125  0.54933928
   0.24993114  0.99990247  0.54933223
   0.12500000  0.25000000  0.45042739
   0.25000000  0.37500000  0.45042739
   0.12500000  0.37500000  0.35128218
   0.25000000  0.25000000  0.35128218
   0.12477667  0.24979825  0.65014329
   0.24899305  0.37513595  0.65141143
   0.12498793  0.37501604  0.54948814
   0.24962544  0.24995877  0.54936329
   0.37500000  0.00000000  0.45042739
   0.00000000  0.12500000  0.45042739
   0.37500000  0.12500000  0.35128218
   0.00000000  0.00000000  0.35128218
   0.37475418  0.99978291  0.65012765
   0.00000854  0.12487567  0.65005804
   0.37494264  0.12458442  0.54925737
   0.00000870  0.99997597  0.54939496
   0.37500000  0.25000000  0.45042739
   0.00000000  0.37500000  0.45042739
   0.37500000  0.37500000  0.35128218
   0.00000000  0.25000000  0.35128218
   0.37355851  0.24848418  0.64952703
   0.00001215  0.37501239  0.65015815
   0.37435829  0.37495289  0.54974080
   0.00000742  0.25000199  0.54937440
   0.12500000  0.50000000  0.45042739
   0.25000000  0.62500000  0.45042739
   0.12500000  0.62500000  0.35128218
   0.25000000  0.50000000  0.35128218
   0.12480588  0.50023350  0.65012238
   0.24946709  0.62552533  0.65005443
   0.12491261  0.62508386  0.54934551
   0.24959733  0.50008613  0.54923218
   0.12500000  0.75000000  0.45042739
   0.25000000  0.87500000  0.45042739
   0.12500000  0.87500000  0.35128218
   0.25000000  0.75000000  0.35128218
   0.12482215  0.75019857  0.65002209
   0.24983141  0.87502079  0.65004921
   0.12494876  0.87502723  0.54933829
   0.24992450  0.75011549  0.54936620
   0.37500000  0.50000000  0.45042739
   0.00000000  0.62500000  0.45042739
   0.37500000  0.62500000  0.35128218
   0.00000000  0.50000000  0.35128218
   0.37340098  0.50147204  0.64941496
   0.00001755  0.62520605  0.65005194
   0.37498303  0.62539746  0.54938526
   0.00000445  0.50002930  0.54944893
   0.37500000  0.75000000  0.45042739
   0.00000000  0.87500000  0.45042739
   0.37500000  0.87500000  0.35128218
   0.00000000  0.75000000  0.35128218
   0.37478108  0.75022873  0.65017782
   0.00001304  0.87502264  0.64999926
   0.37500473  0.87499353  0.54939711
   0.00001762  0.75005772  0.54932157
   0.62500000  0.00000000  0.45042739
   0.75000000  0.12500000  0.45042739
   0.62500000  0.12500000  0.35128218
   0.75000000  0.00000000  0.35128218
   0.62527966  0.99977790  0.65013738
   0.75054064  0.12450985  0.65004474
   0.62506820  0.12460219  0.54934055
   0.75008958  0.99990061  0.54932995
   0.62500000  0.25000000  0.45042739
   0.75000000  0.37500000  0.45042739
   0.62500000  0.37500000  0.35128218
   0.75000000  0.25000000  0.35128218
   0.62658085  0.24859877  0.64951208
   0.75106850  0.37496927  0.65141879
   0.62564533  0.37507168  0.54977008
   0.75041592  0.24995955  0.54926927
   0.87500000  0.00000000  0.45042739
   0.50000000  0.12500000  0.45042739
   0.87500000  0.12500000  0.35128218
   0.50000000  0.00000000  0.35128218
   0.87516334  0.99986481  0.65002252
   0.49993443  0.12393375  0.65124557
   0.87511265  0.12492502  0.54933560
   0.50000766  0.99995689  0.54952564
   0.87500000  0.25000000  0.45042739
   0.50000000  0.37500000  0.45042739
   0.87500000  0.37500000  0.35128218
   0.50000000  0.25000000  0.35128218
   0.87524626  0.24979595  0.65012214
   0.49997727  0.37502290  0.64759994
   0.87503298  0.37503011  0.54948515
   0.50005965  0.24936071  0.54976321
   0.62500000  0.50000000  0.45042739
   0.75000000  0.62500000  0.45042739
   0.62500000  0.62500000  0.35128218
   0.75000000  0.50000000  0.35128218
   0.62643189  0.50167122  0.64942029
   0.75053091  0.62555929  0.65003854
   0.62502739  0.62542341  0.54926924
   0.75039014  0.50008559  0.54934273
   0.62500000  0.75000000  0.45042739
   0.75000000  0.87500000  0.45042739
   0.62500000  0.87500000  0.35128218
   0.75000000  0.75000000  0.35128218
   0.62525044  0.75023492  0.65012953
   0.75019614  0.87500842  0.65003815
   0.62501473  0.87500534  0.54938741
   0.75009648  0.75010457  0.54935819
   0.87500000  0.50000000  0.45042739
   0.50000000  0.62500000  0.45042739
   0.87500000  0.62500000  0.35128218
   0.50000000  0.50000000  0.35128218
   0.87522123  0.50024361  0.65014219
   0.50012388  0.62602425  0.65167734
   0.87511485  0.62508548  0.54934302
   0.49993586  0.50063215  0.54975678
   0.87500000  0.75000000  0.45042739
   0.50000000  0.87500000  0.45042739
   0.87500000  0.87500000  0.35128218
   0.50000000  0.75000000  0.35128218
   0.87521527  0.75019210  0.65001618
   0.50001752  0.87500635  0.65018735
   0.87507186  0.87502018  0.54933578
   0.50000427  0.74998974  0.54955149

 position of ions in cartesian coordinates  (Angst):
   2.11678566  0.00000000  7.50000000
   4.23357132  2.11678566  7.50000000
   2.11678566  2.11678566  9.61678566
   4.23357132  0.00000000  9.61678566
   2.11638702 16.93420213 11.73548315
   4.23295367  2.11679065 11.73411803
   2.11507424  2.11394584 13.82480304
   4.23054030 16.93271209 13.82424858
   2.11678566  4.23357132  7.50000000
   4.23357132  6.35035697  7.50000000
   2.11678566  6.35035697  9.61678566
   4.23357132  4.23357132  9.61678566
   2.11639051  4.23387500 11.73562526
   4.24015626  6.34982321 11.74086829
   2.11397233  6.35038890 13.82545815
   4.23109144  4.22727678 13.81728113
   6.35035697  0.00000000  7.50000000
   0.00000000  2.11678566  7.50000000
   6.35035697  2.11678566  9.61678566
   0.00000000  0.00000000  9.61678566
   6.35108115 16.93318550 11.73471609
   0.00009681  2.11626477 11.73562168
   6.34418060  2.11385131 13.81002951
   0.00011732 16.93319396 13.82506091
   6.35035697  4.23357132  7.50000000
   0.00000000  6.35035697  7.50000000
   6.35035697  6.35035697  9.61678566
   0.00000000  4.23357132  9.61678566
   6.35833969  4.23932193 11.74807646
   0.00007566  6.35080585 11.73663640
   6.35832435  6.34036659 13.88246321
   0.00020945  4.23148666 13.82469815
   2.11678566  8.46714263  7.50000000
   4.23357132 10.58392829  7.50000000
   2.11678566 10.58392829  9.61678566
   4.23357132  8.46714263  9.61678566
   2.11528886  8.46708531 11.73456168
   4.23323547 10.58544716 11.73396704
   2.11456971 10.58770003 13.82464313
   4.23001972  8.47472444 13.80855880
   2.11678566 12.70071395  7.50000000
   4.23357132 14.81749960  7.50000000
   2.11678566 14.81749960  9.61678566
   4.23357132 12.70071395  9.61678566
   2.11633460 12.70151941 11.73558311
   4.23309001 14.81786392 11.73576645
   2.11487540 14.81825328 13.82500090
   4.22993741 12.70340576 13.82473819
   6.35035697  8.46714263  7.50000000
   0.00000000 10.58392829  7.50000000
   6.35035697 10.58392829  9.61678566
   0.00000000  8.46714263  9.61678566
   6.35574126  8.46001197 11.74688602
   0.00017751 10.58462717 11.73561783
   6.34292744 10.58719945 13.81774373
   0.00006698  8.46988631 13.82527774
   6.35035697 12.70071395  7.50000000
   0.00000000 14.81749960  7.50000000
   6.35035697 14.81749960  9.61678566
   0.00000000 12.70071395  9.61678566
   6.35066813 12.70162369 11.73610211
   0.00015337 14.81810340 11.73527671
   6.34782255 14.81794932 13.82552884
   0.00028040 12.70306011 13.82447334
  10.58392829  0.00000000  7.50000000
  12.70071395  2.11678566  7.50000000
  10.58392829  2.11678566  9.61678566
  12.70071395  0.00000000  9.61678566
  10.58358413 16.93394900 11.73541174
  12.70089984  2.11608301 11.73402744
  10.59035079  2.11432059 13.81713676
  12.70411546 16.93274930 13.82416391
  10.58392829  4.23357132  7.50000000
  12.70071395  6.35035697  7.50000000
  10.58392829  6.35035697  9.61678566
  12.70071395  4.23357132  9.61678566
  10.57731011  4.24089195 11.74852859
  12.69402583  6.35113348 11.74134957
  10.57538326  6.36138044 13.88597758
  12.70373969  4.22704037 13.80936562
  14.81749960  0.00000000  7.50000000
   8.46714263  2.11678566  7.50000000
  14.81749960  2.11678566  9.61678566
   8.46714263  0.00000000  9.61678566
  14.81815370 16.93417675 11.73543241
   8.46787135  2.12364364 11.74159395
  14.81957019  2.11394316 13.82458880
   8.46757381 16.93183629 13.82541174
  14.81749960  4.23357132  7.50000000
   8.46714263  6.35035697  7.50000000
  14.81749960  6.35035697  9.61678566
   8.46714263  4.23357132  9.61678566
  14.81886544  4.23404780 11.73479678
   8.46753768  6.34852307 11.75536102
  14.82067355  6.35075935 13.82545792
   8.47724168  4.24011944 13.88940672
  10.58392829  8.46714263  7.50000000
  12.70071395 10.58392829  7.50000000
  10.58392829 10.58392829  9.61678566
  12.70071395  8.46714263  9.61678566
  10.57729294  8.46092185 11.74743463
  12.70214606 10.58456457 11.73378375
  10.59266338 10.58791409 13.80820406
  12.70371264  8.47412907 13.81678071
  10.58392829 12.70071395  7.50000000
  12.70071395 14.81749960  7.50000000
  10.58392829 14.81749960  9.61678566
  12.70071395 12.70071395  9.61678566
  10.58390223 12.70251540 11.73495897
  12.70158318 14.81779535 11.73564459
  10.58699752 14.81810044 13.82526695
  12.70494018 12.70345917 13.82442850
  14.81749960  8.46714263  7.50000000
   8.46714263 10.58392829  7.50000000
  14.81749960 10.58392829  9.61678566
   8.46714263  8.46714263  9.61678566
  14.81829114  8.46716585 11.73549743
   8.46666138 10.57771005 11.74098698
  14.81995192 10.58756294 13.82464301
   8.45584120  8.45507066 13.87655959
  14.81749960 12.70071395  7.50000000
   8.46714263 14.81749960  7.50000000
  14.81749960 14.81749960  9.61678566
   8.46714263 12.70071395  9.61678566
  14.81839429 12.70143395 11.73551304
   8.46725507 14.81790840 11.73699232
  14.81982958 14.81810513 13.82492366
   8.46730615 12.70467756 13.82641318
   2.11678566  0.00000000  9.61678566
   4.23357132  2.11678566  9.61678566
   2.11678566  2.11678566  7.50000000
   4.23357132  0.00000000  7.50000000
   2.11437687 16.93206774 13.87831050
   4.22536724  2.10809640 13.87902784
   2.11509205  2.11545206 11.72858968
   4.23240526 16.93263374 11.72843911
   2.11678566  4.23357132  9.61678566
   4.23357132  6.35035697  9.61678566
   2.11678566  6.35035697  7.50000000
   4.23357132  4.23357132  7.50000000
   2.11300370  4.23015481 13.88079129
   4.21651929  6.35265923 13.90786657
   2.11658121  6.35062859 11.73176786
   4.22722833  4.23287304 11.72910242
   6.35035697  0.00000000  9.61678566
   0.00000000  2.11678566  9.61678566
   6.35035697  2.11678566  7.50000000
   0.00000000  0.00000000  7.50000000
   6.34619417 16.93060907 13.88045742
   0.00014459  2.11468030 13.87897120
   6.34938559  2.10974804 11.72684101
   0.00014732 16.93387840 11.72977862
   6.35035697  4.23357132  9.61678566
   0.00000000  6.35035697  9.61678566
   6.35035697  6.35035697  7.50000000
   0.00000000  4.23357132  7.50000000
   6.32594642  4.20790201 13.86763391
   0.00020580  6.35056683 13.88110856
   6.33949015  6.34955916 11.73716227
   0.00012557  4.23360497 11.72933950
   2.11678566  8.46714263  9.61678566
   4.23357132 10.58392829  9.61678566
   2.11678566 10.58392829  7.50000000
   4.23357132  8.46714263  7.50000000
   2.11349837  8.47109680 13.88034486
   4.22454687 10.59282441 13.87889423
   2.11530584 10.58534848 11.72872264
   4.22675237  8.46860112 11.72630307
   2.11678566 12.70071395  9.61678566
   4.23357132 14.81749960  9.61678566
   2.11678566 14.81749960  7.50000000
   4.23357132 12.70071395  7.50000000
   2.11377385 12.70407654 13.87820374
   4.23071629 14.81785171 13.87878272
   2.11591789 14.81796068 11.72856852
   4.23229280 12.70266971 11.72916457
   6.35035697  8.46714263  9.61678566
   0.00000000 10.58392829  9.61678566
   6.35035697 10.58392829  7.50000000
   0.00000000  8.46714263  7.50000000
   6.32327867  8.49207055 13.86524116
   0.00029728 10.58741762 13.87884101
   6.35006964 10.59065899 11.72957144
   0.00007542  8.46763884 11.73093087
   6.35035697 12.70071395  9.61678566
   0.00000000 14.81749960  9.61678566
   6.35035697 14.81749960  7.50000000
   0.00000000 12.70071395  7.50000000
   6.34664970 12.70458737 13.88152851
   0.00022081 14.81788292 13.87771627
   6.35043703 14.81739003 11.72982440
   0.00029838 12.70169147 11.72821154
  10.58392829  0.00000000  9.61678566
  12.70071395  2.11678566  9.61678566
  10.58392829  2.11678566  7.50000000
  12.70071395  0.00000000  7.50000000
  10.58866408 16.93052415 13.88066519
  12.70986937  2.10848528 13.87868725
  10.58508313  2.11004900 11.72861685
  12.70223084 16.93260223 11.72839053
  10.58392829  4.23357132  9.61678566
  12.70071395  6.35035697  9.61678566
  10.58392829  6.35035697  7.50000000
  12.70071395  4.23357132  7.50000000
  10.61069893  4.20984249 13.86731469
  12.71880821  6.34983662 13.90802370
  10.59485655  6.35157082 11.73778745
  12.70775727  4.23288630 11.72709492
  14.81749960  0.00000000  9.61678566
   8.46714263  2.11678566  9.61678566
  14.81749960  2.11678566  7.50000000
   8.46714263  0.00000000  7.50000000
  14.82026557 16.93199584 13.87821290
   8.46603218  2.09872949 13.90432541
  14.81940726  2.11551597 11.72851111
   8.46727234 16.93355528 11.73256848
  14.81749960  4.23357132  9.61678566
   8.46714263  6.35035697  9.61678566
  14.81749960  6.35035697  7.50000000
   8.46714263  4.23357132  7.50000000
  14.82166989  4.23011582 13.88033980
   8.46675764  6.35074485 13.82648999
  14.81805805  6.35086681 11.73170420
   8.46815280  4.22274535 11.73764089
  10.58392829  8.46714263  9.61678566
  12.70071395 10.58392829  9.61678566
  10.58392829 10.58392829  7.50000000
  12.70071395  8.46714263  7.50000000
  10.60817635  8.49544363 13.86535505
  12.70970460 10.59339955 13.87855493
  10.58439204 10.59109843 11.72709433
  12.70732064  8.46859209 11.72866349
  10.58392829 12.70071395  9.61678566
  12.70071395 14.81749960  9.61678566
  10.58392829 14.81749960  7.50000000
  12.70071395 12.70071395  7.50000000
  10.58816939 12.70469208 13.88049750
  12.70403545 14.81764220 13.87854665
  10.58417768 14.81758996 11.72961736
  12.70234773 12.70248479 11.72899351
  14.81749960  8.46714263  9.61678566
   8.46714263 10.58392829  9.61678566
  14.81749960 10.58392829  7.50000000
   8.46714263  8.46714263  7.50000000
  14.82124606  8.47126807 13.88076794
   8.46924050 10.60127330 13.91354387
  14.81944450 10.58537590 11.72866960
   8.46605640  8.47784763 11.73750349
  14.81749960 12.70071395  9.61678566
   8.46714263 14.81749960  9.61678566
  14.81749960 14.81749960  7.50000000
   8.46714263 12.70071395  7.50000000
  14.82114498 12.70396702 13.87807751
   8.46743935 14.81760709 13.88173193
  14.81871656 14.81784139 11.72851494
   8.46721498 12.70054012 11.73312055



--------------------------------------------------------------------------------------------------------


--------------------------------------- Iteration      FINAL  ---------------------------------------


--------------------OUTCAR has been truncated-------------------------


--------------------OUTCAR has been truncated-------------------------


--------------------OUTCAR has been truncated-------------------------


--------------------OUTCAR has been truncated-------------------------


--------------------OUTCAR has been truncated-------------------------


--------------------OUTCAR has been truncated-------------------------


--------------------OUTCAR has been truncated-------------------------


--------------------OUTCAR has been truncated-------------------------


--------------------OUTCAR has been truncated-------------------------


--------------------OUTCAR has been truncated-------------------------


  DFT-D2 method for vdW energy calculation
  -------------------------------------------------------------------

  Parameters of vdW forcefield:
         C6(Jnm^6/mol)     R0(A)
   -----------------------------
   Mg       0.630          1.243
   O        0.700          1.342

  vdW correction parametrized for the method       

  IVDW =   1
  VDW_RADIUS =    50.000 A
  VDW_S6 =     1.050
  VDW_SR =     1.000
  VDW_D =    20.000
  LVDW_EWALD = F

  Number of pair interactions contributing to vdW energy: 2843584
  Edisp (eV):  -20.12297
    FORVDW:  cpu time      0.7389: real time      0.7390

 VOLUME and BASIS-vectors are now :
 -----------------------------------------------------------------------------
  energy-cutoff  :      520.00
  volume of cell :     6122.64
      direct lattice vectors                 reciprocal lattice vectors
    16.934285261  0.000000000  0.000000000     0.059051798  0.000000000  0.000000000
     0.000000000 16.934285261  0.000000000     0.000000000  0.059051798  0.000000000
     0.000000000  0.000000000 21.350356973     0.000000000  0.000000000  0.046837624

  length of vectors
    16.934285261 16.934285261 21.350356973     0.059051798  0.059051798  0.046837624


 FORCES acting on ions:
    Electron-Ion                     Ewald-Force                    Non-Local-Force
 -----------------------------------------------------------------------------------------------
   -.361E+00 -.353E+00 0.206E+04   0.351E+00 0.342E+00 -.205E+04   0.680E-02 0.725E-02 -.639E+01
   -.793E+00 -.801E+00 0.206E+04   0.779E+00 0.788E+00 -.205E+04   0.950E-02 0.893E-02 -.637E+01
   -.790E+00 -.106E+01 0.684E+03   0.752E+00 0.103E+01 -.684E+03   0.254E-01 0.177E-01 0.270E+00
   -.991E+00 -.749E+00 0.684E+03   0.962E+00 0.711E+00 -.684E+03   0.197E-01 0.259E-01 0.264E+00
   -.729E+00 -.658E+00 -.685E+03   0.705E+00 0.633E+00 0.685E+03   0.150E-01 0.141E-01 -.220E+00
   -.180E+01 -.205E+01 -.684E+03   0.166E+01 0.193E+01 0.684E+03   0.898E-01 0.710E-01 -.152E+00
   0.614E-01 -.132E+01 -.204E+04   -.519E-01 0.131E+01 0.204E+04   -.283E-01 0.444E-02 0.536E+01
   -.121E+01 0.135E+00 -.204E+04   0.122E+01 -.115E+00 0.204E+04   -.103E-01 -.374E-01 0.535E+01
   -.623E+00 -.481E+00 0.206E+04   0.612E+00 0.473E+00 -.205E+04   0.770E-02 0.564E-02 -.638E+01
   -.114E+01 0.233E-01 0.205E+04   0.112E+01 -.233E-01 -.205E+04   0.122E-01 0.183E-03 -.638E+01
   -.152E+01 0.111E+00 0.682E+03   0.154E+01 -.113E+00 -.682E+03   -.675E-02 0.143E-02 0.322E+00
   -.285E+01 -.154E+01 0.682E+03   0.283E+01 0.155E+01 -.682E+03   0.185E-01 -.737E-02 0.318E+00
   -.730E+00 -.161E+01 -.685E+03   0.713E+00 0.160E+01 0.686E+03   -.166E-01 -.233E-02 -.209E+00
   -.227E+01 0.109E+00 -.693E+03   0.239E+01 -.142E+00 0.693E+03   -.193E+00 0.294E-01 0.134E+00
   -.130E+00 -.163E-01 -.204E+04   0.201E+00 0.400E-01 0.203E+04   -.939E-01 -.133E-01 0.525E+01
   0.996E+00 -.398E+01 -.204E+04   -.126E+01 0.380E+01 0.203E+04   0.642E-01 0.164E+00 0.534E+01
   -.502E+00 -.591E+00 0.206E+04   0.494E+00 0.578E+00 -.205E+04   0.596E-02 0.855E-02 -.638E+01
   -.542E-02 -.505E+00 0.206E+04   0.553E-02 0.492E+00 -.205E+04   -.735E-04 0.854E-02 -.639E+01
   -.159E+01 -.291E+01 0.682E+03   0.160E+01 0.288E+01 -.682E+03   -.634E-02 0.193E-01 0.295E+00
[...]
      2.11633     12.70152     11.73558        -0.008004      0.007292      0.023369
      4.23309     14.81786     11.73577        -0.008439     -0.001787      0.025901
      2.11488     14.81825     13.82500         0.000612     -0.001699      0.022450
      4.22994     12.70341     13.82474         0.004700      0.013787      0.034178
      6.35036      8.46714      7.50000        -0.002755      0.002972      0.503843
      0.00000     10.58393      7.50000        -0.000034      0.003043      0.509684
      6.35036     10.58393      9.61679         0.004620      0.002296      0.002517
      0.00000      8.46714      9.61679        -0.001605      0.005935     -0.001777
      6.35574      8.46001     11.74689        -0.059464      0.066666     -0.115687
      0.00018     10.58463     11.73562        -0.000108      0.009962      0.027785
      6.34293     10.58720     13.81774         0.008760      0.169401      0.097867
      0.00007      8.46989     13.82528         0.004469     -0.001674      0.041328
      6.35036     12.70071      7.50000        -0.002179      0.002648      0.507796
      0.00000     14.81750      7.50000         0.000019      0.000034      0.510554
      6.35036     14.81750      9.61679        -0.005130     -0.002315     -0.000183
      0.00000     12.70071      9.61679         0.000549      0.003701      0.001362
      6.35067     12.70162     11.73610        -0.006658      0.025970      0.032755
      0.00015     14.81810     11.73528         0.000142     -0.002516      0.024846
      6.34782     14.81795     13.82553         0.001871     -0.003358      0.038964
      0.00028     12.70306     13.82447        -0.000318     -0.001247      0.027477
     10.58393      0.00000      7.50000         0.001847     -0.002553      0.507492
     12.70071      2.11679      7.50000         0.003070     -0.002626      0.505359
     10.58393      2.11679      9.61679        -0.003826      0.001073     -0.001289
     12.70071      0.00000      9.61679         0.006384     -0.009536     -0.001739
     10.58358     16.93395     11.73541         0.013120     -0.033438      0.028789
     12.70090      2.11608     11.73403         0.039786     -0.039987      0.009497
     10.59035      2.11432     13.81714         0.026728     -0.180683      0.081888
     12.70412     16.93275     13.82416         0.003183     -0.020427      0.034386
     10.58393      4.23357      7.50000         0.003149     -0.002451      0.504272
     12.70071      6.35036      7.50000         0.003798     -0.000173      0.507822
     10.58393      6.35036      9.61679         0.011793      0.001266     -0.008886
     12.70071      4.23357      9.61679         0.000210      0.004850     -0.003608
     10.57731      4.24089     11.74853         0.061278     -0.058662     -0.127712
     12.69403      6.35113     11.74135         0.084499      0.004043      0.002241
     10.57538      6.36138     13.88598         0.431332     -0.044874     -0.542620
     12.70374      4.22704     13.80937         0.168528      0.007729      0.151624
     14.81750      0.00000      7.50000         0.002382     -0.002345      0.509943
      8.46714      2.11679      7.50000         0.000090     -0.003739      0.507537
     14.81750      2.11679      9.61679         0.009123     -0.006021     -0.000477
      8.46714      0.00000      9.61679         0.001037      0.006936      0.006076
     14.81815     16.93418     11.73543         0.007645     -0.008727      0.024716
      8.46787      2.12364     11.74159         0.001745     -0.081030     -0.007482
     14.81957      2.11394     13.82459         0.020200      0.002532      0.032773
      8.46757     16.93184     13.82541        -0.006197     -0.044263      0.080634
     14.81750      4.23357      7.50000         0.002201     -0.001606      0.507431
      8.46714      6.35036      7.50000         0.000219      0.000073      0.497114
     14.81750      6.35036      9.61679        -0.007448      0.001272      0.007986
      8.46714      4.23357      9.61679         0.002406     -0.012168     -0.011812
     14.81887      4.23405     11.73480         0.032946     -0.009680      0.031781
      8.46754      6.34852     11.75536        -0.000986      0.003401     -0.325133
     14.82067      6.35076     13.82546         0.031828     -0.003524      0.082833
      8.47724      4.24012     13.88941        -0.056802     -0.406387     -0.568762
     10.58393      8.46714      7.50000         0.002760      0.002844      0.504136
     12.70071     10.58393      7.50000         0.003133      0.003541      0.505351
     10.58393     10.58393      9.61679        -0.004188      0.002252     -0.001715
     12.70071      8.46714      9.61679         0.000950     -0.003714     -0.000762
     10.57729      8.46092     11.74743         0.059197      0.065745     -0.117467
     12.70215     10.58456     11.73378         0.035431      0.036708      0.014497
     10.59266     10.58791     13.80820        -0.031786      0.156343      0.173004
     12.70371      8.47413     13.81678         0.169158      0.014348      0.091045
     10.58393     12.70071      7.50000         0.002116      0.002698      0.507485
     12.70071     14.81750      7.50000         0.002903     -0.000355      0.509658
     10.58393     14.81750      9.61679         0.005464      0.001136     -0.000677
     12.70071     12.70071      9.61679         0.007039      0.009726      0.000661
     10.58390     12.70252     11.73496         0.006842      0.027182      0.037015
     12.70158     14.81780     11.73564         0.007727     -0.001645      0.026107
     10.58700     14.81810     13.82527        -0.002031     -0.011856      0.039078
     12.70494     12.70346     13.82443        -0.010263      0.013546      0.036452
     14.81750      8.46714      7.50000         0.002541      0.001962      0.507639
      8.46714     10.58393      7.50000        -0.000029      0.004089      0.507935
     14.81750     10.58393      9.61679         0.010204      0.006728     -0.000691
      8.46714      8.46714      9.61679        -0.001399      0.010221     -0.009122
     14.81829      8.46717     11.73550         0.028132      0.009694      0.031983
      8.46666     10.57771     11.74099        -0.002705      0.084891      0.021520
     14.81995     10.58756     13.82464         0.016221      0.000981      0.031593
      8.45584      8.45507     13.87656         0.063516      0.482192     -0.471259
     14.81750     12.70071      7.50000         0.002031      0.002427      0.509933
      8.46714     14.81750      7.50000        -0.000013     -0.000122      0.506343
     14.81750     14.81750      9.61679         0.003397      0.000096      0.002112
      8.46714     12.70071      9.61679        -0.000990     -0.006952      0.010644
     14.81839     12.70143     11.73551         0.007114      0.007827      0.023479
      8.46726     14.81791     11.73699         0.000074     -0.007523      0.034582
     14.81983     14.81811     13.82492        -0.000442     -0.001140      0.022398
      8.46731     12.70468     13.82641         0.006506      0.006680      0.090769
      2.11679      0.00000      9.61679         0.003924      0.003749     -0.001618
      4.23357      2.11679      9.61679         0.004850      0.005403      0.014982
      2.11679      2.11679      7.50000         0.001076      0.001048     -0.392758
      4.23357      0.00000      7.50000         0.003497      0.003722     -0.394443
      2.11438     16.93207     13.87831         0.007195      0.008331     -0.165430
      4.22537      2.10810     13.87903         0.058558      0.063301     -0.202761
      2.11509      2.11545     11.72859         0.015564      0.011104     -0.015196
      4.23241     16.93263     11.72844         0.010233      0.016006     -0.017780
      2.11679      4.23357      9.61679        -0.000983      0.004512      0.008885
      4.23357      6.35036      9.61679         0.012710      0.000349      0.027856
      2.11679      6.35036      7.50000        -0.000331      0.002533     -0.391612
      4.23357      4.23357      7.50000         0.004146      0.001303     -0.394503
      2.11300      4.23015     13.88079         0.027914      0.002692     -0.199005
      4.21652      6.35266     13.90787         0.283411     -0.035407     -0.265978
      2.11658      6.35063     11.73177         0.028813     -0.002242     -0.013112
      4.22723      4.23287     11.72910         0.084618      0.018044      0.031126
      6.35036      0.00000      9.61679         0.003807     -0.002280      0.004381
      0.00000      2.11679      9.61679         0.000301      0.006341      0.000120
      6.35036      2.11679      7.50000         0.003599      0.001498     -0.390842
      0.00000      0.00000      7.50000        -0.000016      0.002440     -0.396534
      6.34619     16.93061     13.88046         0.007631      0.028782     -0.207170
      0.00014      2.11468     13.87897         0.001196      0.000422     -0.172046
      6.34939      2.10975     11.72684         0.025546      0.085079      0.036957
      0.00015     16.93388     11.72978        -0.000399      0.004598     -0.015449
      6.35036      4.23357      9.61679         0.019929      0.014642      0.065993
      0.00000      6.35036      9.61679         0.000497      0.000071      0.015002
      6.35036      6.35036      7.50000         0.007690      0.002509     -0.388898
      0.00000      4.23357      7.50000         0.000022      0.002636     -0.394485
      6.32595      4.20790     13.86763         0.362852      0.353856      0.111140
      0.00021      6.35057     13.88111        -0.000793     -0.001829     -0.187568
      6.33949      6.34956     11.73716         0.134947     -0.006341      0.143732
      0.00013      4.23360     11.72934         0.001755      0.005764     -0.022868
      2.11679      8.46714      9.61679        -0.002641     -0.004115      0.003113
      4.23357     10.58393      9.61679         0.007258     -0.004298      0.014129
      2.11679     10.58393      7.50000         0.001046     -0.005840     -0.392616
      4.23357      8.46714      7.50000         0.003899     -0.001253     -0.392694
      2.11350      8.47110     13.88034         0.019441     -0.005300     -0.211230
      4.22455     10.59282     13.87889         0.057958     -0.053565     -0.204613
      2.11531     10.58535     11.72872         0.012023     -0.008971     -0.019533
      4.22675      8.46860     11.72630         0.081543     -0.022837      0.028753
      2.11679     12.70071      9.61679         0.002020     -0.002028      0.001076
      4.23357     14.81750      9.61679         0.005335      0.002266      0.003244
      2.11679     14.81750      7.50000        -0.000155      0.002683     -0.394917
      4.23357     12.70071      7.50000         0.003266     -0.003256     -0.396586
      2.11377     12.70408     13.87820         0.005699     -0.006059     -0.166940
      4.23072     14.81785     13.87878        -0.000138      0.002366     -0.172047
      2.11592     14.81796     11.72857         0.004276      0.000840     -0.015234
      4.23229     12.70267     11.72916         0.007948     -0.013076     -0.019013
      6.35036      8.46714      9.61679         0.013060     -0.016594      0.060252
      0.00000     10.58393      9.61679         0.000580     -0.003874      0.000229
      6.35036     10.58393      7.50000         0.003559     -0.006670     -0.390871
      0.00000      8.46714      7.50000         0.000086     -0.002485     -0.394361
      6.32328      8.49207     13.86524         0.365136     -0.368386      0.102728
      0.00030     10.58742     13.87884        -0.002275     -0.001323     -0.171477
      6.35007     10.59066     11.72957         0.013539     -0.082122      0.020584
      0.00008      8.46764     11.73093        -0.001467     -0.007480     -0.024913
      6.35036     12.70071      9.61679         0.006647      0.000703      0.009576
      0.00000     14.81750      9.61679         0.000339      0.000382     -0.003563
      6.35036     14.81750      7.50000         0.004960      0.002860     -0.392723
      0.00000     12.70071      7.50000         0.000013     -0.002131     -0.396748
      6.34665     12.70459     13.88153        -0.001613     -0.018094     -0.202455
      0.00022     14.81788     13.87772        -0.000580      0.001353     -0.159696
      6.35044     14.81739     11.72982         0.005299      0.003049     -0.023266
      0.00030     12.70169     11.72821        -0.000781     -0.003961     -0.015398
     10.58393      0.00000      9.61679        -0.002949      0.000316      0.005881
     12.70071      2.11679      9.61679        -0.006105      0.003354      0.014733
     10.58393      2.11679      7.50000        -0.003634      0.001652     -0.390885
     12.70071      0.00000      7.50000        -0.003323      0.003601     -0.394560
     10.58866     16.93052     13.88067        -0.009048      0.034776     -0.196501
     12.70987      2.10849     13.87869        -0.068373      0.056999     -0.201109
     10.58508      2.11005     11.72862        -0.023026      0.083675      0.035785
     12.70223     16.93260     11.72839        -0.011360      0.015278     -0.016263
     10.58393      4.23357      9.61679        -0.017638      0.017565      0.066985
     12.70071      6.35036      9.61679        -0.012939      0.003435      0.029202
     10.58393      6.35036      7.50000        -0.007790      0.002553     -0.388782
     12.70071      4.23357      7.50000        -0.003819      0.001196     -0.394702
     10.61070      4.20984     13.86731        -0.379043      0.345211      0.117730
     12.71881      6.34984     13.90802        -0.295062      0.023573     -0.260973
     10.59486      6.35157     11.73779        -0.132896     -0.006013      0.143581
     12.70776      4.23289     11.72709        -0.087305      0.020746      0.035699
     14.81750      0.00000      9.61679        -0.003408      0.003407     -0.001662
      8.46714      2.11679      9.61679         0.001230      0.014108      0.027853
     14.81750      2.11679      7.50000        -0.001055      0.001087     -0.392649
      8.46714      0.00000      7.50000        -0.000098      0.002200     -0.393255
     14.82027     16.93200     13.87821        -0.008361      0.007557     -0.165241
      8.46603      2.09873     13.90433         0.027324      0.294282     -0.231127
     14.81941      2.11552     11.72851        -0.015766      0.008976     -0.017214
      8.46727     16.93356     11.73257         0.000577      0.035399     -0.009194
     14.81750      4.23357      9.61679         0.004160      0.004940      0.006669
      8.46714      6.35036      9.61679         0.000612     -0.003831      0.118559
     14.81750      6.35036      7.50000         0.000468      0.002361     -0.391725
      8.46714      4.23357      7.50000        -0.000115      0.005287     -0.391056
     14.82167      4.23012     13.88034        -0.023802      0.002963     -0.209242
      8.46676      6.35074     13.82649         0.004962     -0.016427      0.701123
     14.81806      6.35087     11.73170        -0.029976     -0.001387     -0.011917
      8.46815      4.22275     11.73764         0.001347      0.129506      0.147837
     10.58393      8.46714      9.61679        -0.015042     -0.015346      0.061506
     12.70071     10.58393      9.61679        -0.004122     -0.006930      0.013895
     10.58393     10.58393      7.50000        -0.003535     -0.006288     -0.390914
     12.70071      8.46714      7.50000        -0.004040     -0.001073     -0.392763
     10.60818      8.49544     13.86536        -0.343120     -0.397895      0.106256
     12.70970     10.59340     13.87855        -0.050120     -0.063270     -0.204777
     10.58439     10.59110     11.72709        -0.014660     -0.085005      0.024316
     12.70732      8.46859     11.72866        -0.079552     -0.021556      0.027414
     10.58393     12.70071      9.61679        -0.006408      0.003747      0.006810
     12.70071     14.81750      9.61679        -0.004429      0.002018      0.002909
     10.58393     14.81750      7.50000        -0.004903      0.002724     -0.392684
     12.70071     12.70071      7.50000        -0.003372     -0.003317     -0.396337
     10.58817     12.70469     13.88050         0.003159     -0.012432     -0.214821
     12.70404     14.81764     13.87855        -0.000071      0.006651     -0.171211
     10.58418     14.81759     11.72962        -0.006236      0.005736     -0.023517
     12.70235     12.70248     11.72899        -0.007162     -0.012467     -0.020669
     14.81750      8.46714      9.61679        -0.000043     -0.003418      0.005432
      8.46714     10.58393      9.61679        -0.001530     -0.010412      0.024902
     14.81750     10.58393      7.50000        -0.000980     -0.005626     -0.392760
      8.46714      8.46714      7.50000        -0.000157     -0.005407     -0.390726
     14.82125      8.47127     13.88077        -0.026671     -0.006169     -0.198548
      8.46924     10.60127     13.91354        -0.036513     -0.281473     -0.312775
     14.81944     10.58538     11.72867        -0.012853     -0.010613     -0.018409
      8.46606      8.47785     11.73750         0.000811     -0.142658      0.137301
     14.81750     12.70071      9.61679        -0.000674     -0.002295      0.000886
      8.46714     14.81750      9.61679         0.000176     -0.002315      0.016143
     14.81750     14.81750      7.50000         0.000151      0.002628     -0.394901
      8.46714     12.70071      7.50000         0.000151     -0.001827     -0.393552
     14.82114     12.70397     13.87808        -0.006873     -0.006420     -0.166129
      8.46744     14.81761     13.88173        -0.000863      0.007946     -0.189552
     14.81872     14.81784     11.72851        -0.004616      0.001628     -0.014935
      8.46721     12.70054     11.73312        -0.000695     -0.020792     -0.021107
 -----------------------------------------------------------------------------------
    total drift:                                0.000176     -0.023605     -0.157013


--------------------------------------------------------------------------------------------------------



  FREE ENERGIE OF THE ION-ELECTRON SYSTEM (eV)
  ---------------------------------------------------
  free  energy   TOTEN  =     -1752.75707161 eV

  energy  without entropy=    -1752.75707161  energy(sigma->0) =    -1752.75707161



--------------------------------------------------------------------------------------------------------


    POTLOK:  cpu time      0.9555: real time      0.9556


--------------------------------------------------------------------------------------------------------


     LOOP+:  cpu time   9738.9317: real time   9741.3820
    4ORBIT:  cpu time      0.0000: real time      0.0000

 total amount of memory used by VASP MPI-rank0   386849. kBytes
=======================================================================

   base      :      30000. kBytes
   nonlr-proj:      14388. kBytes
   fftplans  :      13972. kBytes
   grid      :      17470. kBytes
   one-center:        129. kBytes
   HF        :         67. kBytes
   wavefun   :       6081. kBytes
   fock_wrk  :     304742. kBytes

  
  
 General timing and accounting informations for this job:
 ========================================================
  
                  Total CPU time used (sec):     9797.826
                            User time (sec):     9770.871
                          System time (sec):       26.955
                         Elapsed time (sec):     9819.439
  
                   Maximum memory used (kb):      897572.
                   Average memory used (kb):          N/A
  
                          Minor page faults:      1799593
                          Major page faults:            0
                 Voluntary context switches:        40720
