 **********************************************************************
                          MRCC program system
 **********************************************************************
 
                              Written by
     Mihaly Kallay, Peter R. Nagy, David Mester, Laszlo Gyevi-Nagy,
        Jozsef Csoka, P. Bernat Szabo, Zoltan Rolik, Gyula Samu,
     Jozsef Csontos, Bence Hegely, Adam Ganyecz, Istvan Ladjanszki,
       Lorant Szegedy, Bence Ladoczki, Klara Petrov, Mate Farkas,
                    Pal D. Mezei, and Reka A. Horvath
 
        Department of Physical Chemistry and Materials Science
            Budapest University of Technology and Economics
                  Budapest P.O.Box 91, H-1521 Hungary
 
                              www.mrcc.hu
 
                      Release date: March 18, 2022

 ************************ 2023-02-05 13:31:23 *************************
 Executing minp...

 Reading input from MINP...
 
 Input file:
 
calc=FNO-CCSD(T)
verbosity=3
mem=220GB
unit=angs
scfiguess=small
scfalg=locfit1
ccmaxit=400
ccsdalg=dfdirect
ccsdthreads=4
ccsdmkl=thr
ptthreads=4
lnoepsv=1e-5
naf_cor=1e-2
basis=aug-cc-pVTZ
basis_sm=def2-SVP
dfbasis_scf=def2-QZVPP-RI-JK
dfbasis_cor=aug-cc-pVTZ-RI
unit=angs
geom=xyz
16

C    34.41670262    34.07107264    10.41543014
C    33.11117461    33.45680459    10.91530835
H    34.24160149    35.00442132     9.86225048
H    34.94674030    33.36940783     9.75379242
H    35.10002891    34.30603621    11.24227357
H    32.42643037    33.26105434    10.07939442
H    32.59136835    34.12756100    11.61262818
H    33.28915165    32.50678735    11.43686767
C    25.97571797    50.95304195    10.41543014
C    24.67018996    50.33877390    10.91530835
H    25.80061684    51.88639063     9.86225048
H    26.50575565    50.25137714     9.75379242
H    26.65904426    51.18800552    11.24227357
H    23.98544572    50.14302365    10.07939442
H    24.15038370    51.00953031    11.61262818
H    24.84816699    49.38875666    11.43686767

--------------------Output has been truncated-------------------------


--------------------Output has been truncated-------------------------


--------------------Output has been truncated-------------------------


--------------------Output has been truncated-------------------------


--------------------Output has been truncated-------------------------


--------------------Output has been truncated-------------------------


--------------------Output has been truncated-------------------------


--------------------Output has been truncated-------------------------


--------------------Output has been truncated-------------------------


--------------------Output has been truncated-------------------------


 
 Reference energy [au]:                       -79.259550503545
 DF-MP2 singlet pair energy [au]:              -0.300254289659
 DF-MP2 triplet pair energy [au]:              -0.075031442215
 DF-SCS-MP2 correlation energy [au]:           -0.385315628329
 DF-SCS-MP2 energy [au]:                      -79.644866131874
 DF-SOS-MP2 correlation energy [au]:           -0.390330576557
 DF-SOS-MP2 energy [au]:                      -79.649881080101
 DF-MP2 correlation energy [au]:               -0.375285731874
 DF-MP2 energy [au]:                          -79.634836235419

 Results in FNO basis:
 
 
 Reference energy [au]:                       -79.259550503545
 DF-MP2 singlet pair energy [au]:              -0.299084107561
 DF-MP2 triplet pair energy [au]:              -0.074925176385
 DF-SCS-MP2 correlation energy [au]:           -0.383875987868
 DF-SCS-MP2 energy [au]:                      -79.643426491413
 DF-SOS-MP2 correlation energy [au]:           -0.388809339829
 DF-SOS-MP2 energy [au]:                      -79.648359843374
 DF-MP2 correlation energy [au]:               -0.374009283946
 DF-MP2 energy [au]:                          -79.633559787491

 Results in NAF basis:
 
 
 Reference energy [au]:                       -79.259550503545
 DF-MP2 singlet pair energy [au]:              -0.299023376894
 DF-MP2 triplet pair energy [au]:              -0.074964220935
 DF-SCS-MP2 correlation energy [au]:           -0.383816125918
 DF-SCS-MP2 energy [au]:                      -79.643366629463
 DF-SOS-MP2 correlation energy [au]:           -0.388730389962
 DF-SOS-MP2 energy [au]:                      -79.648280893507
 DF-MP2 correlation energy [au]:               -0.373987597829
 DF-MP2 energy [au]:                          -79.633538101374

 ************************ 2023-02-05 13:31:57 *************************
 Executing ccsd...

 Allocation of 220.0 Gbytes of memory...

 Direct DF-CCSD(T) calculation
 
 Convergence criterion:  1.0E-06
 
 Number of occupied/virtual/auxiliary orbitals:     7   139   378
    421.21 MB is the minimal memory requirement for (T)
     94.89 MB is the minimal memory requirement for CCSD
 
 Reference energy [au]:             -79.259550503545
 T1 contribution [au]:                0.000000000000
 Same spin MP2 energy [au]:          -0.074944639480
 Opposite spin MP2 energy [au]:      -0.299053571412
 MP2 correlation energy [au]:        -0.373998210892
 Total MP2 energy [au]:             -79.633548714437
 MP2 correction [au]:                -0.001287520982
 
 
 CPU time [min]:     0.314                   Wall time [min]:     0.016
 
 Starting CCSD iterations...
 
                     Residual norm          Energy
 Iteration  1        0.170712144367      -79.654477277119
 Iteration  2        0.042453498706      -79.664042194534
 Iteration  3        0.011296535498      -79.664998240546
 Iteration  4        0.002548541609      -79.665006562203
 Iteration  5        0.000536665448      -79.665011768935
 Iteration  6        0.000152292043      -79.665014846567
 Iteration  7        0.000036257619      -79.665014631278
 Iteration  8        0.000009249088      -79.665014922914
 
 CCSD iteration has converged in  8 steps.
     1534.57 MB memory was utilized by CCSD
 
 T1 diagnostic:      7.816E-03            D1 diagnostic:      1.353E-02
 
 T1 contribution [au]:                                  0.000000000000
 PPL energy contribution [au]:                          0.102911447021
 Scaled PPL energy contribution [au]:                   0.103270156529

 OS-PPL energy contribution [au]:                       0.089961249503
 Scaled OS-PPL energy contribution [au]:                0.090332331715
 SS-PPL energy contribution [au]:                       0.012950197518
 Scaled SS-PPL energy contribution [au]:                0.012962024232

 Opposite spin CCSD energy [au]:                       -0.334284073993
 Same spin CCSD energy [au]:                           -0.071199012413
 CCSD correlation energy [au]:                         -0.405483086406
 CCSD correlation energy + MP2 correction [au]:        -0.406770607388
 CCSD correlation energy + MP2 + PPL corr. [au]:       -0.406411897880
 Total CCSD energy [au]:                              -79.665033589951
 Total CCSD energy + MP2 correction [au]:             -79.666321110933
 Total CCSD energy + MP2 + PPL corr. [au]:            -79.665962401425
 
 CPU time [min]:     2.740                   Wall time [min]:     0.088
 
 Calculation of (T) correction...
 
 
      388.93 MB memory is utilized for (T)

 0%       25%       50%       75%       100%
 |---------|---------|---------|---------| 
 
 (T) correction [au]:                                    -0.013958893943
 (T*) correction [au]:                                   -0.014006948635
 (T+) correction [au]:                                   -0.014006366295
 CCSD(T) correlation energy [au]:                        -0.419441980349
 CCSD(T) correlation energy + MP2 correction [au]:       -0.420729501331
 CCSD(T+) correlation en. + MP2 + PPL corr. [au]:        -0.420418264175
 Total CCSD(T) energy [au]:                             -79.678992483894
 Total CCSD(T) energy + MP2 correction [au]:            -79.680280004876
 Total CCSD(T+) energy + MP2 + PPL corr. [au]:          -79.679968767720
 
 CPU time [min]:     3.463                   Wall time [min]:     0.111
 
 ************************ 2023-02-05 13:32:04 *************************
                      Normal termination of mrcc.
 **********************************************************************
