 vasp.6.3.0 20Jan22 (build Aug 21 2024 11:13:42) complex                         
 executed on        HPECrayEX_GCC date 2024.08.22  13:30:26
 running  384 mpi-ranks, with    1 threads/rank
 distrk:  each k-point on  384 cores,    1 groups
 distr:  one band on NCORE=   8 cores,   48 groups


--------------------------------------------------------------------------------------------------------


 INCAR:
   SYSTEM = MgO-rocksalt
   ISMEAR = 0
   SIGMA = 0.05
   EDIFF = 1E-6
   ALGO = ALL
   ISTART = 0
   IBRION = -1
   NSW = 0
   ISYM = 0
   DIPOL = 0.5 0.5 0.5
   IDIPOL = 4
   LDIPOL = .TRUE.
   GGA = RE
   AGGAC = 0.0
   LUSE_VDW = .TRUE.
   LASPH = .TRUE.
   ENCUT = 600
   PREC = Accurate
   LASPH = .TRUE.
   LREAL = .FALSE.
   ISPIN = 1
   NELM = 200
   NELMIN = 8
   NCORE = 8
   KPAR = 1
   LWAVE = .FALSE.
   LCHARG = .FALSE.

 POTCAR:    PAW_PBE C 08Apr2002                   
 POTCAR:    PAW_PBE H 15Jun2001                   
 -----------------------------------------------------------------------------
|                                                                             |
|               ----> ADVICE to this user running VASP <----                  |
|                                                                             |
|     You have switched on vdW-DFT.                                           |
|     This routine was written and supplied by Jiri Klimes. We recommend      |
|     that you carefully read and cite the following publications:            |
|       J. Klimes, D.R. Bowler, A. Michelides                                 |
|          J. Phys.: Cond Matt. 22 022201 (2010)                              |
|       J. Klimes, D.R. Bowler, A. Michelides                                 |
|          Phys. Rev. B. 83, 195131 (2011)                                    |
|     and references therein.                                                 |
|                                                                             |
 -----------------------------------------------------------------------------

 POTCAR:    PAW_PBE C 08Apr2002                   
   SHA256 =  253f7b50bb8d59471dbedb8285d89021f4a42ed1a2c5d38a03a736e69125dd95 C/POTCAR              
   COPYR  = (c) Copyright 08Apr2002 Georg Kresse                                                    
   COPYR  = This file is part of the software VASP. Any use, copying, and all other rights are regul
   COPYR  = If you do not have a valid VASP license, you may not use, copy or distribute this file. 
   VRHFIN =C: s2p2                                                                                  
   LEXCH  = PE                                                                                      
   EATOM  =   147.1560 eV,   10.8157 Ry                                                             
                                                                                                    
   TITEL  = PAW_PBE C 08Apr2002                                                                     
   LULTRA =        F    use ultrasoft PP ?                                                          
   IUNSCR =        1    unscreen: 0-lin 1-nonlin 2-no                                               
   RPACOR =    1.200    partial core radius                                                         
   POMASS =   12.011; ZVAL   =    4.000    mass and valenz                                          
   RCORE  =    1.500    outmost cutoff radius                                                       
   RWIGS  =    1.630; RWIGS  =    0.863    wigner-seitz radius (au A)                               
   ENMAX  =  400.000; ENMIN  =  300.000 eV                                                          
   ICORE  =        2    local potential                                                             
   LCOR   =        T    correct aug charges                                                         
   LPAW   =        T    paw PP                                                                      
   EAUG   =  644.873                                                                                
   DEXC   =    0.000                                                                                
   RMAX   =    1.529    core radius for proj-oper                                                   
   RAUG   =    1.300    factor for augmentation sphere                                              
   RDEP   =    1.501    radius for radial grids                                                     
   RDEPT  =    1.300    core radius for aug-charge                                                  
                                                                                                    
   Atomic configuration                                                                             
    4 entries                                                                                       
     n  l   j            E        occ.                                                              
     1  0  0.50      -273.3789   2.0000                                                             
     2  0  0.50       -13.7508   2.0000                                                             
     2  1  0.50        -5.2854   2.0000                                                             
     3  2  1.50        -5.4423   0.0000                                                             
   Description                                                                                      
     l       E           TYP  RCUT    TYP  RCUT                                                     
     0    -13.7508458     23  1.200                                                                 
     0     -8.2022199     23  1.200                                                                 
     1     -5.2854383     23  1.500                                                                 
     1     34.0145650     23  1.500                                                                 
     2     -5.4423304      7  1.500                                                                 
  local pseudopotential read in
  partial core-charges read in
  partial kinetic energy density read in
  atomic valenz-charges read in
  non local Contribution for L=           0  read in
    real space projection operators read in
  non local Contribution for L=           0  read in
    real space projection operators read in
  non local Contribution for L=           1  read in
    real space projection operators read in
  non local Contribution for L=           1  read in
    real space projection operators read in
    PAW grid and wavefunctions read in

   number of l-projection  operators is LMAX  =           4
   number of lm-projection operators is LMMAX =           8

 POTCAR:    PAW_PBE H 15Jun2001                   
   SHA256 =  030f79b5d3ab3cf0e668861823c8fb652ff669f3e15e46930bd03bfd63a607b6 H/POTCAR              
   COPYR  = (c) Copyright 15Jun2001 Georg Kresse                                                    
   COPYR  = This file is part of the software VASP. Any use, copying, and all other rights are regul
   COPYR  = If you do not have a valid VASP license, you may not use, copy or distribute this file. 
   VRHFIN =H: ultrasoft test                                                                        
   LEXCH  = PE                                                                                      
   EATOM  =    12.4884 eV,    0.9179 Ry                                                             
                                                                                                    
   TITEL  = PAW_PBE H 15Jun2001                                                                     
   LULTRA =        F    use ultrasoft PP ?                                                          
   IUNSCR =        0    unscreen: 0-lin 1-nonlin 2-no                                               
   RPACOR =    0.000    partial core radius                                                         
   POMASS =    1.000; ZVAL   =    1.000    mass and valenz                                          
   RCORE  =    1.100    outmost cutoff radius                                                       
   RWIGS  =    0.700; RWIGS  =    0.370    wigner-seitz radius (au A)                               
   ENMAX  =  250.000; ENMIN  =  200.000 eV                                                          
   RCLOC  =    0.701    cutoff for local pot                                                        
   LCOR   =        T    correct aug charges                                                         
   LPAW   =        T    paw PP                                                                      
   EAUG   =  400.000                                                                                
   RMAX   =    1.123    core radius for proj-oper                                                   
   RAUG   =    1.200    factor for augmentation sphere                                              
   RDEP   =    1.112    radius for radial grids                                                     
   RDEPT  =    0.926    core radius for aug-charge                                                  
                                                                                                    
   Atomic configuration                                                                             
    2 entries                                                                                       
     n  l   j            E        occ.                                                              
     1  0  0.50        -6.4927   1.0000                                                             
     2  1  0.50        -3.4015   0.0000                                                             
   Description                                                                                      
     l       E           TYP  RCUT    TYP  RCUT                                                     
     0     -6.4927494     23  1.100                                                                 
     0      6.8029130     23  1.100                                                                 
     1     -4.0817478     23  1.100                                                                 
  local pseudopotential read in
  atomic valenz-charges read in
  non local Contribution for L=           0  read in
    real space projection operators read in
  non local Contribution for L=           0  read in
    real space projection operators read in
  non local Contribution for L=           1  read in
    real space projection operators read in
    PAW grid and wavefunctions read in

   number of l-projection  operators is LMAX  =           3
   number of lm-projection operators is LMMAX =           5

 -----------------------------------------------------------------------------
|                                                                             |
|               ----> ADVICE to this user running VASP <----                  |
|                                                                             |
|     You enforced a specific xc type in the INCAR file but a different       |
|     type was found in the POTCAR file.                                      |
|     I HOPE YOU KNOW WHAT YOU ARE DOING!                                     |
|                                                                             |
 -----------------------------------------------------------------------------

  PAW_PBE C 08Apr2002                   :
 energy of atom  1       EATOM= -147.1560
 kinetic energy error for atom=    0.0057 (will be added to EATOM!!)
  PAW_PBE H 15Jun2001                   :
 energy of atom  2       EATOM=  -12.4884
 kinetic energy error for atom=    0.0004 (will be added to EATOM!!)


 POSCAR:  C  H
  positions in direct lattice
  No initial velocities read in
 exchange correlation table for  LEXCH =       40
   RHO(1)=    0.500       N(1)  =     2000
   RHO(2)=  100.500       N(2)  =     4000



--------------------------------------------------------------------------------------------------------


 ion  position               nearest neighbor table
   1  0.320  0.668  0.500-   4 1.10
   2  0.320  0.332  0.539-
   3  0.680  0.628  0.539-
   4  0.358  0.668  0.461-   1 1.10
   5  0.642  0.668  0.461-


IMPORTANT INFORMATION: All symmetrisations will be switched off!
NOSYMM: (Re-)initialisation of all symmetry stuff for point group C_1.


----------------------------------------------------------------------------------------

                                     Primitive cell                                     

  volume of cell :    8607.2054

  direct lattice vectors                    reciprocal lattice vectors
    23.467142624  0.000000000  0.000000000     0.042612772  0.000000000  0.000000000
     0.000000000 22.566728000  0.000000000     0.000000000  0.044313026  0.000000000
     0.000000000  0.000000000 16.252993436     0.000000000  0.000000000  0.061527128

  length of vectors
    23.467142624 22.566728000 16.252993436     0.042612772  0.044313026  0.061527128

  position of ions in fractional coordinates (direct lattice)
     0.319595791  0.667652303  0.499909999
     0.319595791  0.332347693  0.538546543
     0.680404209  0.627752213  0.538546543
     0.358235054  0.667652305  0.461453457
     0.641764946  0.667652307  0.461453457

  ion indices of the primitive-cell ions
   primitive index   ion index
                 1           1
                 2           2
                 3           3
                 4           4
                 5           5

----------------------------------------------------------------------------------------



 KPOINTS: pymatgen v2020.8.13 with grid density = 

Automatic generation of k-mesh.
 Grid dimensions read from file:
 generate k-points for:    1    1    1

 Generating k-lattice:

  Cartesian coordinates                     Fractional coordinates (reciprocal lattice)
     0.042612772  0.000000000  0.000000000     1.000000000  0.000000000  0.000000000
     0.000000000  0.044313026  0.000000000     0.000000000  1.000000000  0.000000000
     0.000000000  0.000000000  0.061527128     0.000000000  0.000000000  1.000000000

  Length of vectors
     0.042612772  0.044313026  0.061527128

  Shift w.r.t. Gamma in fractional coordinates (k-lattice)
     0.000000000  0.000000000  0.000000000

 
 Subroutine IBZKPT returns following result:
 ===========================================
 
 Found      1 irreducible k-points:
 
 Following reciprocal coordinates:
            Coordinates               Weight
  0.000000  0.000000  0.000000      1.000000
 
 Following cartesian coordinates:
            Coordinates               Weight
  0.000000  0.000000  0.000000      1.000000
 


--------------------------------------------------------------------------------------------------------




 Dimension of arrays:
   k-points           NKPTS =      1   k-points in BZ     NKDIM =      1   number of bands    NBANDS=     48
   number of dos      NEDOS =    301   number of ions     NIONS =      5
   non local maximal  LDIM  =      4   non local SUM 2l+1 LMDIM =      8
   total plane-waves  NPLWV = ******
   max r-space proj   IRMAX =      1   max aug-charges    IRDMAX=   6832
   dimension x,y,z NGX =   192 NGY =  180 NGZ =  140
   dimension x,y,z NGXF=   384 NGYF=  360 NGZF=  280
   support grid    NGXF=   384 NGYF=  360 NGZF=  280
   ions per type =               1   4
   NGX,Y,Z   is equivalent  to a cutoff of  13.60, 13.26, 14.32 a.u.
   NGXF,Y,Z  is equivalent  to a cutoff of  27.20, 26.52, 28.64 a.u.

 SYSTEM =  MgO-rocksalt                            
 POSCAR =   C  H                                   

--------------------------------------------------------------------------------------------------------


  energy-cutoff  :      600.00
  volume of cell :     8607.21
      direct lattice vectors                 reciprocal lattice vectors
    23.467142624  0.000000000  0.000000000     0.042612772  0.000000000  0.000000000
     0.000000000 22.566728000  0.000000000     0.000000000  0.044313026  0.000000000
     0.000000000  0.000000000 16.252993436     0.000000000  0.000000000  0.061527128

  length of vectors
    23.467142624 22.566728000 16.252993436     0.042612772  0.044313026  0.061527128



 k-points in units of 2pi/SCALE and weight: pymatgen v2020.8.13 with grid density = 
   0.00000000  0.00000000  0.00000000       1.000

 k-points in reciprocal lattice and weights: pymatgen v2020.8.13 with grid density = 
   0.00000000  0.00000000  0.00000000       1.000

 position of ions in fractional coordinates (direct lattice) 
   0.31959579  0.66765230  0.49991000
   0.31959579  0.33234769  0.53854654
   0.68040421  0.62775221  0.53854654
   0.35823505  0.66765231  0.46145346
   0.64176495  0.66765231  0.46145346

 position of ions in cartesian coordinates  (Angst):
   7.50000000 15.06672793  8.12503393
   7.50000002  7.50000000  8.75299344
  15.96714262 14.16631345  8.75299343
   8.40675312 15.06672797  7.50000000
  15.06038952 15.06672800  7.50000002



--------------------------------------------------------------------------------------------------------

--------------------------------------- Iteration      FINAL  ---------------------------------------


--------------------OUTCAR has been truncated-------------------------


--------------------OUTCAR has been truncated-------------------------


--------------------OUTCAR has been truncated-------------------------


--------------------OUTCAR has been truncated-------------------------


--------------------OUTCAR has been truncated-------------------------


--------------------OUTCAR has been truncated-------------------------


--------------------OUTCAR has been truncated-------------------------


--------------------OUTCAR has been truncated-------------------------


--------------------OUTCAR has been truncated-------------------------


--------------------OUTCAR has been truncated-------------------------


  FORCE on cell =-STRESS in cart. coord.  units (eV):
  Direction    XX          YY          ZZ          XY          YZ          ZX
  --------------------------------------------------------------------------------------
  Alpha Z     0.02815     0.02815     0.02815
  Ewald      32.83441   -12.20602    11.34584    -1.90238    -3.51607   -21.58221
  Hartree    70.51027    49.58863    60.60778    -0.89438    -2.10940    -7.17900
  E(xc)     -23.69938   -24.35805   -23.91834    -0.12918    -0.17803    -0.26478
  Local    -163.29020   -93.39523  -130.08543     2.89164     5.73816    31.12359
  n-local    -6.30323    -2.67718    -4.47048     0.01968     0.02125     2.40196
  augment     0.48256     0.43024     0.45630     0.00021     0.00047    -0.03462
  Kinetic    88.58065    81.13889    83.57888     1.42318     1.99798    -6.84252
  Fock        0.00000     0.00000     0.00000     0.00000     0.00000     0.00000
  -------------------------------------------------------------------------------------
  Total      -0.85679    -1.45057    -2.45730     1.40876     1.95435    -2.37759
  in kB      -0.15949    -0.27002    -0.45741     0.26223     0.36379    -0.44257
  external pressure =       -0.30 kB  Pullay stress =        0.00 kB


 VOLUME and BASIS-vectors are now :
 -----------------------------------------------------------------------------
  energy-cutoff  :      600.00
  volume of cell :     8607.21
      direct lattice vectors                 reciprocal lattice vectors
    23.467142624  0.000000000  0.000000000     0.042612772  0.000000000  0.000000000
     0.000000000 22.566728000  0.000000000     0.000000000  0.044313026  0.000000000
     0.000000000  0.000000000 16.252993436     0.000000000  0.000000000  0.061527128

  length of vectors
    23.467142624 22.566728000 16.252993436     0.042612772  0.044313026  0.061527128


 FORCES acting on ions:
    Electron-Ion                     Ewald-Force                    Non-Local-Force
 -----------------------------------------------------------------------------------------------
   0.253E+02 -.865E+00 -.164E+02   -.405E+02 0.889E+00 0.269E+02   0.146E+02 -.204E-01 -.101E+02
   0.159E+00 0.111E+01 -.946E-01   -.160E+00 -.112E+01 0.956E-01   0.171E-02 0.401E-02 -.189E-02
   -.438E+01 0.355E+01 -.492E+01   0.313E+01 -.231E+01 0.319E+01   -.319E+00 0.315E+00 -.437E+00
   -.330E+02 -.225E+00 0.231E+02   0.386E+02 0.218E+00 -.270E+02   -.495E+01 0.175E-02 0.341E+01
   0.233E+01 -.356E+01 0.492E+01   -.107E+01 0.232E+01 -.319E+01   0.311E+00 -.313E+00 0.436E+00
 -----------------------------------------------------------------------------------------------
   -.966E+01 0.125E-01 0.666E+01   0.888E-15 0.000E+00 0.222E-14   0.967E+01 -.126E-01 -.667E+01


 POSITION                                       TOTAL-FORCE (eV/Angst)
 -----------------------------------------------------------------------------------
      7.50000     15.06673      8.12503        -0.659714      0.003389      0.454703
      7.50000      7.50000      8.75299         0.000064      0.002198     -0.000463
     15.96714     14.16631      8.75299        -1.569930      1.556815     -2.166140
      8.40675     15.06673      7.50000         0.661405     -0.005806     -0.454842
     15.06039     15.06673      7.50000         1.568176     -1.556596      2.166743
 -----------------------------------------------------------------------------------
    total drift:                                0.003497     -0.000077     -0.002136


--------------------------------------------------------------------------------------------------------



  FREE ENERGIE OF THE ION-ELECTRON SYSTEM (eV)
  ---------------------------------------------------
  free  energy   TOTEN  =        -7.82522553 eV

  energy  without entropy=       -7.75454114  energy(sigma->0) =       -7.78988334



--------------------------------------------------------------------------------------------------------


    POTLOK:  cpu time      1.7102: real time      1.7107


--------------------------------------------------------------------------------------------------------


     LOOP+:  cpu time    316.1708: real time    318.5571
    4ORBIT:  cpu time      0.0000: real time      0.0000

 total amount of memory used by VASP MPI-rank0    90619. kBytes
=======================================================================

   base      :      30000. kBytes
   nonl-proj :       7468. kBytes
   fftplans  :      21464. kBytes
   grid      :      29959. kBytes
   one-center:          3. kBytes
   wavefun   :       1725. kBytes

  
  
 General timing and accounting informations for this job:
 ========================================================
  
                  Total CPU time used (sec):      337.108
                            User time (sec):      335.522
                          System time (sec):        1.586
                         Elapsed time (sec):      343.838
  
                   Maximum memory used (kb):      364388.
                   Average memory used (kb):          N/A
  
                          Minor page faults:        29649
                          Major page faults:         1141
                 Voluntary context switches:         9040
