 vasp.6.3.0 20Jan22 (build Apr  1 2022 16:44:48) complex                         
 executed on        HPECrayEX_GCC date 2022.11.13  11:40:40
 running 1024 mpi-ranks, with    1 threads/rank
 distrk:  each k-point on 1024 cores,    1 groups
 distr:  one band on NCORE=   8 cores,  128 groups


--------------------------------------------------------------------------------------------------------


 INCAR:
   SYSTEM = MgO-rocksalt
   ISMEAR = 0
   SIGMA = 0.05
   EDIFF = 1E-6
   ALGO = ALL
   ISTART = 0
   IBRION = -1
   NSW = 0
   ISYM = 0
   DIPOL = 0.5 0.5 0.5
   IDIPOL = 3
   LDIPOL = .TRUE.
   LHFCALC = .TRUE.
   GGA = PE
   IVDW = 13
   VDW_S8 = 1.2007
   VDW_A1 = 0.4009
   VDW_A2 = 5.0293
   ENCUT = 600
   PREC = Accurate
   LASPH = .TRUE.
   LREAL = .FALSE.
   ISPIN = 1
   NELM = 200
   NELMIN = 8
   NCORE = 8
   KPAR = 1
   LWAVE = .FALSE.
   LCHARG = .FALSE.

 POTCAR:    PAW_PBE Mg_pv 13Apr2007               
 POTCAR:    PAW_PBE O 08Apr2002                   
 POTCAR:    PAW_PBE Mg_pv 13Apr2007               
   SHA256 =  f474ac0dd33840b9ae76c01d57fea79fdf77cdfbb07d5ade72c65f83c709b62b Mg_pv/POTCAR          
   COPYR  = (c) Copyright 13Apr2007 Georg Kresse                                                    
   COPYR  = This file is part of the software VASP. Any use, copying, and all other rights are regul
   COPYR  = If you do not have a valid VASP license, you may not use, copy or distribute this file. 
   VRHFIN =Mg: p6s2                                                                                 
   LEXCH  = PE                                                                                      
   EATOM  =  1056.7344 eV,   77.6678 Ry                                                             
                                                                                                    
   TITEL  = PAW_PBE Mg_pv 13Apr2007                                                                 
   LULTRA =        F    use ultrasoft PP ?                                                          
   IUNSCR =        1    unscreen: 0-lin 1-nonlin 2-no                                               
   RPACOR =    1.500    partial core radius                                                         
   POMASS =   24.305; ZVAL   =    8.000    mass and valenz                                          
   RCORE  =    2.000    outmost cutoff radius                                                       
   RWIGS  =    2.000; RWIGS  =    1.058    wigner-seitz radius (au A)                               
   ENMAX  =  403.929; ENMIN  =  302.947 eV                                                          
   RCLOC  =    1.506    cutoff for local pot                                                        
   LCOR   =        T    correct aug charges                                                         
   LPAW   =        T    paw PP                                                                      
   EAUG   =  758.780                                                                                
   DEXC   =    0.000                                                                                
   RMAX   =    2.045    core radius for proj-oper                                                   
   RAUG   =    1.300    factor for augmentation sphere                                              
   RDEP   =    2.025    radius for radial grids                                                     
   RDEPT  =    1.557    core radius for aug-charge                                                  
                                                                                                    
   Atomic configuration                                                                             
    5 entries                                                                                       
     n  l   j            E        occ.                                                              
     1  0  0.50     -1259.6230   2.0000                                                             
     2  0  0.50       -79.8442   2.0000                                                             
     2  1  1.50       -46.6121   6.0000                                                             
     3  0  0.50        -4.7055   2.0000                                                             
     3  2  1.50        -1.3606   0.0000                                                             
   Description                                                                                      
     l       E           TYP  RCUT    TYP  RCUT                                                     
     1    -46.6121073     23  1.600                                                                 
     1      2.7211652     23  1.600                                                                 
     0     -4.7054661     23  2.000                                                                 
     0     61.2262170     23  2.000                                                                 
     2     -1.3605826     23  2.000                                                                 
  local pseudopotential read in
  partial core-charges read in
  partial kinetic energy density read in
  atomic valenz-charges read in
  non local Contribution for L=           1  read in
    real space projection operators read in
  non local Contribution for L=           1  read in
    real space projection operators read in
  non local Contribution for L=           0  read in
    real space projection operators read in
  non local Contribution for L=           0  read in
    real space projection operators read in
  non local Contribution for L=           2  read in
    real space projection operators read in
    PAW grid and wavefunctions read in

   number of l-projection  operators is LMAX  =           5
   number of lm-projection operators is LMMAX =          13

 POTCAR:    PAW_PBE O 08Apr2002                   
   SHA256 =  818f92134a0a090dccd8ba1447fa70422a3b330e708bb4f08108d8ae51209ddf O/POTCAR              
   COPYR  = (c) Copyright 08Apr2002 Georg Kresse                                                    
   COPYR  = This file is part of the software VASP. Any use, copying, and all other rights are regul
   COPYR  = If you do not have a valid VASP license, you may not use, copy or distribute this file. 
   VRHFIN =O: s2p4                                                                                  
   LEXCH  = PE                                                                                      
   EATOM  =   432.3788 eV,   31.7789 Ry                                                             
                                                                                                    
   TITEL  = PAW_PBE O 08Apr2002                                                                     
   LULTRA =        F    use ultrasoft PP ?                                                          
   IUNSCR =        1    unscreen: 0-lin 1-nonlin 2-no                                               
   RPACOR =    1.200    partial core radius                                                         
   POMASS =   16.000; ZVAL   =    6.000    mass and valenz                                          
   RCORE  =    1.520    outmost cutoff radius                                                       
   RWIGS  =    1.550; RWIGS  =    0.820    wigner-seitz radius (au A)                               
   ENMAX  =  400.000; ENMIN  =  300.000 eV                                                          
   ICORE  =        2    local potential                                                             
   LCOR   =        T    correct aug charges                                                         
   LPAW   =        T    paw PP                                                                      
   EAUG   =  605.392                                                                                
   DEXC   =    0.000                                                                                
   RMAX   =    1.553    core radius for proj-oper                                                   
   RAUG   =    1.300    factor for augmentation sphere                                              
   RDEP   =    1.550    radius for radial grids                                                     
   RDEPT  =    1.329    core radius for aug-charge                                                  
                                                                                                    
   Atomic configuration                                                                             
    4 entries                                                                                       
     n  l   j            E        occ.                                                              
     1  0  0.50      -514.6923   2.0000                                                             
     2  0  0.50       -23.9615   2.0000                                                             
     2  1  0.50        -9.0305   4.0000                                                             
     3  2  1.50        -9.5241   0.0000                                                             
   Description                                                                                      
     l       E           TYP  RCUT    TYP  RCUT                                                     
     0    -23.9615318     23  1.200                                                                 
     0     -9.5240782     23  1.200                                                                 
     1     -9.0304911     23  1.520                                                                 
     1      8.1634956     23  1.520                                                                 
     2     -9.5240782      7  1.500                                                                 
  local pseudopotential read in
  partial core-charges read in
  partial kinetic energy density read in
  kinetic energy density of atom read in
  atomic valenz-charges read in
  non local Contribution for L=           0  read in
    real space projection operators read in
  non local Contribution for L=           0  read in
    real space projection operators read in
  non local Contribution for L=           1  read in
    real space projection operators read in
  non local Contribution for L=           1  read in
    real space projection operators read in
    PAW grid and wavefunctions read in

   number of l-projection  operators is LMAX  =           4
   number of lm-projection operators is LMMAX =           8

 -----------------------------------------------------------------------------
|                                                                             |
|               ----> ADVICE to this user running VASP <----                  |
|                                                                             |
|     You have a (more or less) 'large supercell' and for larger cells it     |
|     might be more efficient to use real-space projection operators.         |
|     Therefore, try LREAL= Auto in the INCAR file.                           |
|     Mind: For very accurate calculation, you might also keep the            |
|     reciprocal projection scheme (i.e. LREAL=.FALSE.).                      |
|                                                                             |
 -----------------------------------------------------------------------------

  PAW_PBE Mg_pv 13Apr2007               :
 energy of atom  1       EATOM=-1056.7344
 kinetic energy error for atom=    0.0221 (will be added to EATOM!!)
  PAW_PBE O 08Apr2002                   :
 energy of atom  2       EATOM= -432.3788
 kinetic energy error for atom=    0.0168 (will be added to EATOM!!)


 POSCAR: Mg  O
  positions in direct lattice
  No initial velocities read in
 -----------------------------------------------------------------------------
|                                                                             |
|           W    W    AA    RRRRR   N    N  II  N    N   GGGG   !!!           |
|           W    W   A  A   R    R  NN   N  II  NN   N  G    G  !!!           |
|           W    W  A    A  R    R  N N  N  II  N N  N  G       !!!           |
|           W WW W  AAAAAA  RRRRR   N  N N  II  N  N N  G  GGG   !            |
|           WW  WW  A    A  R   R   N   NN  II  N   NN  G    G                |
|           W    W  A    A  R    R  N    N  II  N    N   GGGG   !!!           |
|                                                                             |
|     Specifying the vdW parameters                                           |
|     VDW_S8 = 1.201                                                          |
|     VDW_A1 = 0.401                                                          |
|     VDW_A2 = 5.029                                                          |
|     in the INCAR file will overwrite the defaults for pbe0. Please make     |
|     sure that is what you intended.                                         |
|                                                                             |
 -----------------------------------------------------------------------------

 exchange correlation table for  LEXCH =        8
   RHO(1)=    0.500       N(1)  =     2000
   RHO(2)=  100.500       N(2)  =     4000



--------------------------------------------------------------------------------------------------------


 ion  position               nearest neighbor table
   1  0.000  0.750  0.350-  33 2.14  35 2.14  36 2.14  43 2.14  52 2.14
   2  0.250  0.000  0.350-  34 2.14  35 2.14  36 2.14  44 2.14  51 2.14
   3  0.000  0.000  0.450-  35 2.14  34 2.14  33 2.14  41 2.14  50 2.14  39 2.14
   4  0.250  0.750  0.450-  36 2.14  34 2.14  33 2.14  42 2.14  49 2.14  40 2.14
   5  0.000  0.750  0.550-  47 2.14  39 2.14  40 2.14  56 2.14  33 2.15  37 2.16
   6  0.250  1.000  0.550-  39 2.13  40 2.14  48 2.14  55 2.14  34 2.15  38 2.16
   7  0.000  0.000  0.650-  39 2.13  45 2.13  38 2.14  54 2.14  37 2.14
   8  0.248  0.750  0.650-  37 2.12  40 2.13  46 2.13  38 2.14  53 2.16
   9  0.000  0.250  0.350-  41 2.14  35 2.14  43 2.14  44 2.14  60 2.14
  10  0.250  0.500  0.350-  42 2.14  36 2.14  43 2.14  44 2.14  59 2.14
  11  0.000  0.500  0.450-  43 2.14  41 2.14  42 2.14  33 2.14  58 2.14  47 2.14
  12  0.250  0.250  0.450-  44 2.14  41 2.14  42 2.14  34 2.14  57 2.14  48 2.14
  13  0.000  0.250  0.550-  47 2.14  48 2.14  64 2.14  39 2.14  41 2.15  45 2.16
  14  0.250  0.500  0.550-  47 2.14  63 2.14  40 2.14  48 2.14  42 2.15  46 2.15
  15  0.000  0.500  0.650-  45 2.13  47 2.14  62 2.14  46 2.14  37 2.14
  16  0.250  0.250  0.650-  45 2.13  48 2.13  46 2.14  38 2.14  61 2.14
  17  0.500  0.750  0.350-  49 2.14  36 2.14  51 2.14  52 2.14  59 2.14
  18  0.750  0.000  0.350-  50 2.14  35 2.14  51 2.14  52 2.14  60 2.14
  19  0.500  0.000  0.450-  51 2.14  49 2.14  50 2.14  34 2.14  57 2.14  55 2.14
  20  0.750  0.750  0.450-  52 2.14  49 2.14  50 2.14  33 2.14  58 2.14  56 2.14
  21  0.500  0.750  0.550-  63 2.13  40 2.13  56 2.13  55 2.13  49 2.15  53 2.19
  22  0.750  1.000  0.550-  39 2.13  56 2.14  64 2.14  55 2.14  50 2.15  54 2.16
  23  0.500  0.003  0.649-  61 2.11  55 2.12  38 2.14  54 2.14  53 2.16
  24  0.752  0.750  0.650-  37 2.12  56 2.13  62 2.13  54 2.14  53 2.16
  25  0.500  0.250  0.350-  57 2.14  51 2.14  44 2.14  59 2.14  60 2.14
  26  0.750  0.500  0.350-  58 2.14  52 2.14  43 2.14  59 2.14  60 2.14
  27  0.500  0.500  0.450-  59 2.14  49 2.14  57 2.14  58 2.14  42 2.14  63 2.14
  28  0.750  0.250  0.450-  60 2.14  50 2.14  57 2.14  58 2.14  41 2.14  64 2.14
  29  0.500  0.250  0.550-  48 2.14  64 2.14  63 2.14  55 2.14  57 2.14  61 2.16
  30  0.750  0.500  0.550-  47 2.14  63 2.14  56 2.14  64 2.14  58 2.15  62 2.15
  31  0.500  0.498  0.650-  61 2.12  63 2.13  46 2.14  62 2.14  53 2.16
  32  0.750  0.250  0.650-  45 2.13  64 2.13  62 2.14  54 2.14  61 2.14
  33  0.000  0.750  0.450-   1 2.14   3 2.14   4 2.14  11 2.14  20 2.14   5 2.15
  34  0.250  0.000  0.450-   2 2.14   3 2.14   4 2.14  12 2.14  19 2.14   6 2.15
  35  0.000  0.000  0.350-   3 2.14   2 2.14   1 2.14   9 2.14  18 2.14
  36  0.250  0.750  0.350-   4 2.14   2 2.14   1 2.14  10 2.14  17 2.14
  37  0.000  0.750  0.651-  24 2.12   8 2.12   7 2.14  15 2.14   5 2.16
  38  0.250  1.000  0.651-  23 2.14   7 2.14   8 2.14  16 2.14   6 2.16
  39  0.000  1.000  0.550-   7 2.13  22 2.13   6 2.13   5 2.14  13 2.14   3 2.14
  40  0.250  0.750  0.550-   8 2.13  21 2.13   6 2.14  14 2.14   5 2.14   4 2.14
  41  0.000  0.250  0.450-   9 2.14   3 2.14  11 2.14  12 2.14  28 2.14  13 2.15
  42  0.250  0.500  0.450-  10 2.14   4 2.14  11 2.14  12 2.14  27 2.14  14 2.15
  43  0.000  0.500  0.350-  11 2.14   9 2.14  10 2.14   1 2.14  26 2.14
  44  0.250  0.250  0.350-  12 2.14   9 2.14  10 2.14   2 2.14  25 2.14
  45  0.000  0.250  0.651-  32 2.13  16 2.13  15 2.13   7 2.13  13 2.16
  46  0.250  0.500  0.651-   8 2.13  16 2.14  31 2.14  15 2.14  14 2.15
  47  0.000  0.500  0.550-   5 2.14  15 2.14  13 2.14  30 2.14  14 2.14  11 2.14
  48  0.250  0.250  0.550-  16 2.13   6 2.14  29 2.14  13 2.14  14 2.14  12 2.14
  49  0.500  0.750  0.450-  17 2.14   4 2.14  19 2.14  20 2.14  27 2.14  21 2.15
  50  0.750  0.000  0.450-  18 2.14   3 2.14  19 2.14  20 2.14  28 2.14  22 2.15
  51  0.500  0.000  0.350-  19 2.14  17 2.14  18 2.14   2 2.14  25 2.14
  52  0.750  0.750  0.350-  20 2.14  17 2.14  18 2.14   1 2.14  26 2.14
  53  0.500  0.751  0.653-  23 2.16  24 2.16   8 2.16  31 2.16  21 2.19
  54  0.750  1.000  0.651-  23 2.14   7 2.14  24 2.14  32 2.14  22 2.16
  55  0.500  1.000  0.550-  23 2.12  21 2.13  22 2.14   6 2.14  19 2.14  29 2.14
  56  0.750  0.750  0.550-  24 2.13  21 2.13  22 2.14  30 2.14   5 2.14  20 2.14
  57  0.500  0.250  0.450-  25 2.14  19 2.14  12 2.14  27 2.14  28 2.14  29 2.14
  58  0.750  0.500  0.450-  26 2.14  20 2.14  11 2.14  27 2.14  28 2.14  30 2.15
  59  0.500  0.500  0.350-  27 2.14  17 2.14  25 2.14  26 2.14  10 2.14
  60  0.750  0.250  0.350-  28 2.14  18 2.14  25 2.14  26 2.14   9 2.14
  61  0.500  0.250  0.651-  23 2.11  31 2.12  32 2.14  16 2.14  29 2.16
  62  0.750  0.500  0.651-  24 2.13  32 2.14  31 2.14  15 2.14  30 2.15
  63  0.500  0.500  0.550-  21 2.13  31 2.13  30 2.14  14 2.14  29 2.14  27 2.14
  64  0.750  0.250  0.550-  32 2.13  22 2.14  29 2.14  13 2.14  30 2.14  28 2.14


IMPORTANT INFORMATION: All symmetrisations will be switched off!
NOSYMM: (Re-)initialisation of all symmetry stuff for point group C_1.


----------------------------------------------------------------------------------------

                                     Primitive cell                                     

  volume of cell :    1563.6717

  direct lattice vectors                    reciprocal lattice vectors
     8.546113626  0.000000000  0.000000000     0.117012252  0.000000000  0.000000000
     0.000000000  8.546113626  0.000000000     0.000000000  0.117012252  0.000000000
     0.000000000  0.000000000 21.409585219     0.000000000  0.000000000  0.046708051

  length of vectors
     8.546113626  8.546113626 21.409585219     0.117012252  0.117012252  0.046708051

  position of ions in fractional coordinates (direct lattice)
     0.000000000  0.750000000  0.350310383
     0.250000000  0.000000000  0.350310383
     0.000000000  0.000000000  0.450103461
     0.250000000  0.750000000  0.450103461
     0.000000096  0.749859378  0.550346459
     0.249781026  0.999919635  0.550389822
     0.000000153  0.000277636  0.649646860
     0.247883566  0.749604077  0.649781973
     0.000000000  0.250000000  0.350310383
     0.250000000  0.500000000  0.350310383
     0.000000000  0.500000000  0.450103461
     0.250000000  0.250000000  0.450103461
     0.000000133  0.250061453  0.550306886
     0.249949208  0.499944005  0.550459814
     0.000000068  0.499561362  0.649765794
     0.249550060  0.250135440  0.649652008
     0.500000000  0.750000000  0.350310383
     0.750000000  0.000000000  0.350310383
     0.500000000  0.000000000  0.450103461
     0.750000000  0.750000000  0.450103461
     0.499999979  0.749811169  0.550346285
     0.750219085  0.999919627  0.550389788
     0.499999980  0.002666948  0.648890348
     0.752116574  0.749603982  0.649781860
     0.500000000  0.250000000  0.350310383
     0.750000000  0.500000000  0.350310383
     0.500000000  0.500000000  0.450103461
     0.750000000  0.250000000  0.450103461
     0.499999997  0.250245766  0.550223914
     0.750050906  0.499943992  0.550459821
     0.500000071  0.497670550  0.649884902
     0.750450132  0.250135502  0.649651949
     0.000000000  0.750000000  0.450103461
     0.250000000  0.000000000  0.450103461
     0.000000000  0.000000000  0.350310383
     0.250000000  0.750000000  0.350310383
     0.000000038  0.749968265  0.651144797
     0.250218921  0.999822933  0.651310697
     0.000000013  0.999900651  0.550075621
     0.250436298  0.750046697  0.550226596
     0.000000000  0.250000000  0.450103461
     0.250000000  0.500000000  0.450103461
     0.000000000  0.500000000  0.350310383
     0.250000000  0.250000000  0.350310383
     0.000000076  0.249920671  0.651210707
     0.250136036  0.499948856  0.650958957
     0.000000027  0.500010241  0.550022968
     0.250018062  0.249835329  0.550011410
     0.500000000  0.750000000  0.450103461
     0.750000000  0.000000000  0.450103461
     0.500000000  0.000000000  0.350310383
     0.750000000  0.750000000  0.350310383
     0.500000153  0.750639251  0.652709606
     0.749781230  0.999822901  0.651310722
     0.500000100  0.999593868  0.550108019
     0.749563785  0.750046699  0.550226614
     0.500000000  0.250000000  0.450103461
     0.750000000  0.500000000  0.450103461
     0.500000000  0.500000000  0.350310383
     0.750000000  0.250000000  0.350310383
     0.500000135  0.249834923  0.651020306
     0.749864129  0.499948870  0.650958978
     0.500000093  0.500452677  0.550232196
     0.749982079  0.249835315  0.550011453

  ion indices of the primitive-cell ions
   primitive index   ion index
                 1           1
                 2           2
                 3           3
                 4           4
                 5           5
                 6           6
                 7           7
                 8           8
                 9           9
                10          10
                11          11
                12          12
                13          13
                14          14
                15          15
                16          16
                17          17
                18          18
                19          19
                20          20
                21          21
                22          22
                23          23
                24          24
                25          25
                26          26
                27          27
                28          28
                29          29
                30          30
                31          31
                32          32
                33          33
                34          34
                35          35
                36          36
                37          37
                38          38
                39          39
                40          40
                41          41
                42          42
                43          43
                44          44
                45          45
                46          46
                47          47
                48          48
                49          49
                50          50
                51          51
                52          52
                53          53
                54          54
                55          55
                56          56
                57          57
                58          58
                59          59
                60          60
                61          61
                62          62
                63          63
                64          64

----------------------------------------------------------------------------------------



 KPOINTS: pymatgen v2020.8.13 with grid density = 

Automatic generation of k-mesh.
 Grid dimensions read from file:
 generate k-points for:    2    2    1

 Generating k-lattice:

  Cartesian coordinates                     Fractional coordinates (reciprocal lattice)
     0.058506126  0.000000000  0.000000000     0.500000000  0.000000000  0.000000000
     0.000000000  0.058506126  0.000000000     0.000000000  0.500000000  0.000000000
     0.000000000  0.000000000  0.046708051     0.000000000  0.000000000  1.000000000

  Length of vectors
     0.058506126  0.058506126  0.046708051

  Shift w.r.t. Gamma in fractional coordinates (k-lattice)
     0.000000000  0.000000000  0.000000000

 
 Subroutine IBZKPT returns following result:
 ===========================================
 
 Found      4 irreducible k-points:
 
 Following reciprocal coordinates:
            Coordinates               Weight
  0.000000  0.000000  0.000000      1.000000
  0.500000  0.000000  0.000000      1.000000
  0.000000  0.500000  0.000000      1.000000
  0.500000  0.500000  0.000000      1.000000
 
 Following cartesian coordinates:
            Coordinates               Weight
  0.000000  0.000000  0.000000      1.000000
  0.058506  0.000000  0.000000      1.000000
  0.000000  0.058506  0.000000      1.000000
  0.058506  0.058506  0.000000      1.000000
 
 
 Subroutine IBZKPT_HF returns following result:
 ==============================================
 
 Found      4 k-points in 1st BZ
 the following      4 k-points will be used (e.g. in the exchange kernel)
 Following reciprocal coordinates:   # in IRBZ
  0.000000  0.000000  0.000000    0.25000000   1 t-inv F
  0.500000  0.000000  0.000000    0.25000000   2 t-inv F
  0.000000  0.500000  0.000000    0.25000000   3 t-inv F
  0.500000  0.500000  0.000000    0.25000000   4 t-inv F


--------------------------------------------------------------------------------------------------------




 Dimension of arrays:
   k-points           NKPTS =      4   k-points in BZ     NKDIM =      4   number of bands    NBANDS=    384
   number of dos      NEDOS =    301   number of ions     NIONS =     64
   non local maximal  LDIM  =      5   non local SUM 2l+1 LMDIM =     13
   total plane-waves  NPLWV = 882000
   max r-space proj   IRMAX =      1   max aug-charges    IRDMAX=  11315
   dimension x,y,z NGX =    70 NGY =   70 NGZ =  180
   dimension x,y,z NGXF=   140 NGYF=  140 NGZF=  360
   support grid    NGXF=   140 NGYF=  140 NGZF=  360
   ions per type =              32  32
   NGX,Y,Z   is equivalent  to a cutoff of  13.62, 13.62, 13.98 a.u.
   NGXF,Y,Z  is equivalent  to a cutoff of  27.23, 27.23, 27.95 a.u.

 SYSTEM =  MgO-rocksalt                            
 POSCAR =  Mg  O                                   

--------------------------------------------------------------------------------------------------------


  energy-cutoff  :      600.00
  volume of cell :     1563.67
      direct lattice vectors                 reciprocal lattice vectors
     8.546113626  0.000000000  0.000000000     0.117012252  0.000000000  0.000000000
     0.000000000  8.546113626  0.000000000     0.000000000  0.117012252  0.000000000
     0.000000000  0.000000000 21.409585219     0.000000000  0.000000000  0.046708051

  length of vectors
     8.546113626  8.546113626 21.409585219     0.117012252  0.117012252  0.046708051



 k-points in units of 2pi/SCALE and weight: pymatgen v2020.8.13 with grid density = 
   0.00000000  0.00000000  0.00000000       0.250
   0.05850613  0.00000000  0.00000000       0.250
   0.00000000  0.05850613  0.00000000       0.250
   0.05850613  0.05850613  0.00000000       0.250

 k-points in reciprocal lattice and weights: pymatgen v2020.8.13 with grid density = 
   0.00000000  0.00000000  0.00000000       0.250
   0.50000000  0.00000000  0.00000000       0.250
   0.00000000  0.50000000  0.00000000       0.250
   0.50000000  0.50000000  0.00000000       0.250

 position of ions in fractional coordinates (direct lattice) 
   0.00000000  0.75000000  0.35031038
   0.25000000  0.00000000  0.35031038
   0.00000000  0.00000000  0.45010346
   0.25000000  0.75000000  0.45010346
   0.00000010  0.74985938  0.55034646
   0.24978103  0.99991963  0.55038982
   0.00000015  0.00027764  0.64964686
   0.24788357  0.74960408  0.64978197
   0.00000000  0.25000000  0.35031038
   0.25000000  0.50000000  0.35031038
   0.00000000  0.50000000  0.45010346
   0.25000000  0.25000000  0.45010346
   0.00000013  0.25006145  0.55030689
   0.24994921  0.49994400  0.55045981
   0.00000007  0.49956136  0.64976579
   0.24955006  0.25013544  0.64965201
   0.50000000  0.75000000  0.35031038
   0.75000000  0.00000000  0.35031038
   0.50000000  0.00000000  0.45010346
   0.75000000  0.75000000  0.45010346
   0.49999998  0.74981117  0.55034629
   0.75021909  0.99991963  0.55038979
   0.49999998  0.00266695  0.64889035
   0.75211657  0.74960398  0.64978186
   0.50000000  0.25000000  0.35031038
   0.75000000  0.50000000  0.35031038
   0.50000000  0.50000000  0.45010346
   0.75000000  0.25000000  0.45010346
   0.50000000  0.25024577  0.55022391
   0.75005091  0.49994399  0.55045982
   0.50000007  0.49767055  0.64988490
   0.75045013  0.25013550  0.64965195
   0.00000000  0.75000000  0.45010346
   0.25000000  0.00000000  0.45010346
   0.00000000  0.00000000  0.35031038
   0.25000000  0.75000000  0.35031038
   0.00000004  0.74996827  0.65114480
   0.25021892  0.99982293  0.65131070
   0.00000001  0.99990065  0.55007562
   0.25043630  0.75004670  0.55022660
   0.00000000  0.25000000  0.45010346
   0.25000000  0.50000000  0.45010346
   0.00000000  0.50000000  0.35031038
   0.25000000  0.25000000  0.35031038
   0.00000008  0.24992067  0.65121071
   0.25013604  0.49994886  0.65095896
   0.00000003  0.50001024  0.55002297
   0.25001806  0.24983533  0.55001141
   0.50000000  0.75000000  0.45010346
   0.75000000  0.00000000  0.45010346
   0.50000000  0.00000000  0.35031038
   0.75000000  0.75000000  0.35031038
   0.50000015  0.75063925  0.65270961
   0.74978123  0.99982290  0.65131072
   0.50000010  0.99959387  0.55010802
   0.74956378  0.75004670  0.55022661
   0.50000000  0.25000000  0.45010346
   0.75000000  0.50000000  0.45010346
   0.50000000  0.50000000  0.35031038
   0.75000000  0.25000000  0.35031038
   0.50000014  0.24983492  0.65102031
   0.74986413  0.49994887  0.65095898
   0.50000009  0.50045268  0.55023220
   0.74998208  0.24983531  0.55001145

 position of ions in cartesian coordinates  (Angst):
   0.00000000  6.40958522  7.50000000
   2.13652841  0.00000000  7.50000000
   0.00000000  0.00000000  9.63652841
   2.13652841  6.40958522  9.63652841
   0.00000082  6.40838345 11.78268940
   2.13465703  8.54542682 11.78361780
   0.00000131  0.00237271 13.90866981
   2.11844112  6.40620161 13.91156252
   0.00000000  2.13652841  7.50000000
   2.13652841  4.27305681  7.50000000
   0.00000000  4.27305681  9.63652841
   2.13652841  2.13652841  9.63652841
   0.00000114  2.13705359 11.78184217
   2.13609433  4.27257827 11.78511630
   0.00000058  4.26930816 13.91121614
   2.13268317  2.13768589 13.90878003
   4.27305681  6.40958522  7.50000000
   6.40958522  0.00000000  7.50000000
   4.27305681  0.00000000  9.63652841
   6.40958522  6.40958522  9.63652841
   4.27305663  6.40797145 11.78268570
   6.41145755  8.54542675 11.78361707
   4.27305664  0.02279204 13.89247320
   6.42767370  6.40620080 13.91156010
   4.27305681  2.13652841  7.50000000
   6.40958522  4.27305681  7.50000000
   4.27305681  4.27305681  9.63652841
   6.40958522  2.13652841  9.63652841
   4.27305678  2.13862875 11.78006577
   6.41002027  4.27257817 11.78511644
   4.27305742  4.25314907 13.91376620
   6.41343210  2.13768643 13.90877876
   0.00000000  6.40958522  9.63652841
   2.13652841  0.00000000  9.63652841
   0.00000000  0.00000000  7.50000000
   2.13652841  6.40958522  7.50000000
   0.00000032  6.40931401 13.94074001
   2.13839933  8.54460039 13.94429188
   0.00000011  8.54526458 11.77689089
   2.14025706  6.40998430 11.78012319
   0.00000000  2.13652841  9.63652841
   2.13652841  4.27305681  9.63652841
   0.00000000  4.27305681  7.50000000
   2.13652841  2.13652841  7.50000000
   0.00000065  2.13585045 13.94215112
   2.13769099  4.27261973 13.93676126
   0.00000023  4.27314434 11.77576361
   2.13668277  2.13512111 11.77551616
   4.27305681  6.40958522  9.63652841
   6.40958522  0.00000000  9.63652841
   4.27305681  0.00000000  7.50000000
   6.40958522  6.40958522  7.50000000
   4.27305812  6.41504833 13.97424193
   6.40771559  8.54460012 13.94429241
   4.27305767  8.54264278 11.77758452
   6.40585728  6.40998432 11.78012358
   4.27305681  2.13652841  9.63652841
   6.40958522  4.27305681  9.63652841
   4.27305681  4.27305681  7.50000000
   6.40958522  2.13652841  7.50000000
   4.27305797  2.13511764 13.93807473
   6.40842405  4.27261985 13.93676172
   4.27305761  4.27692544 11.78024309
   6.40943206  2.13512099 11.77551706



--------------------------------------------------------------------------------------------------------

--------------------------------------- Iteration      FINAL  ---------------------------------------


--------------------OUTCAR has been truncated-------------------------


--------------------OUTCAR has been truncated-------------------------


--------------------OUTCAR has been truncated-------------------------


--------------------OUTCAR has been truncated-------------------------


--------------------OUTCAR has been truncated-------------------------


--------------------OUTCAR has been truncated-------------------------


--------------------OUTCAR has been truncated-------------------------


--------------------OUTCAR has been truncated-------------------------


--------------------OUTCAR has been truncated-------------------------


--------------------OUTCAR has been truncated-------------------------



 VOLUME and BASIS-vectors are now :
 -----------------------------------------------------------------------------
  energy-cutoff  :      600.00
  volume of cell :     1563.67
      direct lattice vectors                 reciprocal lattice vectors
     8.546113626  0.000000000  0.000000000     0.117012252  0.000000000  0.000000000
     0.000000000  8.546113626  0.000000000     0.000000000  0.117012252  0.000000000
     0.000000000  0.000000000 21.409585219     0.000000000  0.000000000  0.046708051

  length of vectors
     8.546113626  8.546113626 21.409585219     0.117012252  0.117012252  0.046708051


 FORCES acting on ions:
    Electron-Ion                     Ewald-Force                    Non-Local-Force
 -----------------------------------------------------------------------------------------------
   0.251E-05 0.103E-01 0.201E+04   -.397E-05 -.105E-01 -.200E+04   -.170E-05 0.168E-03 -.670E+01
   -.499E-01 0.986E-01 0.201E+04   0.502E-01 -.101E+00 -.200E+04   -.155E-03 0.147E-02 -.671E+01
   -.574E-05 0.346E+00 0.665E+03   0.107E-04 -.346E+00 -.665E+03   -.498E-05 -.182E-03 0.428E+00
   -.180E+00 0.103E+00 0.664E+03   0.213E+00 -.106E+00 -.664E+03   -.210E-01 0.113E-02 0.438E+00
   0.241E-04 -.209E+00 -.667E+03   -.245E-04 0.203E+00 0.667E+03   -.580E-05 0.114E-01 -.211E+00
   -.826E+00 0.114E+01 -.669E+03   0.840E+00 -.122E+01 0.669E+03   0.921E-02 0.472E-01 -.310E+00
   0.275E-03 0.294E+00 -.200E+04   -.308E-03 -.147E+00 0.199E+04   0.137E-04 -.121E+00 0.603E+01
   -.809E+01 -.706E+00 -.200E+04   0.844E+01 0.807E+00 0.199E+04   -.409E-01 -.391E-01 0.594E+01
   0.746E-05 -.998E-02 0.201E+04   -.763E-05 0.101E-01 -.200E+04   -.534E-06 -.541E-04 -.670E+01
   -.594E-01 -.997E-01 0.201E+04   0.604E-01 0.102E+00 -.200E+04   -.634E-03 -.125E-02 -.671E+01
   0.254E-04 -.363E+00 0.665E+03   -.260E-04 0.360E+00 -.665E+03   0.681E-06 0.208E-02 0.411E+00
   -.154E+00 -.101E+00 0.665E+03   0.142E+00 0.974E-01 -.666E+03   0.808E-02 0.233E-02 0.404E+00
   0.110E-03 0.256E+00 -.668E+03   -.119E-03 -.249E+00 0.668E+03   -.682E-06 -.128E-01 -.193E+00
   -.108E+01 -.116E+01 -.668E+03   0.115E+01 0.124E+01 0.669E+03   -.381E-01 -.483E-01 -.383E+00
   -.141E-03 -.408E+00 -.200E+04   0.129E-03 0.245E+00 0.199E+04   0.904E-05 0.135E+00 0.609E+01
   -.341E+00 0.735E+00 -.200E+04   0.180E+00 -.804E+00 0.199E+04   0.139E+00 0.250E-01 0.605E+01
   -.182E-05 0.203E-01 0.201E+04   0.407E-05 -.210E-01 -.200E+04   -.362E-05 0.477E-03 -.671E+01
   0.499E-01 0.986E-01 0.201E+04   -.502E-01 -.101E+00 -.200E+04   0.160E-03 0.147E-02 -.671E+01
   0.160E-04 0.388E+00 0.664E+03   -.145E-04 -.427E+00 -.665E+03   -.174E-05 0.255E-01 0.415E+00
   0.180E+00 0.103E+00 0.664E+03   -.213E+00 -.106E+00 -.664E+03   0.210E-01 0.113E-02 0.438E+00
   -.363E-04 0.173E+00 -.676E+03   0.407E-04 -.217E+00 0.676E+03   0.184E-05 0.435E-01 -.176E+00
   0.826E+00 0.114E+01 -.669E+03   -.840E+00 -.122E+01 0.669E+03   -.921E-02 0.472E-01 -.310E+00
   -.299E-03 0.878E+01 -.199E+04   0.332E-03 -.910E+01 0.198E+04   -.153E-04 -.165E-01 0.582E+01
   0.809E+01 -.706E+00 -.200E+04   -.844E+01 0.807E+00 0.199E+04   0.409E-01 -.391E-01 0.594E+01
   -.347E-05 -.192E-01 0.201E+04   0.759E-05 0.201E-01 -.200E+04   -.564E-05 -.626E-03 -.669E+01
   0.594E-01 -.997E-01 0.201E+04   -.604E-01 0.102E+00 -.200E+04   0.635E-03 -.125E-02 -.671E+01
   -.130E-04 -.398E+00 0.664E+03   0.204E-04 0.442E+00 -.664E+03   -.542E-05 -.280E-01 0.445E+00
   0.154E+00 -.101E+00 0.665E+03   -.142E+00 0.974E-01 -.666E+03   -.808E-02 0.233E-02 0.404E+00
   -.146E-03 -.171E+00 -.665E+03   0.148E-03 0.220E+00 0.666E+03   0.662E-05 -.459E-01 -.195E+00
   0.108E+01 -.116E+01 -.668E+03   -.115E+01 0.124E+01 0.669E+03   0.381E-01 -.483E-01 -.383E+00
   0.946E-04 -.912E+01 -.200E+04   -.862E-04 0.933E+01 0.199E+04   -.359E-05 0.809E-01 0.601E+01
   0.341E+00 0.736E+00 -.200E+04   -.180E+00 -.804E+00 0.199E+04   -.139E+00 0.250E-01 0.605E+01
   0.263E-04 -.127E-01 0.498E+03   -.299E-04 0.151E-01 -.498E+03   0.329E-05 -.224E-02 -.746E-01
   -.209E+00 0.343E+00 0.498E+03   0.221E+00 -.340E+00 -.498E+03   -.131E-01 -.291E-02 -.112E+00
   0.569E-05 0.689E-01 0.151E+04   -.178E-05 -.691E-01 -.151E+04   -.188E-05 0.248E-03 0.305E+01
   -.402E-01 0.131E-01 0.151E+04   0.439E-01 -.132E-01 -.151E+04   -.447E-02 0.996E-04 0.305E+01
   -.434E-04 -.268E+00 -.151E+04   0.242E-04 0.340E+00 0.152E+04   0.219E-04 -.834E-01 -.404E+01
   -.109E+01 0.150E+01 -.151E+04   0.135E+01 -.177E+01 0.152E+04   -.304E+00 0.299E+00 -.427E+01
   -.894E-05 0.279E+00 -.497E+03   -.133E-05 -.277E+00 0.496E+03   0.150E-04 0.683E-03 0.274E+00
   -.152E+01 0.148E-01 -.499E+03   0.165E+01 -.821E-02 0.499E+03   -.165E+00 -.130E-01 0.186E+00
   0.539E-04 0.125E-01 0.499E+03   -.582E-04 -.111E-01 -.498E+03   0.447E-05 -.214E-02 -.813E-01
   -.256E+00 -.361E+00 0.498E+03   0.257E+00 0.366E+00 -.498E+03   -.248E-03 -.621E-02 -.119E+00
   0.340E-05 -.692E-01 0.151E+04   -.508E-05 0.695E-01 -.151E+04   0.473E-06 -.352E-03 0.305E+01
   -.349E-01 -.123E-01 0.151E+04   0.336E-01 0.126E-01 -.151E+04   0.157E-02 -.424E-03 0.305E+01
   0.625E-05 0.335E+00 -.151E+04   -.190E-04 -.404E+00 0.152E+04   0.148E-04 0.772E-01 -.408E+01
   -.138E+01 -.142E+01 -.151E+04   0.158E+01 0.162E+01 0.152E+04   -.238E+00 -.230E+00 -.403E+01
   -.541E-04 -.324E+00 -.496E+03   0.509E-04 0.327E+00 0.496E+03   0.552E-05 -.411E-02 0.276E+00
   -.133E+00 0.407E-01 -.496E+03   0.147E+00 -.594E-01 0.496E+03   -.142E-01 0.254E-01 0.275E+00
   -.237E-04 0.509E-01 0.498E+03   0.227E-04 -.431E-01 -.497E+03   0.112E-05 -.842E-02 -.129E+00
   0.209E+00 0.343E+00 0.498E+03   -.221E+00 -.340E+00 -.498E+03   0.131E-01 -.292E-02 -.112E+00
   -.275E-05 0.739E-01 0.151E+04   0.191E-05 -.793E-01 -.151E+04   -.504E-06 0.644E-02 0.305E+01
   0.402E-01 0.131E-01 0.151E+04   -.439E-01 -.132E-01 -.151E+04   0.447E-02 0.995E-04 0.305E+01
   0.113E-03 0.453E+00 -.152E+04   -.975E-04 -.315E+00 0.153E+04   -.243E-04 -.181E+00 -.456E+01
   0.109E+01 0.150E+01 -.151E+04   -.135E+01 -.177E+01 0.152E+04   0.304E+00 0.299E+00 -.427E+01
   -.764E-05 0.184E+01 -.496E+03   0.220E-04 -.197E+01 0.495E+03   -.208E-04 0.171E+00 0.365E+00
   0.152E+01 0.148E-01 -.499E+03   -.165E+01 -.816E-02 0.499E+03   0.165E+00 -.130E-01 0.186E+00
   -.517E-04 -.397E-01 0.499E+03   0.430E-04 0.264E-01 -.498E+03   0.412E-05 0.147E-01 -.507E-01
   0.256E+00 -.361E+00 0.498E+03   -.257E+00 0.366E+00 -.498E+03   0.255E-03 -.621E-02 -.119E+00
   -.464E-05 -.748E-01 0.151E+04   0.518E-05 0.799E-01 -.151E+04   0.349E-06 -.617E-02 0.305E+01
   0.349E-01 -.123E-01 0.151E+04   -.336E-01 0.127E-01 -.151E+04   -.157E-02 -.425E-03 0.305E+01
   0.667E-05 -.379E+00 -.151E+04   0.185E-04 0.342E+00 0.152E+04   -.274E-04 0.643E-01 -.410E+01
   0.138E+01 -.142E+01 -.151E+04   -.158E+01 0.162E+01 0.152E+04   0.238E+00 -.230E+00 -.403E+01
   0.475E-04 -.186E+01 -.499E+03   -.383E-04 0.199E+01 0.499E+03   -.125E-04 -.169E+00 0.160E+00
   0.133E+00 0.407E-01 -.496E+03   -.147E+00 -.595E-01 0.496E+03   0.142E-01 0.254E-01 0.275E+00
 -----------------------------------------------------------------------------------------------
   -.464E-04 -.813E-01 0.144E+02   -.599E-13 -.910E-13 -.796E-11   0.274E-04 0.716E-01 -.122E+02


 POSITION                                       TOTAL-FORCE (eV/Angst)
 -----------------------------------------------------------------------------------
      0.00000      6.40959      7.50000        -0.000002     -0.000029      0.748571
      2.13653      0.00000      7.50000         0.000133     -0.000604      0.751050
      0.00000      0.00000      9.63653         0.000000     -0.000254      0.028490
      2.13653      6.40959      9.63653         0.008472     -0.001152      0.043289
      0.00000      6.40838     11.78269        -0.000007      0.006173     -0.057443
      2.13466      8.54543     11.78362         0.021950     -0.020002     -0.015163
      0.00000      0.00237     13.90867        -0.000016      0.010017     -0.447028
      2.11844      6.40620     13.91156         0.286457      0.052785     -0.413645
      0.00000      2.13653      7.50000         0.000000      0.000043      0.749941
      2.13653      4.27306      7.50000         0.000273      0.000562      0.751071
      0.00000      4.27306      9.63653         0.000001     -0.000606      0.028625
      2.13653      2.13653      9.63653        -0.003221     -0.001148      0.029111
      0.00000      2.13705     11.78184        -0.000009     -0.007184     -0.041321
      2.13609      4.27258     11.78512         0.024298      0.022995     -0.040763
      0.00000      4.26931     13.91122        -0.000001     -0.010945     -0.489352
      2.13268      2.13769     13.90878        -0.004266     -0.037174     -0.462464
      4.27306      6.40959      7.50000        -0.000002     -0.000121      0.753443
      6.40959      0.00000      7.50000        -0.000129     -0.000604      0.751061
      4.27306      0.00000      9.63653        -0.000000     -0.010247      0.042017
      6.40959      6.40959      9.63653        -0.008469     -0.001156      0.043295
      4.27306      6.40797     11.78269         0.000007      0.004716      0.128316
      6.41146      8.54543     11.78362        -0.021950     -0.020004     -0.015154
      4.27306      0.02279     13.89247         0.000015     -0.310889     -0.274199
      6.42767      6.40620     13.91156        -0.286459      0.052797     -0.413634
      4.27306      2.13653      7.50000        -0.000003      0.000216      0.747411
      6.40959      4.27306      7.50000        -0.000272      0.000563      0.751092
      4.27306      4.27306      9.63653         0.000001      0.012133      0.039578
      6.40959      2.13653      9.63653         0.003221     -0.001143      0.029120
      4.27306      2.13863     11.78007         0.000009     -0.002807     -0.053221
      6.41002      4.27258     11.78512        -0.024298      0.022996     -0.040758
      4.27306      4.25315     13.91377         0.000004      0.282288     -0.451483
      6.41343      2.13769     13.90878         0.004268     -0.037189     -0.462422
      0.00000      6.40959      9.63653         0.000000     -0.000176      0.045629
      2.13653      0.00000      9.63653        -0.003331     -0.001188      0.035873
      0.00000      0.00000      7.50000         0.000002      0.000086     -0.257845
      2.13653      6.40959      7.50000        -0.001541      0.000047     -0.258755
      0.00000      6.40931     13.94074         0.000007     -0.027034     -0.085579
      2.13840      8.54460     13.94429        -0.099279      0.088010     -0.153946
      0.00000      8.54526     11.77689         0.000008      0.002439      0.024119
      2.14026      6.40998     11.78012        -0.069846     -0.008979     -0.014712
      0.00000      2.13653      9.63653         0.000001     -0.001106      0.038465
      2.13653      4.27306      9.63653         0.000513     -0.001443      0.040318
      0.00000      4.27306      7.50000        -0.000001     -0.000092     -0.257968
      2.13653      2.13653      7.50000         0.000542     -0.000133     -0.257624
      0.00000      2.13585     13.94215         0.000005      0.022462     -0.102793
      2.13769      4.27262     13.93676        -0.075273     -0.069803     -0.065454
      0.00000      4.27314     11.77576         0.000004     -0.002520      0.041568
      2.13668      2.13512     11.77552        -0.003051      0.011373      0.034613
      4.27306      6.40959      9.63653         0.000001     -0.002174      0.025977
      6.40959      0.00000      9.63653         0.003334     -0.001190      0.035870
      4.27306      0.00000      7.50000        -0.000001      0.002227     -0.258152
      6.40959      6.40959      7.50000         0.001540      0.000047     -0.258752
      4.27306      6.41505     13.97424        -0.000013     -0.078280     -0.320597
      6.40772      8.54460     13.94429         0.099280      0.088013     -0.153952
      4.27306      8.54264     11.77758        -0.000010      0.069905     -0.021670
      6.40586      6.40998     11.78012         0.069845     -0.008981     -0.014726
      4.27306      2.13653      9.63653        -0.000004      0.004115      0.042309
      6.40959      4.27306      9.63653        -0.000510     -0.001443      0.040315
      4.27306      4.27306      7.50000         0.000001     -0.002088     -0.258472
      6.40959      2.13653      7.50000        -0.000543     -0.000129     -0.257621
      4.27306      2.13512     13.93807        -0.000007      0.040912     -0.098928
      6.40842      4.27262     13.93676         0.075273     -0.069805     -0.065457
      4.27306      4.27693     11.78024        -0.000005     -0.069473     -0.014081
      6.40943      2.13512     11.77552         0.003052      0.011375      0.034598
 -----------------------------------------------------------------------------------
    total drift:                               -0.000016     -0.001187      0.004991


--------------------------------------------------------------------------------------------------------



  FREE ENERGIE OF THE ION-ELECTRON SYSTEM (eV)
  ---------------------------------------------------
  free  energy   TOTEN  =      -469.82769079 eV

  energy  without entropy=     -469.82769079  energy(sigma->0) =     -469.82769079



--------------------------------------------------------------------------------------------------------


    POTLOK:  cpu time      1.0639: real time      1.0642


--------------------------------------------------------------------------------------------------------


     LOOP+:  cpu time   2838.8993: real time   2839.8755
    4ORBIT:  cpu time      0.0000: real time      0.0000

 total amount of memory used by VASP MPI-rank0   191141. kBytes
=======================================================================

   base      :      30000. kBytes
   nonl-proj :      12353. kBytes
   fftplans  :       8082. kBytes
   grid      :       7379. kBytes
   one-center:         64. kBytes
   HF        :         67. kBytes
   nonlr-proj:       7017. kBytes
   wavefun   :       3906. kBytes
   fock_wrk  :     122273. kBytes

  
  
 General timing and accounting informations for this job:
 ========================================================
  
                  Total CPU time used (sec):     2902.837
                            User time (sec):     2897.023
                          System time (sec):        5.814
                         Elapsed time (sec):     2928.800
  
                   Maximum memory used (kb):      455912.
                   Average memory used (kb):          N/A
  
                          Minor page faults:       278168
                          Major page faults:            0
                 Voluntary context switches:        25929
