 vasp.6.3.0 20Jan22 (build Apr  1 2022 16:44:48) complex                         
 executed on        HPECrayEX_GCC date 2022.11.13  00:36:27
 running  512 mpi-ranks, with    1 threads/rank
 distrk:  each k-point on  512 cores,    1 groups
 distr:  one band on NCORE=   8 cores,   64 groups


--------------------------------------------------------------------------------------------------------


 INCAR:
   SYSTEM = MgO-rocksalt
   ISMEAR = 0
   SIGMA = 0.05
   EDIFF = 1E-6
   ALGO = ALL
   ISTART = 0
   IBRION = -1
   NSW = 0
   ISYM = 0
   DIPOL = 0.5 0.5 0.5
   IDIPOL = 3
   LDIPOL = .TRUE.
   GGA = PE
   IVDW = 1
   VDW_C6 = 0.63 0.70
   VDW_R0 = 1.243 1.342
   ENCUT = 600
   PREC = Accurate
   LASPH = .TRUE.
   LREAL = .FALSE.
   ISPIN = 1
   NELM = 200
   NELMIN = 8
   NCORE = 8
   KPAR = 1
   LWAVE = .FALSE.
   LCHARG = .FALSE.

 POTCAR:    PAW_PBE Mg_pv 13Apr2007               
 POTCAR:    PAW_PBE O 08Apr2002                   
 POTCAR:    PAW_PBE Mg_pv 13Apr2007               
   SHA256 =  f474ac0dd33840b9ae76c01d57fea79fdf77cdfbb07d5ade72c65f83c709b62b Mg_pv/POTCAR          
   COPYR  = (c) Copyright 13Apr2007 Georg Kresse                                                    
   COPYR  = This file is part of the software VASP. Any use, copying, and all other rights are regul
   COPYR  = If you do not have a valid VASP license, you may not use, copy or distribute this file. 
   VRHFIN =Mg: p6s2                                                                                 
   LEXCH  = PE                                                                                      
   EATOM  =  1056.7344 eV,   77.6678 Ry                                                             
                                                                                                    
   TITEL  = PAW_PBE Mg_pv 13Apr2007                                                                 
   LULTRA =        F    use ultrasoft PP ?                                                          
   IUNSCR =        1    unscreen: 0-lin 1-nonlin 2-no                                               
   RPACOR =    1.500    partial core radius                                                         
   POMASS =   24.305; ZVAL   =    8.000    mass and valenz                                          
   RCORE  =    2.000    outmost cutoff radius                                                       
   RWIGS  =    2.000; RWIGS  =    1.058    wigner-seitz radius (au A)                               
   ENMAX  =  403.929; ENMIN  =  302.947 eV                                                          
   RCLOC  =    1.506    cutoff for local pot                                                        
   LCOR   =        T    correct aug charges                                                         
   LPAW   =        T    paw PP                                                                      
   EAUG   =  758.780                                                                                
   DEXC   =    0.000                                                                                
   RMAX   =    2.045    core radius for proj-oper                                                   
   RAUG   =    1.300    factor for augmentation sphere                                              
   RDEP   =    2.025    radius for radial grids                                                     
   RDEPT  =    1.557    core radius for aug-charge                                                  
                                                                                                    
   Atomic configuration                                                                             
    5 entries                                                                                       
     n  l   j            E        occ.                                                              
     1  0  0.50     -1259.6230   2.0000                                                             
     2  0  0.50       -79.8442   2.0000                                                             
     2  1  1.50       -46.6121   6.0000                                                             
     3  0  0.50        -4.7055   2.0000                                                             
     3  2  1.50        -1.3606   0.0000                                                             
   Description                                                                                      
     l       E           TYP  RCUT    TYP  RCUT                                                     
     1    -46.6121073     23  1.600                                                                 
     1      2.7211652     23  1.600                                                                 
     0     -4.7054661     23  2.000                                                                 
     0     61.2262170     23  2.000                                                                 
     2     -1.3605826     23  2.000                                                                 
  local pseudopotential read in
  partial core-charges read in
  partial kinetic energy density read in
  atomic valenz-charges read in
  non local Contribution for L=           1  read in
    real space projection operators read in
  non local Contribution for L=           1  read in
    real space projection operators read in
  non local Contribution for L=           0  read in
    real space projection operators read in
  non local Contribution for L=           0  read in
    real space projection operators read in
  non local Contribution for L=           2  read in
    real space projection operators read in
    PAW grid and wavefunctions read in

   number of l-projection  operators is LMAX  =           5
   number of lm-projection operators is LMMAX =          13

 POTCAR:    PAW_PBE O 08Apr2002                   
   SHA256 =  818f92134a0a090dccd8ba1447fa70422a3b330e708bb4f08108d8ae51209ddf O/POTCAR              
   COPYR  = (c) Copyright 08Apr2002 Georg Kresse                                                    
   COPYR  = This file is part of the software VASP. Any use, copying, and all other rights are regul
   COPYR  = If you do not have a valid VASP license, you may not use, copy or distribute this file. 
   VRHFIN =O: s2p4                                                                                  
   LEXCH  = PE                                                                                      
   EATOM  =   432.3788 eV,   31.7789 Ry                                                             
                                                                                                    
   TITEL  = PAW_PBE O 08Apr2002                                                                     
   LULTRA =        F    use ultrasoft PP ?                                                          
   IUNSCR =        1    unscreen: 0-lin 1-nonlin 2-no                                               
   RPACOR =    1.200    partial core radius                                                         
   POMASS =   16.000; ZVAL   =    6.000    mass and valenz                                          
   RCORE  =    1.520    outmost cutoff radius                                                       
   RWIGS  =    1.550; RWIGS  =    0.820    wigner-seitz radius (au A)                               
   ENMAX  =  400.000; ENMIN  =  300.000 eV                                                          
   ICORE  =        2    local potential                                                             
   LCOR   =        T    correct aug charges                                                         
   LPAW   =        T    paw PP                                                                      
   EAUG   =  605.392                                                                                
   DEXC   =    0.000                                                                                
   RMAX   =    1.553    core radius for proj-oper                                                   
   RAUG   =    1.300    factor for augmentation sphere                                              
   RDEP   =    1.550    radius for radial grids                                                     
   RDEPT  =    1.329    core radius for aug-charge                                                  
                                                                                                    
   Atomic configuration                                                                             
    4 entries                                                                                       
     n  l   j            E        occ.                                                              
     1  0  0.50      -514.6923   2.0000                                                             
     2  0  0.50       -23.9615   2.0000                                                             
     2  1  0.50        -9.0305   4.0000                                                             
     3  2  1.50        -9.5241   0.0000                                                             
   Description                                                                                      
     l       E           TYP  RCUT    TYP  RCUT                                                     
     0    -23.9615318     23  1.200                                                                 
     0     -9.5240782     23  1.200                                                                 
     1     -9.0304911     23  1.520                                                                 
     1      8.1634956     23  1.520                                                                 
     2     -9.5240782      7  1.500                                                                 
  local pseudopotential read in
  partial core-charges read in
  partial kinetic energy density read in
  kinetic energy density of atom read in
  atomic valenz-charges read in
  non local Contribution for L=           0  read in
    real space projection operators read in
  non local Contribution for L=           0  read in
    real space projection operators read in
  non local Contribution for L=           1  read in
    real space projection operators read in
  non local Contribution for L=           1  read in
    real space projection operators read in
    PAW grid and wavefunctions read in

   number of l-projection  operators is LMAX  =           4
   number of lm-projection operators is LMMAX =           8

 -----------------------------------------------------------------------------
|                                                                             |
|               ----> ADVICE to this user running VASP <----                  |
|                                                                             |
|     You have a (more or less) 'large supercell' and for larger cells it     |
|     might be more efficient to use real-space projection operators.         |
|     Therefore, try LREAL= Auto in the INCAR file.                           |
|     Mind: For very accurate calculation, you might also keep the            |
|     reciprocal projection scheme (i.e. LREAL=.FALSE.).                      |
|                                                                             |
 -----------------------------------------------------------------------------

  PAW_PBE Mg_pv 13Apr2007               :
 energy of atom  1       EATOM=-1056.7344
 kinetic energy error for atom=    0.0221 (will be added to EATOM!!)
  PAW_PBE O 08Apr2002                   :
 energy of atom  2       EATOM= -432.3788
 kinetic energy error for atom=    0.0168 (will be added to EATOM!!)


 POSCAR: Mg  O
  positions in direct lattice
  No initial velocities read in
 exchange correlation table for  LEXCH =        8
   RHO(1)=    0.500       N(1)  =     2000
   RHO(2)=  100.500       N(2)  =     4000



--------------------------------------------------------------------------------------------------------


 ion  position               nearest neighbor table
   1  0.250  0.000  0.353-  35 2.09  36 2.09  43 2.09  52 2.09  33 2.09
   2  0.500  0.250  0.353-  35 2.09  36 2.09  44 2.09  51 2.09  34 2.09
   3  0.250  0.250  0.451-  33 2.09  34 2.09  41 2.09  50 2.09  35 2.09  39 2.09
   4  0.500  0.000  0.451-  33 2.09  34 2.09  42 2.09  49 2.09  36 2.09  40 2.09
   5  0.250  1.000  0.550-  56 2.09  39 2.09  40 2.09  47 2.09  33 2.10  37 2.12
   6  0.500  0.250  0.550-  39 2.09  55 2.09  48 2.09  40 2.09  34 2.10  38 2.11
   7  0.250  0.250  0.647-  39 2.08  54 2.09  37 2.09  45 2.09  38 2.09
   8  0.500  0.000  0.647-  38 2.08  40 2.08  37 2.09  53 2.09  46 2.09
   9  0.250  0.500  0.353-  35 2.09  43 2.09  44 2.09  60 2.09  41 2.09
  10  0.500  0.750  0.353-  36 2.09  43 2.09  44 2.09  59 2.09  42 2.09
  11  0.250  0.750  0.451-  33 2.09  41 2.09  42 2.09  58 2.09  43 2.09  47 2.09
  12  0.500  0.500  0.451-  34 2.09  41 2.09  42 2.09  57 2.09  44 2.09  48 2.10
  13  0.250  0.500  0.550-  39 2.09  47 2.09  48 2.09  64 2.09  41 2.10  45 2.11
  14  0.500  0.750  0.550-  63 2.08  48 2.08  40 2.09  47 2.09  42 2.11  46 2.14
  15  0.250  0.750  0.647-  62 2.08  47 2.08  37 2.09  45 2.09  46 2.09
  16  0.498  0.498  0.648-  38 2.08  45 2.08  48 2.09  61 2.10  46 2.10
  17  0.750  0.000  0.353-  36 2.09  51 2.09  52 2.09  59 2.09  49 2.09
  18  0.000  0.250  0.353-  35 2.09  51 2.09  52 2.09  60 2.09  50 2.09
  19  0.750  0.250  0.451-  34 2.09  49 2.09  50 2.09  57 2.09  51 2.09  55 2.09
  20  0.000  0.000  0.451-  33 2.09  49 2.09  50 2.09  58 2.09  52 2.09  56 2.09
  21  0.750  0.000  0.550-  56 2.09  40 2.09  63 2.09  55 2.09  49 2.10  53 2.11
  22  1.000  0.250  0.550-  56 2.09  39 2.09  64 2.09  55 2.09  50 2.10  54 2.12
  23  0.750  0.250  0.647-  53 2.08  55 2.08  54 2.09  38 2.09  61 2.09
  24  0.000  0.000  0.647-  56 2.08  54 2.09  37 2.09  62 2.09  53 2.09
  25  0.750  0.500  0.353-  44 2.09  51 2.09  59 2.09  60 2.09  57 2.09
  26  0.000  0.750  0.353-  43 2.09  52 2.09  59 2.09  60 2.09  58 2.09
  27  0.750  0.750  0.451-  42 2.09  49 2.09  57 2.09  58 2.09  59 2.09  63 2.10
  28  0.000  0.500  0.451-  41 2.09  50 2.09  57 2.09  58 2.09  60 2.09  64 2.09
  29  0.750  0.500  0.550-  63 2.08  48 2.08  64 2.09  55 2.09  57 2.11  61 2.14
  30  0.000  0.750  0.550-  56 2.09  64 2.09  63 2.09  47 2.09  58 2.10  62 2.11
  31  0.752  0.752  0.648-  53 2.08  62 2.08  63 2.09  46 2.10  61 2.10
  32  0.000  0.500  0.647-  45 2.08  64 2.08  54 2.09  62 2.09  61 2.09
  33  0.250  0.000  0.451-   3 2.09   4 2.09  11 2.09  20 2.09   1 2.09   5 2.10
  34  0.500  0.250  0.451-   3 2.09   4 2.09  12 2.09  19 2.09   2 2.09   6 2.10
  35  0.250  0.250  0.353-   1 2.09   2 2.09   9 2.09  18 2.09   3 2.09
  36  0.500  0.000  0.353-   1 2.09   2 2.09  10 2.09  17 2.09   4 2.09
  37  0.250  1.000  0.650-   7 2.09  24 2.09   8 2.09  15 2.09   5 2.12
  38  0.500  0.249  0.649-  16 2.08   8 2.08   7 2.09  23 2.09   6 2.11
  39  0.250  0.250  0.549-   7 2.08  22 2.09   5 2.09  13 2.09   6 2.09   3 2.09
  40  0.500  1.000  0.549-   8 2.08  14 2.09   5 2.09  21 2.09   6 2.09   4 2.09
  41  0.250  0.500  0.451-   3 2.09  11 2.09  12 2.09  28 2.09   9 2.09  13 2.10
  42  0.500  0.750  0.451-   4 2.09  11 2.09  12 2.09  27 2.09  10 2.09  14 2.11
  43  0.250  0.750  0.353-   1 2.09   9 2.09  10 2.09  26 2.09  11 2.09
  44  0.500  0.500  0.353-   2 2.09   9 2.09  10 2.09  25 2.09  12 2.09
  45  0.249  0.500  0.649-  16 2.08  32 2.08   7 2.09  15 2.09  13 2.11
  46  0.500  0.750  0.650-   8 2.09  15 2.09  16 2.10  31 2.10  14 2.14
  47  0.250  0.750  0.549-  15 2.08  14 2.09   5 2.09  13 2.09  30 2.09  11 2.09
  48  0.500  0.500  0.550-  29 2.08  14 2.08  16 2.09   6 2.09  13 2.09  12 2.10
  49  0.750  0.000  0.451-   4 2.09  19 2.09  20 2.09  27 2.09  17 2.09  21 2.10
  50  0.000  0.250  0.451-   3 2.09  19 2.09  20 2.09  28 2.09  18 2.09  22 2.10
  51  0.750  0.250  0.353-   2 2.09  17 2.09  18 2.09  25 2.09  19 2.09
  52  0.000  0.000  0.353-   1 2.09  17 2.09  18 2.09  26 2.09  20 2.09
  53  0.750  0.001  0.649-  31 2.08  23 2.08  24 2.09   8 2.09  21 2.11
  54  1.000  0.250  0.650-   7 2.09  24 2.09  32 2.09  23 2.09  22 2.12
  55  0.750  0.250  0.549-  23 2.08  29 2.09  22 2.09   6 2.09  21 2.09  19 2.09
  56  0.000  0.000  0.549-  24 2.08   5 2.09  22 2.09  30 2.09  21 2.09  20 2.09
  57  0.750  0.500  0.451-  12 2.09  19 2.09  27 2.09  28 2.09  25 2.09  29 2.11
  58  0.000  0.750  0.451-  11 2.09  20 2.09  27 2.09  28 2.09  26 2.09  30 2.10
  59  0.750  0.750  0.353-  10 2.09  17 2.09  25 2.09  26 2.09  27 2.09
  60  0.000  0.500  0.353-   9 2.09  18 2.09  25 2.09  26 2.09  28 2.09
  61  0.750  0.500  0.650-  32 2.09  23 2.09  16 2.10  31 2.10  29 2.14
  62  0.001  0.750  0.649-  31 2.08  15 2.08  24 2.09  32 2.09  30 2.11
  63  0.750  0.750  0.550-  14 2.08  29 2.08  31 2.09  21 2.09  30 2.09  27 2.10
  64  1.000  0.500  0.549-  32 2.08  29 2.09  22 2.09  30 2.09  13 2.09  28 2.09


IMPORTANT INFORMATION: All symmetrisations will be switched off!
NOSYMM: (Re-)initialisation of all symmetry stuff for point group C_1.


----------------------------------------------------------------------------------------

                                     Primitive cell                                     

  volume of cell :    1482.1129

  direct lattice vectors                    reciprocal lattice vectors
     8.349111827  0.000000000  0.000000000     0.119773219  0.000000000  0.000000000
     0.000000000  8.349111827  0.000000000     0.000000000  0.119773219  0.000000000
     0.000000000  0.000000000 21.261833870     0.000000000  0.000000000  0.047032632

  length of vectors
     8.349111827  8.349111827 21.261833870     0.119773219  0.119773219  0.047032632

  position of ions in fractional coordinates (direct lattice)
     0.250000000  0.000000000  0.352744737
     0.500000000  0.250000000  0.352744737
     0.250000000  0.250000000  0.450914912
     0.500000000  0.000000000  0.450914912
     0.250062449  0.999936690  0.549666215
     0.499921587  0.249849112  0.549667335
     0.249756302  0.249756302  0.647318159
     0.500157064  0.000281170  0.647218062
     0.250000000  0.500000000  0.352744737
     0.500000000  0.750000000  0.352744737
     0.250000000  0.750000000  0.450914912
     0.500000000  0.500000000  0.450914912
     0.249849094  0.499921568  0.549667335
     0.500301750  0.749697801  0.549921991
     0.249715158  0.749840134  0.647217613
     0.497810754  0.497810749  0.647717265
     0.750000000  0.000000000  0.352744737
     0.000000000  0.250000000  0.352744737
     0.750000000  0.250000000  0.450914912
     0.000000000  0.000000000  0.450914912
     0.750077631  0.000149648  0.549667152
     0.999936686  0.250062443  0.549666214
     0.749840143  0.249715168  0.647217606
     0.000241465  0.000241468  0.647318174
     0.750000000  0.500000000  0.352744737
     0.000000000  0.750000000  0.352744737
     0.750000000  0.750000000  0.450914912
     0.000000000  0.500000000  0.450914912
     0.749697800  0.500301746  0.549921990
     0.000149665  0.750077649  0.549667150
     0.752188562  0.752188567  0.647717173
     0.000281175  0.500157070  0.647218071
     0.250000000  0.000000000  0.450914912
     0.500000000  0.250000000  0.450914912
     0.250000000  0.250000000  0.352744737
     0.500000000  0.000000000  0.352744737
     0.250115311  0.999882549  0.649592991
     0.499767654  0.249204261  0.649067907
     0.249868479  0.249868491  0.549340716
     0.500009833  0.999602795  0.549396571
     0.250000000  0.500000000  0.450914912
     0.500000000  0.750000000  0.450914912
     0.250000000  0.750000000  0.352744737
     0.500000000  0.500000000  0.352744737
     0.249204265  0.499767648  0.649067910
     0.500239080  0.749759557  0.650388467
     0.250395400  0.749989153  0.549396665
     0.500014827  0.500014828  0.549614152
     0.750000000  0.000000000  0.450914912
     0.000000000  0.250000000  0.450914912
     0.750000000  0.250000000  0.352744737
     0.000000000  0.000000000  0.352744737
     0.750230666  0.000793426  0.649067803
     0.999882553  0.250115312  0.649592991
     0.749989152  0.250395412  0.549396662
     0.000130749  0.000130739  0.549340477
     0.750000000  0.500000000  0.450914912
     0.000000000  0.750000000  0.450914912
     0.750000000  0.750000000  0.352744737
     0.000000000  0.500000000  0.352744737
     0.749759554  0.500239078  0.650388467
     0.000793422  0.750230677  0.649067806
     0.749984512  0.749984516  0.549613904
     0.999602809  0.500009832  0.549396572

  ion indices of the primitive-cell ions
   primitive index   ion index
                 1           1
                 2           2
                 3           3
                 4           4
                 5           5
                 6           6
                 7           7
                 8           8
                 9           9
                10          10
                11          11
                12          12
                13          13
                14          14
                15          15
                16          16
                17          17
                18          18
                19          19
                20          20
                21          21
                22          22
                23          23
                24          24
                25          25
                26          26
                27          27
                28          28
                29          29
                30          30
                31          31
                32          32
                33          33
                34          34
                35          35
                36          36
                37          37
                38          38
                39          39
                40          40
                41          41
                42          42
                43          43
                44          44
                45          45
                46          46
                47          47
                48          48
                49          49
                50          50
                51          51
                52          52
                53          53
                54          54
                55          55
                56          56
                57          57
                58          58
                59          59
                60          60
                61          61
                62          62
                63          63
                64          64

----------------------------------------------------------------------------------------



 KPOINTS: pymatgen v2020.8.13 with grid density = 

Automatic generation of k-mesh.
 Grid dimensions read from file:
 generate k-points for:    2    2    1

 Generating k-lattice:

  Cartesian coordinates                     Fractional coordinates (reciprocal lattice)
     0.059886610  0.000000000  0.000000000     0.500000000  0.000000000  0.000000000
     0.000000000  0.059886610  0.000000000     0.000000000  0.500000000  0.000000000
     0.000000000  0.000000000  0.047032632     0.000000000  0.000000000  1.000000000

  Length of vectors
     0.059886610  0.059886610  0.047032632

  Shift w.r.t. Gamma in fractional coordinates (k-lattice)
     0.000000000  0.000000000  0.000000000

 
 Subroutine IBZKPT returns following result:
 ===========================================
 
 Found      4 irreducible k-points:
 
 Following reciprocal coordinates:
            Coordinates               Weight
  0.000000  0.000000  0.000000      1.000000
  0.500000  0.000000  0.000000      1.000000
  0.000000  0.500000  0.000000      1.000000
  0.500000  0.500000  0.000000      1.000000
 
 Following cartesian coordinates:
            Coordinates               Weight
  0.000000  0.000000  0.000000      1.000000
  0.059887  0.000000  0.000000      1.000000
  0.000000  0.059887  0.000000      1.000000
  0.059887  0.059887  0.000000      1.000000
 


--------------------------------------------------------------------------------------------------------




 Dimension of arrays:
   k-points           NKPTS =      4   k-points in BZ     NKDIM =      4   number of bands    NBANDS=    320
   number of dos      NEDOS =    301   number of ions     NIONS =     64
   non local maximal  LDIM  =      5   non local SUM 2l+1 LMDIM =     13
   total plane-waves  NPLWV = 882000
   max r-space proj   IRMAX =      1   max aug-charges    IRDMAX=  11926
   dimension x,y,z NGX =    70 NGY =   70 NGZ =  180
   dimension x,y,z NGXF=   140 NGYF=  140 NGZF=  360
   support grid    NGXF=   140 NGYF=  140 NGZF=  360
   ions per type =              32  32
   NGX,Y,Z   is equivalent  to a cutoff of  13.94, 13.94, 14.07 a.u.
   NGXF,Y,Z  is equivalent  to a cutoff of  27.88, 27.88, 28.15 a.u.

 SYSTEM =  MgO-rocksalt                            
 POSCAR =  Mg  O                                   

--------------------------------------------------------------------------------------------------------


  energy-cutoff  :      600.00
  volume of cell :     1482.11
      direct lattice vectors                 reciprocal lattice vectors
     8.349111827  0.000000000  0.000000000     0.119773219  0.000000000  0.000000000
     0.000000000  8.349111827  0.000000000     0.000000000  0.119773219  0.000000000
     0.000000000  0.000000000 21.261833870     0.000000000  0.000000000  0.047032632

  length of vectors
     8.349111827  8.349111827 21.261833870     0.119773219  0.119773219  0.047032632



 k-points in units of 2pi/SCALE and weight: pymatgen v2020.8.13 with grid density = 
   0.00000000  0.00000000  0.00000000       0.250
   0.05988661  0.00000000  0.00000000       0.250
   0.00000000  0.05988661  0.00000000       0.250
   0.05988661  0.05988661  0.00000000       0.250

 k-points in reciprocal lattice and weights: pymatgen v2020.8.13 with grid density = 
   0.00000000  0.00000000  0.00000000       0.250
   0.50000000  0.00000000  0.00000000       0.250
   0.00000000  0.50000000  0.00000000       0.250
   0.50000000  0.50000000  0.00000000       0.250

 position of ions in fractional coordinates (direct lattice) 
   0.25000000  0.00000000  0.35274474
   0.50000000  0.25000000  0.35274474
   0.25000000  0.25000000  0.45091491
   0.50000000  0.00000000  0.45091491
   0.25006245  0.99993669  0.54966621
   0.49992159  0.24984911  0.54966734
   0.24975630  0.24975630  0.64731816
   0.50015706  0.00028117  0.64721806
   0.25000000  0.50000000  0.35274474
   0.50000000  0.75000000  0.35274474
   0.25000000  0.75000000  0.45091491
   0.50000000  0.50000000  0.45091491
   0.24984909  0.49992157  0.54966734
   0.50030175  0.74969780  0.54992199
   0.24971516  0.74984013  0.64721761
   0.49781075  0.49781075  0.64771727
   0.75000000  0.00000000  0.35274474
   0.00000000  0.25000000  0.35274474
   0.75000000  0.25000000  0.45091491
   0.00000000  0.00000000  0.45091491
   0.75007763  0.00014965  0.54966715
   0.99993669  0.25006244  0.54966621
   0.74984014  0.24971517  0.64721761
   0.00024147  0.00024147  0.64731817
   0.75000000  0.50000000  0.35274474
   0.00000000  0.75000000  0.35274474
   0.75000000  0.75000000  0.45091491
   0.00000000  0.50000000  0.45091491
   0.74969780  0.50030175  0.54992199
   0.00014966  0.75007765  0.54966715
   0.75218856  0.75218857  0.64771717
   0.00028117  0.50015707  0.64721807
   0.25000000  0.00000000  0.45091491
   0.50000000  0.25000000  0.45091491
   0.25000000  0.25000000  0.35274474
   0.50000000  0.00000000  0.35274474
   0.25011531  0.99988255  0.64959299
   0.49976765  0.24920426  0.64906791
   0.24986848  0.24986849  0.54934072
   0.50000983  0.99960279  0.54939657
   0.25000000  0.50000000  0.45091491
   0.50000000  0.75000000  0.45091491
   0.25000000  0.75000000  0.35274474
   0.50000000  0.50000000  0.35274474
   0.24920426  0.49976765  0.64906791
   0.50023908  0.74975956  0.65038847
   0.25039540  0.74998915  0.54939667
   0.50001483  0.50001483  0.54961415
   0.75000000  0.00000000  0.45091491
   0.00000000  0.25000000  0.45091491
   0.75000000  0.25000000  0.35274474
   0.00000000  0.00000000  0.35274474
   0.75023067  0.00079343  0.64906780
   0.99988255  0.25011531  0.64959299
   0.74998915  0.25039541  0.54939666
   0.00013075  0.00013074  0.54934048
   0.75000000  0.50000000  0.45091491
   0.00000000  0.75000000  0.45091491
   0.75000000  0.75000000  0.35274474
   0.00000000  0.50000000  0.35274474
   0.74975955  0.50023908  0.65038847
   0.00079342  0.75023068  0.64906781
   0.74998451  0.74998452  0.54961390
   0.99960281  0.50000983  0.54939657

 position of ions in cartesian coordinates  (Angst):
   2.08727796  0.00000000  7.50000000
   4.17455591  2.08727796  7.50000000
   2.08727796  2.08727796  9.58727796
   4.17455591  0.00000000  9.58727796
   2.08779935  8.34858324 11.68691174
   4.17390124  2.08601817 11.68693557
   2.08524329  2.08524330 13.76317116
   4.17586726  0.00234752 13.76104292
   2.08727796  4.17455591  7.50000000
   4.17455591  6.26183387  7.50000000
   2.08727796  6.26183387  9.58727796
   4.17455591  4.17455591  9.58727796
   2.08601802  4.17390107 11.68693556
   4.17707526  6.25931077 11.69235001
   2.08489978  6.26049913 13.76103335
   4.15627765  4.15627761 13.77165689
   6.26183387  0.00000000  7.50000000
   0.00000000  2.08727796  7.50000000
   6.26183387  2.08727796  9.58727796
   0.00000000  0.00000000  9.58727796
   6.26248202  0.00124943 11.68693166
   8.34858321  2.08779930 11.68691173
   6.26049920  2.08489987 13.76103321
   0.00201602  0.00201604 13.76317148
   6.26183387  4.17455591  7.50000000
   0.00000000  6.26183387  7.50000000
   6.26183387  6.26183387  9.58727796
   0.00000000  4.17455591  9.58727796
   6.25931077  4.17707522 11.69234999
   0.00124957  6.26248217 11.68693164
   6.28010642  6.28010646 13.77165492
   0.00234756  4.17586731 13.76104310
   2.08727796  0.00000000  9.58727796
   4.17455591  2.08727796  9.58727796
   2.08727796  2.08727796  7.50000000
   4.17455591  0.00000000  7.50000000
   2.08824070  8.34813121 13.81153825
   4.17261603  2.08063424 13.80037401
   2.08617987  2.08617998 11.67999104
   4.17463801  8.34579552 11.68117862
   2.08727796  4.17455591  9.58727796
   4.17455591  6.26183387  9.58727796
   2.08727796  6.26183387  7.50000000
   4.17455591  4.17455591  7.50000000
   2.08063427  4.17261598 13.80037406
   4.17655202  6.25982638 13.82845154
   2.09057920  6.26174331 11.68118062
   4.17467971  4.17467971 11.68580479
   6.26183387  0.00000000  9.58727796
   0.00000000  2.08727796  9.58727796
   6.26183387  2.08727796  7.50000000
   0.00000000  0.00000000  7.50000000
   6.26375973  0.00662441 13.80037180
   8.34813125  2.08824071 13.81153825
   6.26174330  2.09057929 11.68118056
   0.00109164  0.00109156 11.67998595
   6.26183387  4.17455591  9.58727796
   0.00000000  6.26183387  9.58727796
   6.26183387  6.26183387  7.50000000
   0.00000000  4.17455591  7.50000000
   6.25982636  4.17655200 13.82845153
   0.00662437  6.26375981 13.80037186
   6.26170456  6.26170460 11.68579952
   8.34579563  4.17463800 11.68117865



--------------------------------------------------------------------------------------------------------

--------------------------------------- Iteration      FINAL  ---------------------------------------


--------------------OUTCAR has been truncated-------------------------


--------------------OUTCAR has been truncated-------------------------


--------------------OUTCAR has been truncated-------------------------


--------------------OUTCAR has been truncated-------------------------


--------------------OUTCAR has been truncated-------------------------


--------------------OUTCAR has been truncated-------------------------


--------------------OUTCAR has been truncated-------------------------


--------------------OUTCAR has been truncated-------------------------


--------------------OUTCAR has been truncated-------------------------


--------------------OUTCAR has been truncated-------------------------


  DFT-D2 method for vdW energy calculation
  -------------------------------------------------------------------

  Parameters of vdW forcefield:
         C6(Jnm^6/mol)     R0(A)
   -----------------------------
   Mg       0.630          1.243
   O        0.700          1.342

  vdW correction parametrized for the method pbe       

  IVDW =   1
  VDW_RADIUS =    50.000 A
  VDW_S6 =     0.750
  VDW_SR =     1.000
  VDW_D =    20.000
  LVDW_EWALD = F

  Number of pair interactions contributing to vdW energy:  742636
  Edisp (eV):   -3.79077
    FORVDW:  cpu time      0.1068: real time      0.1069

  FORCE on cell =-STRESS in cart. coord.  units (eV):
  Direction    XX          YY          ZZ          XY          YZ          ZX
  --------------------------------------------------------------------------------------
  Alpha Z   897.52708   897.52708   897.52708
  Ewald  166106.89292166106.89292************    -0.23374    -0.00341    -0.00341
  Hartree176105.10666176105.10665************    -0.15944    -0.00204    -0.00204
  E(xc)   -2460.93649 -2460.93649 -2466.29955    -0.00035    -0.00001    -0.00001
  Local  ************************352790.73735     0.39829     0.00552     0.00552
  n-local -2809.94214 -2809.94213 -2831.05123    -0.00279    -0.00012    -0.00012
  augment  1047.33816  1047.33816  1037.85324    -0.00236    -0.00003    -0.00003
  Kinetic  7323.70821  7323.70821  7362.31590     0.00181     0.00064     0.00064
  Fock        0.00000     0.00000     0.00000     0.00000     0.00000     0.00000
  vdW        -5.52721    -5.52721    -4.48293     0.00025    -0.00000    -0.00000
  -------------------------------------------------------------------------------------
  Total      -4.07928    -4.07927    15.81691     0.00168     0.00055     0.00055
  in kB      -4.40973    -4.40973    17.09822     0.00181     0.00059     0.00059
  external pressure =        2.76 kB  Pullay stress =        0.00 kB


 VOLUME and BASIS-vectors are now :
 -----------------------------------------------------------------------------
  energy-cutoff  :      600.00
  volume of cell :     1482.11
      direct lattice vectors                 reciprocal lattice vectors
     8.349111827  0.000000000  0.000000000     0.119773219  0.000000000  0.000000000
     0.000000000  8.349111827  0.000000000     0.000000000  0.119773219  0.000000000
     0.000000000  0.000000000 21.261833870     0.000000000  0.000000000  0.047032632

  length of vectors
     8.349111827  8.349111827 21.261833870     0.119773219  0.119773219  0.047032632


 FORCES acting on ions:
    Electron-Ion                     Ewald-Force                    Non-Local-Force
 -----------------------------------------------------------------------------------------------
   -.796E-01 0.794E-01 0.212E+04   0.809E-01 -.808E-01 -.212E+04   -.101E-02 0.101E-02 -.710E+01
   -.795E-01 -.948E-01 0.212E+04   0.806E-01 0.960E-01 -.212E+04   -.726E-03 -.873E-03 -.709E+01
   -.264E+00 -.264E+00 0.703E+03   0.248E+00 0.247E+00 -.704E+03   0.123E-01 0.123E-01 0.472E+00
   -.247E+00 0.494E+00 0.703E+03   0.237E+00 -.548E+00 -.703E+03   0.809E-02 0.373E-01 0.483E+00
   -.645E+00 0.644E+00 -.709E+03   0.655E+00 -.653E+00 0.709E+03   -.471E-02 0.473E-02 -.205E+00
   -.697E+00 -.880E+00 -.706E+03   0.707E+00 0.921E+00 0.706E+03   -.564E-02 -.329E-01 -.315E+00
   0.343E+00 0.343E+00 -.211E+04   -.516E+00 -.516E+00 0.210E+04   0.132E+00 0.132E+00 0.613E+01
   0.736E-01 0.381E+01 -.211E+04   -.240E+00 -.392E+01 0.210E+04   0.126E+00 0.131E-01 0.603E+01
   -.948E-01 -.795E-01 0.212E+04   0.960E-01 0.806E-01 -.212E+04   -.873E-03 -.728E-03 -.709E+01
   -.909E-01 0.911E-01 0.212E+04   0.934E-01 -.937E-01 -.212E+04   -.193E-02 0.193E-02 -.711E+01
   -.496E+00 0.248E+00 0.703E+03   0.549E+00 -.237E+00 -.703E+03   -.372E-01 -.806E-02 0.483E+00
   -.492E+00 -.492E+00 0.701E+03   0.522E+00 0.522E+00 -.702E+03   -.224E-01 -.224E-01 0.543E+00
   -.880E+00 -.697E+00 -.706E+03   0.921E+00 0.707E+00 0.706E+03   -.329E-01 -.564E-02 -.315E+00
   -.122E+01 0.122E+01 -.715E+03   0.126E+01 -.126E+01 0.715E+03   -.346E-01 0.345E-01 -.220E+00
   -.382E+01 -.736E-01 -.211E+04   0.393E+01 0.240E+00 0.210E+04   -.127E-01 -.126E+00 0.603E+01
   -.624E+01 -.624E+01 -.211E+04   0.642E+01 0.642E+01 0.210E+04   0.621E-01 0.621E-01 0.608E+01
   0.797E-01 0.946E-01 0.212E+04   -.807E-01 -.958E-01 -.212E+04   0.728E-03 0.875E-03 -.709E+01
   0.794E-01 -.796E-01 0.212E+04   -.808E-01 0.809E-01 -.212E+04   0.101E-02 -.101E-02 -.710E+01
   0.248E+00 -.496E+00 0.703E+03   -.237E+00 0.549E+00 -.703E+03   -.806E-02 -.372E-01 0.483E+00
   0.263E+00 0.263E+00 0.703E+03   -.247E+00 -.247E+00 -.704E+03   -.123E-01 -.123E-01 0.472E+00
   0.699E+00 0.878E+00 -.706E+03   -.709E+00 -.919E+00 0.706E+03   0.563E-02 0.329E-01 -.315E+00
   0.644E+00 -.645E+00 -.709E+03   -.653E+00 0.654E+00 0.709E+03   0.472E-02 -.471E-02 -.205E+00
   -.736E-01 -.382E+01 -.211E+04   0.240E+00 0.393E+01 0.210E+04   -.126E+00 -.127E-01 0.603E+01
   -.345E+00 -.345E+00 -.211E+04   0.518E+00 0.518E+00 0.210E+04   -.132E+00 -.132E+00 0.613E+01
   0.911E-01 -.909E-01 0.212E+04   -.937E-01 0.934E-01 -.212E+04   0.193E-02 -.193E-02 -.711E+01
   0.946E-01 0.797E-01 0.212E+04   -.958E-01 -.807E-01 -.212E+04   0.872E-03 0.726E-03 -.709E+01
   0.493E+00 0.493E+00 0.701E+03   -.523E+00 -.523E+00 -.702E+03   0.224E-01 0.224E-01 0.543E+00
   0.494E+00 -.247E+00 0.703E+03   -.548E+00 0.237E+00 -.703E+03   0.373E-01 0.809E-02 0.483E+00
   0.122E+01 -.122E+01 -.715E+03   -.126E+01 0.126E+01 0.715E+03   0.345E-01 -.346E-01 -.220E+00
   0.878E+00 0.699E+00 -.706E+03   -.919E+00 -.709E+00 0.706E+03   0.329E-01 0.563E-02 -.315E+00
   0.624E+01 0.624E+01 -.211E+04   -.642E+01 -.642E+01 0.210E+04   -.624E-01 -.624E-01 0.608E+01
   0.381E+01 0.736E-01 -.211E+04   -.392E+01 -.240E+00 0.210E+04   0.131E-01 0.126E+00 0.603E+01
   -.242E+00 0.241E+00 0.527E+03   0.241E+00 -.240E+00 -.527E+03   0.198E-02 -.203E-02 -.917E-01
   -.251E+00 -.356E+00 0.527E+03   0.257E+00 0.365E+00 -.527E+03   -.818E-02 -.112E-01 -.631E-01
   -.527E-01 -.527E-01 0.160E+04   0.517E-01 0.517E-01 -.160E+04   0.139E-02 0.139E-02 0.347E+01
   -.526E-01 0.774E-01 0.160E+04   0.513E-01 -.815E-01 -.160E+04   0.170E-02 0.576E-02 0.346E+01
   -.771E+00 0.771E+00 -.160E+04   0.875E+00 -.875E+00 0.161E+04   -.128E+00 0.129E+00 -.513E+01
   -.978E+00 -.797E-01 -.160E+04   0.108E+01 -.696E-01 0.161E+04   -.124E+00 0.180E+00 -.489E+01
   -.779E-01 -.778E-01 -.525E+03   0.759E-01 0.759E-01 0.524E+03   0.851E-02 0.851E-02 0.287E+00
   -.998E-01 0.135E+01 -.525E+03   0.953E-01 -.140E+01 0.525E+03   0.110E-01 0.805E-01 0.329E+00
   -.356E+00 -.251E+00 0.527E+03   0.365E+00 0.257E+00 -.527E+03   -.112E-01 -.818E-02 -.631E-01
   -.302E+00 0.303E+00 0.525E+03   0.282E+00 -.283E+00 -.525E+03   0.274E-01 -.275E-01 -.153E+00
   -.775E-01 0.527E-01 0.160E+04   0.816E-01 -.515E-01 -.160E+04   -.576E-02 -.170E-02 0.346E+01
   -.745E-01 -.745E-01 0.159E+04   0.798E-01 0.798E-01 -.160E+04   -.742E-02 -.742E-02 0.346E+01
   -.797E-01 -.978E+00 -.160E+04   -.696E-01 0.108E+01 0.161E+04   0.180E+00 -.124E+00 -.489E+01
   -.272E+01 0.272E+01 -.161E+04   0.303E+01 -.303E+01 0.161E+04   -.327E+00 0.328E+00 -.533E+01
   -.135E+01 0.101E+00 -.525E+03   0.140E+01 -.961E-01 0.525E+03   -.805E-01 -.111E-01 0.329E+00
   -.150E+01 -.150E+01 -.528E+03   0.153E+01 0.153E+01 0.528E+03   -.532E-01 -.532E-01 0.212E+00
   0.252E+00 0.355E+00 0.527E+03   -.258E+00 -.364E+00 -.527E+03   0.811E-02 0.111E-01 -.630E-01
   0.241E+00 -.242E+00 0.527E+03   -.240E+00 0.241E+00 -.527E+03   -.203E-02 0.198E-02 -.917E-01
   0.527E-01 -.775E-01 0.160E+04   -.515E-01 0.816E-01 -.160E+04   -.170E-02 -.576E-02 0.346E+01
   0.526E-01 0.526E-01 0.160E+04   -.516E-01 -.516E-01 -.160E+04   -.139E-02 -.139E-02 0.347E+01
   0.981E+00 0.779E-01 -.160E+04   -.108E+01 0.714E-01 0.161E+04   0.125E+00 -.180E+00 -.489E+01
   0.771E+00 -.771E+00 -.160E+04   -.875E+00 0.875E+00 0.161E+04   0.129E+00 -.128E+00 -.513E+01
   0.101E+00 -.135E+01 -.525E+03   -.961E-01 0.140E+01 0.525E+03   -.111E-01 -.805E-01 0.329E+00
   0.766E-01 0.766E-01 -.525E+03   -.746E-01 -.746E-01 0.524E+03   -.856E-02 -.856E-02 0.287E+00
   0.303E+00 -.302E+00 0.525E+03   -.283E+00 0.282E+00 -.525E+03   -.275E-01 0.274E-01 -.153E+00
   0.355E+00 0.252E+00 0.527E+03   -.364E+00 -.258E+00 -.527E+03   0.111E-01 0.811E-02 -.630E-01
   0.747E-01 0.747E-01 0.159E+04   -.799E-01 -.799E-01 -.160E+04   0.741E-02 0.741E-02 0.346E+01
   0.774E-01 -.525E-01 0.160E+04   -.815E-01 0.513E-01 -.160E+04   0.575E-02 0.169E-02 0.346E+01
   0.272E+01 -.272E+01 -.161E+04   -.303E+01 0.303E+01 0.161E+04   0.328E+00 -.327E+00 -.533E+01
   0.779E-01 0.981E+00 -.160E+04   0.714E-01 -.108E+01 0.161E+04   -.180E+00 0.125E+00 -.489E+01
   0.150E+01 0.150E+01 -.528E+03   -.153E+01 -.153E+01 0.528E+03   0.532E-01 0.532E-01 0.212E+00
   0.135E+01 -.998E-01 -.525E+03   -.140E+01 0.954E-01 0.525E+03   0.805E-01 0.110E-01 0.329E+00
 -----------------------------------------------------------------------------------------------
   -.383E-03 -.397E-03 0.176E+02   0.499E-12 0.666E-14 0.909E-12   0.378E-03 0.364E-03 -.176E+02


 POSITION                                       TOTAL-FORCE (eV/Angst)
 -----------------------------------------------------------------------------------
      2.08728      0.00000      7.50000         0.000371     -0.000373      0.190850
      4.17456      2.08728      7.50000         0.000311      0.000311      0.188093
      2.08728      2.08728      9.58728        -0.004303     -0.004303      0.032450
      4.17456      0.00000      9.58728        -0.002364     -0.015692      0.040779
      2.08780      8.34858     11.68691         0.004341     -0.004349      0.033029
      4.17390      2.08602     11.68694         0.004131      0.007758     -0.002755
      2.08524      2.08524     13.76317        -0.040397     -0.040398      0.153866
      4.17587      0.00235     13.76104        -0.039149     -0.097804      0.205001
      2.08728      4.17456      7.50000         0.000312      0.000310      0.188092
      4.17456      6.26183      7.50000         0.000636     -0.000637      0.193560
      2.08728      6.26183      9.58728         0.015680      0.002348      0.040790
      4.17456      4.17456      9.58728         0.006866      0.006867      0.051925
      2.08602      4.17390     11.68694         0.007759      0.004134     -0.002753
      4.17708      6.25931     11.69235         0.004203     -0.004255      0.076474
      2.08490      6.26050     13.76103         0.097924      0.039196      0.205079
      4.15628      4.15628     13.77166         0.232032      0.232036      0.158576
      6.26183      0.00000      7.50000        -0.000314     -0.000319      0.188093
      0.00000      2.08728      7.50000        -0.000370      0.000370      0.190852
      6.26183      2.08728      9.58728         0.002347      0.015680      0.040790
      0.00000      0.00000      9.58728         0.004295      0.004294      0.032434
      6.26248      0.00125     11.68693        -0.004152     -0.007742     -0.002751
      8.34858      2.08780     11.68691        -0.004349      0.004341      0.033027
      6.26050      2.08490     13.76103         0.039195      0.097923      0.205072
      0.00202      0.00202     13.76317         0.040460      0.040455      0.153839
      6.26183      4.17456      7.50000        -0.000636      0.000638      0.193556
      0.00000      6.26183      7.50000        -0.000319     -0.000315      0.188091
      6.26183      6.26183      9.58728        -0.006880     -0.006881      0.051893
      0.00000      4.17456      9.58728        -0.015692     -0.002363      0.040781
      6.25931      4.17708     11.69235        -0.004254      0.004205      0.076471
      0.00125      6.26248     11.68693        -0.007743     -0.004154     -0.002751
      6.28011      6.28011     13.77165        -0.232103     -0.232103      0.158551
      0.00235      4.17587     13.76104        -0.097801     -0.039147      0.205000
      2.08728      0.00000      9.58728         0.000716     -0.000721      0.064624
      4.17456      2.08728      9.58728        -0.001871     -0.002210      0.074754
      2.08728      2.08728      7.50000         0.000403      0.000401     -0.669901
      4.17456      0.00000      7.50000         0.000493      0.001649     -0.670582
      2.08824      8.34813     13.81154        -0.024161      0.024159      0.142722
      4.17262      2.08063     13.80037        -0.022987      0.030800      0.233069
      2.08618      2.08618     11.67999         0.006557      0.006557      0.005869
      4.17464      8.34580     11.68118         0.006527      0.027630     -0.005940
      2.08728      4.17456      9.58728        -0.002207     -0.001867      0.074751
      4.17456      6.26183      9.58728         0.007391     -0.007411      0.075754
      2.08728      6.26183      7.50000        -0.001647     -0.000493     -0.670583
      4.17456      4.17456      7.50000        -0.002165     -0.002163     -0.671492
      2.08063      4.17262     13.80037         0.030801     -0.022987      0.233071
      4.17655      6.25983     13.82845        -0.021319      0.021291      0.058924
      2.09058      6.26174     11.68118        -0.027562     -0.006527     -0.005984
      4.17468      4.17468     11.68580        -0.023262     -0.023263     -0.022093
      6.26183      0.00000      9.58728         0.001853      0.002194      0.074735
      0.00000      2.08728      9.58728        -0.000718      0.000703      0.064622
      6.26183      2.08728      7.50000        -0.000494     -0.001647     -0.670586
      0.00000      0.00000      7.50000        -0.000402     -0.000402     -0.669901
      6.26376      0.00662     13.80037         0.022983     -0.030776      0.233071
      8.34813      2.08824     13.81154         0.024158     -0.024161      0.142723
      6.26174      2.09058     11.68118        -0.006530     -0.027566     -0.005979
      0.00109      0.00109     11.67999        -0.006573     -0.006570      0.005925
      6.26183      4.17456      9.58728        -0.007416      0.007391      0.075756
      0.00000      6.26183      9.58728         0.002193      0.001852      0.074733
      6.26183      6.26183      7.50000         0.002162      0.002165     -0.671490
      0.00000      4.17456      7.50000         0.001647      0.000492     -0.670583
      6.25983      4.17655     13.82845         0.021291     -0.021320      0.058922
      0.00662      6.26376     13.80037        -0.030780      0.022982      0.233072
      6.26170      6.26170     11.68580         0.023258      0.023262     -0.022052
      8.34580      4.17464     11.68118         0.027624      0.006526     -0.005934
 -----------------------------------------------------------------------------------
    total drift:                               -0.000005     -0.000033      0.006416


--------------------------------------------------------------------------------------------------------



  FREE ENERGIE OF THE ION-ELECTRON SYSTEM (eV)
  ---------------------------------------------------
  free  energy   TOTEN  =      -375.85721267 eV

  energy  without entropy=     -375.85721267  energy(sigma->0) =     -375.85721267



--------------------------------------------------------------------------------------------------------


    POTLOK:  cpu time      0.1777: real time      0.1779


--------------------------------------------------------------------------------------------------------


     LOOP+:  cpu time     64.7365: real time     64.9149
    4ORBIT:  cpu time      0.0000: real time      0.0000

 total amount of memory used by VASP MPI-rank0    59967. kBytes
=======================================================================

   base      :      30000. kBytes
   nonl-proj :      11522. kBytes
   fftplans  :       4921. kBytes
   grid      :       7379. kBytes
   one-center:         64. kBytes
   wavefun   :       6081. kBytes

  
  
 General timing and accounting informations for this job:
 ========================================================
  
                  Total CPU time used (sec):       97.697
                            User time (sec):       96.465
                          System time (sec):        1.232
                         Elapsed time (sec):      107.066
  
                   Maximum memory used (kb):      156736.
                   Average memory used (kb):          N/A
  
                          Minor page faults:        34232
                          Major page faults:            0
                 Voluntary context switches:        12442
