 vasp.6.3.0 20Jan22 (build Dec 25 2023 18:06:01) complex                         
 executed on        HPECrayEX_GCC date 2024.08.19  02:01:17
 running  128 mpi-ranks, with    1 threads/rank
 distrk:  each k-point on  128 cores,    1 groups
 distr:  one band on NCORE=   8 cores,   16 groups


--------------------------------------------------------------------------------------------------------


 INCAR:
   SYSTEM = MgO-rocksalt
   ISMEAR = 0
   SIGMA = 0.05
   EDIFF = 1E-6
   ALGO = ALL
   ISTART = 0
   IBRION = -1
   NSW = 0
   ISYM = 0
   DIPOL = 0.5 0.5 0.5
   IDIPOL = 3
   LDIPOL = .TRUE.
   LHFCALC = .TRUE.
   GGA = B5
   AEXX = 0.2
   AGGAX = 0.72
   AGGAC = 0.81
   ALDAC = 0.19
   IVDW = 1
   VDW_S6 = 1.05
   VDW_C6 = 1.75 0.70
   VDW_R0 = 1.452 1.342
   ENCUT = 600
   PREC = Accurate
   LASPH = .TRUE.
   LREAL = .FALSE.
   ISPIN = 1
   NELM = 200
   NELMIN = 8
   NCORE = 8
   KPAR = 1
   LWAVE = .FALSE.
   LCHARG = .FALSE.

 POTCAR:    PAW_PBE C 08Apr2002                   
 POTCAR:    PAW_PBE O 08Apr2002                   
 POTCAR:    PAW_PBE C 08Apr2002                   
   SHA256 =  253f7b50bb8d59471dbedb8285d89021f4a42ed1a2c5d38a03a736e69125dd95 C/POTCAR              
   COPYR  = (c) Copyright 08Apr2002 Georg Kresse                                                    
   COPYR  = This file is part of the software VASP. Any use, copying, and all other rights are regul
   COPYR  = If you do not have a valid VASP license, you may not use, copy or distribute this file. 
   VRHFIN =C: s2p2                                                                                  
   LEXCH  = PE                                                                                      
   EATOM  =   147.1560 eV,   10.8157 Ry                                                             
                                                                                                    
   TITEL  = PAW_PBE C 08Apr2002                                                                     
   LULTRA =        F    use ultrasoft PP ?                                                          
   IUNSCR =        1    unscreen: 0-lin 1-nonlin 2-no                                               
   RPACOR =    1.200    partial core radius                                                         
   POMASS =   12.011; ZVAL   =    4.000    mass and valenz                                          
   RCORE  =    1.500    outmost cutoff radius                                                       
   RWIGS  =    1.630; RWIGS  =    0.863    wigner-seitz radius (au A)                               
   ENMAX  =  400.000; ENMIN  =  300.000 eV                                                          
   ICORE  =        2    local potential                                                             
   LCOR   =        T    correct aug charges                                                         
   LPAW   =        T    paw PP                                                                      
   EAUG   =  644.873                                                                                
   DEXC   =    0.000                                                                                
   RMAX   =    1.529    core radius for proj-oper                                                   
   RAUG   =    1.300    factor for augmentation sphere                                              
   RDEP   =    1.501    radius for radial grids                                                     
   RDEPT  =    1.300    core radius for aug-charge                                                  
                                                                                                    
   Atomic configuration                                                                             
    4 entries                                                                                       
     n  l   j            E        occ.                                                              
     1  0  0.50      -273.3789   2.0000                                                             
     2  0  0.50       -13.7508   2.0000                                                             
     2  1  0.50        -5.2854   2.0000                                                             
     3  2  1.50        -5.4423   0.0000                                                             
   Description                                                                                      
     l       E           TYP  RCUT    TYP  RCUT                                                     
     0    -13.7508458     23  1.200                                                                 
     0     -8.2022199     23  1.200                                                                 
     1     -5.2854383     23  1.500                                                                 
     1     34.0145650     23  1.500                                                                 
     2     -5.4423304      7  1.500                                                                 
  local pseudopotential read in
  partial core-charges read in
  partial kinetic energy density read in
  atomic valenz-charges read in
  non local Contribution for L=           0  read in
    real space projection operators read in
  non local Contribution for L=           0  read in
    real space projection operators read in
  non local Contribution for L=           1  read in
    real space projection operators read in
  non local Contribution for L=           1  read in
    real space projection operators read in
    PAW grid and wavefunctions read in

   number of l-projection  operators is LMAX  =           4
   number of lm-projection operators is LMMAX =           8

 POTCAR:    PAW_PBE O 08Apr2002                   
   SHA256 =  818f92134a0a090dccd8ba1447fa70422a3b330e708bb4f08108d8ae51209ddf O/POTCAR              
   COPYR  = (c) Copyright 08Apr2002 Georg Kresse                                                    
   COPYR  = This file is part of the software VASP. Any use, copying, and all other rights are regul
   COPYR  = If you do not have a valid VASP license, you may not use, copy or distribute this file. 
   VRHFIN =O: s2p4                                                                                  
   LEXCH  = PE                                                                                      
   EATOM  =   432.3788 eV,   31.7789 Ry                                                             
                                                                                                    
   TITEL  = PAW_PBE O 08Apr2002                                                                     
   LULTRA =        F    use ultrasoft PP ?                                                          
   IUNSCR =        1    unscreen: 0-lin 1-nonlin 2-no                                               
   RPACOR =    1.200    partial core radius                                                         
   POMASS =   16.000; ZVAL   =    6.000    mass and valenz                                          
   RCORE  =    1.520    outmost cutoff radius                                                       
   RWIGS  =    1.550; RWIGS  =    0.820    wigner-seitz radius (au A)                               
   ENMAX  =  400.000; ENMIN  =  300.000 eV                                                          
   ICORE  =        2    local potential                                                             
   LCOR   =        T    correct aug charges                                                         
   LPAW   =        T    paw PP                                                                      
   EAUG   =  605.392                                                                                
   DEXC   =    0.000                                                                                
   RMAX   =    1.553    core radius for proj-oper                                                   
   RAUG   =    1.300    factor for augmentation sphere                                              
   RDEP   =    1.550    radius for radial grids                                                     
   RDEPT  =    1.329    core radius for aug-charge                                                  
                                                                                                    
   Atomic configuration                                                                             
    4 entries                                                                                       
     n  l   j            E        occ.                                                              
     1  0  0.50      -514.6923   2.0000                                                             
     2  0  0.50       -23.9615   2.0000                                                             
     2  1  0.50        -9.0305   4.0000                                                             
     3  2  1.50        -9.5241   0.0000                                                             
   Description                                                                                      
     l       E           TYP  RCUT    TYP  RCUT                                                     
     0    -23.9615318     23  1.200                                                                 
     0     -9.5240782     23  1.200                                                                 
     1     -9.0304911     23  1.520                                                                 
     1      8.1634956     23  1.520                                                                 
     2     -9.5240782      7  1.500                                                                 
  local pseudopotential read in
  partial core-charges read in
  partial kinetic energy density read in
  kinetic energy density of atom read in
  atomic valenz-charges read in
  non local Contribution for L=           0  read in
    real space projection operators read in
  non local Contribution for L=           0  read in
    real space projection operators read in
  non local Contribution for L=           1  read in
    real space projection operators read in
  non local Contribution for L=           1  read in
    real space projection operators read in
    PAW grid and wavefunctions read in

   number of l-projection  operators is LMAX  =           4
   number of lm-projection operators is LMMAX =           8

 -----------------------------------------------------------------------------
|                                                                             |
|               ----> ADVICE to this user running VASP <----                  |
|                                                                             |
|     You enforced a specific xc type in the INCAR file but a different       |
|     type was found in the POTCAR file.                                      |
|     I HOPE YOU KNOW WHAT YOU ARE DOING!                                     |
|                                                                             |
 -----------------------------------------------------------------------------

  PAW_PBE C 08Apr2002                   :
 energy of atom  1       EATOM= -147.1560
 kinetic energy error for atom=    0.0057 (will be added to EATOM!!)
  PAW_PBE O 08Apr2002                   :
 energy of atom  2       EATOM= -432.3788
 kinetic energy error for atom=    0.0168 (will be added to EATOM!!)


 POSCAR:  C  O
  positions in direct lattice
  No initial velocities read in
 exchange correlation table for  LEXCH =       12
   RHO(1)=    0.500       N(1)  =     2000
   RHO(2)=  100.500       N(2)  =     4000



--------------------------------------------------------------------------------------------------------


 ion  position               nearest neighbor table
   1  0.500  0.500  0.500-   2 1.17   3 1.17
   2  0.500  0.500  0.449-   1 1.17
   3  0.500  0.500  0.551-   1 1.17


IMPORTANT INFORMATION: All symmetrisations will be switched off!
NOSYMM: (Re-)initialisation of all symmetry stuff for point group C_1.


----------------------------------------------------------------------------------------

                                     Primitive cell                                     

  volume of cell :    9200.0000

  direct lattice vectors                    reciprocal lattice vectors
    20.000000000  0.000000000  0.000000000     0.050000000  0.000000000  0.000000000
     0.000000000 20.000000000  0.000000000     0.000000000  0.050000000  0.000000000
     0.000000000  0.000000000 23.000000000     0.000000000  0.000000000  0.043478261

  length of vectors
    20.000000000 20.000000000 23.000000000     0.050000000  0.050000000  0.043478261

  position of ions in fractional coordinates (direct lattice)
     0.500000000  0.500000001  0.499999836
     0.500000014  0.499999985  0.448916119
     0.499999986  0.500000013  0.551084045

  ion indices of the primitive-cell ions
   primitive index   ion index
                 1           1
                 2           2
                 3           3

----------------------------------------------------------------------------------------



 KPOINTS: pymatgen v2020.8.13 with grid density = 

Automatic generation of k-mesh.
 Grid dimensions read from file:
 generate k-points for:    2    2    1

 Generating k-lattice:

  Cartesian coordinates                     Fractional coordinates (reciprocal lattice)
     0.025000000  0.000000000  0.000000000     0.500000000  0.000000000  0.000000000
     0.000000000  0.025000000  0.000000000     0.000000000  0.500000000  0.000000000
     0.000000000  0.000000000  0.043478261     0.000000000  0.000000000  1.000000000

  Length of vectors
     0.025000000  0.025000000  0.043478261

  Shift w.r.t. Gamma in fractional coordinates (k-lattice)
     0.000000000  0.000000000  0.000000000

 
 Subroutine IBZKPT returns following result:
 ===========================================
 
 Found      4 irreducible k-points:
 
 Following reciprocal coordinates:
            Coordinates               Weight
  0.000000  0.000000  0.000000      1.000000
  0.500000  0.000000  0.000000      1.000000
  0.000000  0.500000  0.000000      1.000000
  0.500000  0.500000  0.000000      1.000000
 
 Following cartesian coordinates:
            Coordinates               Weight
  0.000000  0.000000  0.000000      1.000000
  0.025000  0.000000  0.000000      1.000000
  0.000000  0.025000  0.000000      1.000000
  0.025000  0.025000  0.000000      1.000000
 
 
 Subroutine IBZKPT_HF returns following result:
 ==============================================
 
 Found      4 k-points in 1st BZ
 the following      4 k-points will be used (e.g. in the exchange kernel)
 Following reciprocal coordinates:   # in IRBZ
  0.000000  0.000000  0.000000    0.25000000   1 t-inv F
  0.500000  0.000000  0.000000    0.25000000   2 t-inv F
  0.000000  0.500000  0.000000    0.25000000   3 t-inv F
  0.500000  0.500000  0.000000    0.25000000   4 t-inv F


--------------------------------------------------------------------------------------------------------




 Dimension of arrays:
   k-points           NKPTS =      4   k-points in BZ     NKDIM =      4   number of bands    NBANDS=     16
   number of dos      NEDOS =    301   number of ions     NIONS =      3
   non local maximal  LDIM  =      4   non local SUM 2l+1 LMDIM =      8
   total plane-waves  NPLWV = ******
   max r-space proj   IRMAX =      1   max aug-charges    IRDMAX=   7130
   dimension x,y,z NGX =   160 NGY =  160 NGZ =  192
   dimension x,y,z NGXF=   320 NGYF=  320 NGZF=  384
   support grid    NGXF=   320 NGYF=  320 NGZF=  384
   ions per type =               1   2
   NGX,Y,Z   is equivalent  to a cutoff of  13.30, 13.30, 13.88 a.u.
   NGXF,Y,Z  is equivalent  to a cutoff of  26.60, 26.60, 27.76 a.u.

 SYSTEM =  MgO-rocksalt                            
 POSCAR =   C  O                                   

--------------------------------------------------------------------------------------------------------


  energy-cutoff  :      600.00
  volume of cell :     9200.00
      direct lattice vectors                 reciprocal lattice vectors
    20.000000000  0.000000000  0.000000000     0.050000000  0.000000000  0.000000000
     0.000000000 20.000000000  0.000000000     0.000000000  0.050000000  0.000000000
     0.000000000  0.000000000 23.000000000     0.000000000  0.000000000  0.043478261

  length of vectors
    20.000000000 20.000000000 23.000000000     0.050000000  0.050000000  0.043478261



 k-points in units of 2pi/SCALE and weight: pymatgen v2020.8.13 with grid density = 
   0.00000000  0.00000000  0.00000000       0.250
   0.02500000  0.00000000  0.00000000       0.250
   0.00000000  0.02500000  0.00000000       0.250
   0.02500000  0.02500000  0.00000000       0.250

 k-points in reciprocal lattice and weights: pymatgen v2020.8.13 with grid density = 
   0.00000000  0.00000000  0.00000000       0.250
   0.50000000  0.00000000  0.00000000       0.250
   0.00000000  0.50000000  0.00000000       0.250
   0.50000000  0.50000000  0.00000000       0.250

 position of ions in fractional coordinates (direct lattice) 
   0.50000000  0.50000000  0.49999984
   0.50000001  0.49999999  0.44891612
   0.49999999  0.50000001  0.55108405

 position of ions in cartesian coordinates  (Angst):
  10.00000000 10.00000003 11.49999623
  10.00000028  9.99999971 10.32507073
   9.99999972 10.00000026 12.67493305



--------------------------------------------------------------------------------------------------------

--------------------------------------- Iteration      FINAL  ---------------------------------------


--------------------OUTCAR has been truncated-------------------------


--------------------OUTCAR has been truncated-------------------------


--------------------OUTCAR has been truncated-------------------------


--------------------OUTCAR has been truncated-------------------------


--------------------OUTCAR has been truncated-------------------------


--------------------OUTCAR has been truncated-------------------------


--------------------OUTCAR has been truncated-------------------------


--------------------OUTCAR has been truncated-------------------------


--------------------OUTCAR has been truncated-------------------------


--------------------OUTCAR has been truncated-------------------------


  DFT-D2 method for vdW energy calculation
  -------------------------------------------------------------------

  Parameters of vdW forcefield:
         C6(Jnm^6/mol)     R0(A)
   -----------------------------
   C        1.750          1.452
   O        0.700          1.342

  vdW correction parametrized for the method   รฐ<	   

  IVDW =   1
  VDW_RADIUS =    50.000 A
  VDW_S6 =     1.050
  VDW_SR =     1.000
  VDW_D =    20.000
  LVDW_EWALD = F

  Number of pair interactions contributing to vdW energy:     327
  Edisp (eV):   -0.00355
    FORVDW:  cpu time      0.0007: real time      0.0007

 VOLUME and BASIS-vectors are now :
 -----------------------------------------------------------------------------
  energy-cutoff  :      600.00
  volume of cell :     9200.00
      direct lattice vectors                 reciprocal lattice vectors
    20.000000000  0.000000000  0.000000000     0.050000000  0.000000000  0.000000000
     0.000000000 20.000000000  0.000000000     0.000000000  0.050000000  0.000000000
     0.000000000  0.000000000 23.000000000     0.000000000  0.000000000  0.043478261

  length of vectors
    20.000000000 20.000000000 23.000000000     0.050000000  0.050000000  0.043478261


 FORCES acting on ions:
    Electron-Ion                     Ewald-Force                    Non-Local-Force
 -----------------------------------------------------------------------------------------------
   0.232E-04 -.141E-04 -.371E-02   -.953E-06 0.184E-04 0.483E-02   -.112E-04 0.283E-04 -.705E-04
   -.400E-04 0.793E-04 0.278E+03   0.824E-04 -.904E-04 -.344E+03   -.202E-05 0.391E-04 0.589E+02
   -.324E-05 -.527E-04 -.278E+03   -.814E-04 0.720E-04 0.344E+03   0.903E-04 -.356E-05 -.589E+02
 -----------------------------------------------------------------------------------------------
   -.200E-04 0.123E-04 -.622E-03   0.168E-16 0.843E-17 0.000E+00   0.770E-04 0.638E-04 0.561E-03


 POSITION                                       TOTAL-FORCE (eV/Angst)
 -----------------------------------------------------------------------------------
     10.00000     10.00000     11.50000        -0.000011      0.000007      0.001037
     10.00000     10.00000     10.32507         0.000016      0.000004      1.049909
     10.00000     10.00000     12.67493        -0.000004     -0.000011     -1.050946
 -----------------------------------------------------------------------------------
    total drift:                                0.000065      0.000081     -0.000001


--------------------------------------------------------------------------------------------------------



  FREE ENERGIE OF THE ION-ELECTRON SYSTEM (eV)
  ---------------------------------------------------
  free  energy   TOTEN  =       -27.87842375 eV

  energy  without entropy=      -27.87842375  energy(sigma->0) =      -27.87842375



--------------------------------------------------------------------------------------------------------


    POTLOK:  cpu time      0.6777: real time      0.6778


--------------------------------------------------------------------------------------------------------


     LOOP+:  cpu time    690.1350: real time    690.6281
    4ORBIT:  cpu time      0.0000: real time      0.0000

 total amount of memory used by VASP MPI-rank0   298111. kBytes
=======================================================================

   base      :      30000. kBytes
   nonl-proj :      21495. kBytes
   fftplans  :      45046. kBytes
   grid      :      45347. kBytes
   one-center:          3. kBytes
   HF        :          4. kBytes
   nonlr-proj:        160. kBytes
   wavefun   :       7371. kBytes
   fock_wrk  :     148685. kBytes

  
  
 General timing and accounting informations for this job:
 ========================================================
  
                  Total CPU time used (sec):      707.201
                            User time (sec):      701.863
                          System time (sec):        5.337
                         Elapsed time (sec):      709.571
  
                   Maximum memory used (kb):      490424.
                   Average memory used (kb):          N/A
  
                          Minor page faults:       545591
                          Major page faults:         1241
                 Voluntary context switches:         5205
