 **********************************************************************
                          MRCC program system
 **********************************************************************
 
                              Written by
     Mihaly Kallay, Peter R. Nagy, David Mester, Laszlo Gyevi-Nagy,
        Jozsef Csoka, P. Bernat Szabo, Zoltan Rolik, Gyula Samu,
     Jozsef Csontos, Bence Hegely, Adam Ganyecz, Istvan Ladjanszki,
       Lorant Szegedy, Bence Ladoczki, Klara Petrov, Mate Farkas,
                    Pal D. Mezei, and Reka A. Horvath
 
        Department of Physical Chemistry and Materials Science
            Budapest University of Technology and Economics
                  Budapest P.O.Box 91, H-1521 Hungary
 
                              www.mrcc.hu
 
                      Release date: March 18, 2022

 ************************ 2023-02-05 13:31:42 *************************
 Executing minp...

 Reading input from MINP...
 
 Input file:
 
calc=FNO-CCSD(T)
verbosity=3
mem=220GB
unit=angs
scfiguess=small
scfalg=locfit1
ccmaxit=400
ccsdalg=dfdirect
ccsdthreads=4
ccsdmkl=thr
ptthreads=4
lnoepsv=1e-5
naf_cor=1e-2
basis=aug-cc-pVTZ
basis_sm=def2-SVP
dfbasis_scf=def2-QZVPP-RI-JK
dfbasis_cor=aug-cc-pVTZ-RI
unit=angs
geom=xyz
16

C    34.41670262    34.07107264    10.41543014
C    33.11117461    33.45680459    10.91530835
H    34.24160149    35.00442132     9.86225048
H    34.94674030    33.36940783     9.75379242
H    35.10002891    34.30603621    11.24227357
H    32.42643037    33.26105434    10.07939442
H    32.59136835    34.12756100    11.61262818
H    33.28915165    32.50678735    11.43686767
C    25.97573568    46.73257559    10.41548088
C    24.67017836    46.11828004    10.91529140
H    25.80053312    47.66601471     9.86250154
H    26.50570813    46.03070320     9.75399090
H    26.65931845    46.96765980    11.24209422
H    23.98530395    45.92238203    10.07951373
H    24.15034095    46.78921263    11.61243196
H    24.84823997    45.16817730    11.43663402

--------------------Output has been truncated-------------------------


--------------------Output has been truncated-------------------------


--------------------Output has been truncated-------------------------


--------------------Output has been truncated-------------------------


--------------------Output has been truncated-------------------------


--------------------Output has been truncated-------------------------


--------------------Output has been truncated-------------------------


--------------------Output has been truncated-------------------------


--------------------Output has been truncated-------------------------


--------------------Output has been truncated-------------------------


 
 Reference energy [au]:                      -158.519098687469
 DF-MP2 singlet pair energy [au]:              -0.600509201254
 DF-MP2 triplet pair energy [au]:              -0.150063218753
 DF-SCS-MP2 correlation energy [au]:           -0.770632114422
 DF-SCS-MP2 energy [au]:                     -159.289730801891
 DF-SOS-MP2 correlation energy [au]:           -0.780661961630
 DF-SOS-MP2 energy [au]:                     -159.299760649099
 DF-MP2 correlation energy [au]:               -0.750572420007
 DF-MP2 energy [au]:                         -159.269671107475

 Results in FNO basis:
 
 
 Reference energy [au]:                      -158.519098687469
 DF-MP2 singlet pair energy [au]:              -0.598168764411
 DF-MP2 triplet pair energy [au]:              -0.149850667208
 DF-SCS-MP2 correlation energy [au]:           -0.767752739697
 DF-SCS-MP2 energy [au]:                     -159.286851427165
 DF-SOS-MP2 correlation energy [au]:           -0.777619393735
 DF-SOS-MP2 energy [au]:                     -159.296718081204
 DF-MP2 correlation energy [au]:               -0.748019431620
 DF-MP2 energy [au]:                         -159.267118119089

 Results in NAF basis:
 
 
 Reference energy [au]:                      -158.519098687469
 DF-MP2 singlet pair energy [au]:              -0.598047784699
 DF-MP2 triplet pair energy [au]:              -0.149928958715
 DF-SCS-MP2 correlation energy [au]:           -0.767633661211
 DF-SCS-MP2 energy [au]:                     -159.286732348680
 DF-SOS-MP2 correlation energy [au]:           -0.777462120109
 DF-SOS-MP2 energy [au]:                     -159.296560807578
 DF-MP2 correlation energy [au]:               -0.747976743414
 DF-MP2 energy [au]:                         -159.267075430883

 ************************ 2023-02-05 13:32:33 *************************
 Executing ccsd...

 Allocation of 220.0 Gbytes of memory...

 Direct DF-CCSD(T) calculation
 
 Convergence criterion:  1.0E-06
 
 Number of occupied/virtual/auxiliary orbitals:    14   278   756
   3422.71 MB is the minimal memory requirement for (T)
    780.99 MB is the minimal memory requirement for CCSD
 
 Reference energy [au]:            -158.519098687469
 T1 contribution [au]:                0.000000000000
 Same spin MP2 energy [au]:          -0.149889694875
 Opposite spin MP2 energy [au]:      -0.598107933367
 MP2 correlation energy [au]:        -0.747997628242
 Total MP2 energy [au]:            -159.267096315711
 MP2 correction [au]:                -0.002574791764
 
 
 CPU time [min]:     0.934                   Wall time [min]:     0.133
 
 Starting CCSD iterations...
 
                     Residual norm          Energy
 Iteration  1        0.241422312107     -159.308953374695
 Iteration  2        0.060037842294     -159.328083217918
 Iteration  3        0.015975799805     -159.329995382325
 Iteration  4        0.003604198550     -159.330012030239
 Iteration  5        0.000758967916     -159.330022444400
 Iteration  6        0.000215375450     -159.330028598963
 Iteration  7        0.000051276359     -159.330028168212
 Iteration  8        0.000013080375     -159.330028751451
 Iteration  9        0.000002622554     -159.330028699403
 
 CCSD iteration has converged in  9 steps.
    23656.02 MB memory was utilized by CCSD
 
 T1 diagnostic:      7.816E-03            D1 diagnostic:      1.354E-02
 
 T1 contribution [au]:                                  0.000000000000
 PPL energy contribution [au]:                          0.205823420585
 Scaled PPL energy contribution [au]:                   0.206540679298

 OS-PPL energy contribution [au]:                       0.179922973869
 Scaled OS-PPL energy contribution [au]:                0.180665018504
 SS-PPL energy contribution [au]:                       0.025900446716
 Scaled SS-PPL energy contribution [au]:                0.025924068987

 Opposite spin CCSD energy [au]:                       -0.668568706232
 Same spin CCSD energy [au]:                           -0.142398309829
 CCSD correlation energy [au]:                         -0.810967016061
 CCSD correlation energy + MP2 correction [au]:        -0.813541807825
 CCSD correlation energy + MP2 + PPL corr. [au]:       -0.812824549112
 Total CCSD energy [au]:                             -159.330065703529
 Total CCSD energy + MP2 correction [au]:            -159.332640495294
 Total CCSD energy + MP2 + PPL corr. [au]:           -159.331923236581
 
 CPU time [min]:    52.646                   Wall time [min]:     1.757
 
 Calculation of (T) correction...
 
 
     4429.83 MB memory is utilized for (T)

 0%       25%       50%       75%       100%
 |---------|---------|---------|---------| 
 
 (T) correction [au]:                                    -0.027917967132
 (T*) correction [au]:                                   -0.028014067640
 (T+) correction [au]:                                   -0.028012891607
 CCSD(T) correlation energy [au]:                        -0.838884983193
 CCSD(T) correlation energy + MP2 correction [au]:       -0.841459774957
 CCSD(T+) correlation en. + MP2 + PPL corr. [au]:        -0.840837440719
 Total CCSD(T) energy [au]:                            -159.357983670661
 Total CCSD(T) energy + MP2 correction [au]:           -159.360558462426
 Total CCSD(T+) energy + MP2 + PPL corr. [au]:         -159.359936128188
 
 CPU time [min]:   110.426                   Wall time [min]:     3.457
 
 ************************ 2023-02-05 13:36:01 *************************
                      Normal termination of mrcc.
 **********************************************************************
