 vasp.6.3.0 20Jan22 (build Aug 21 2024 11:13:42) complex                         
 executed on        HPECrayEX_GCC date 2024.08.23  20:12:36
 running  512 mpi-ranks, with    1 threads/rank
 distrk:  each k-point on  512 cores,    1 groups
 distr:  one band on NCORE=   8 cores,   64 groups


--------------------------------------------------------------------------------------------------------


 INCAR:
   SYSTEM = MgO-rocksalt
   ISMEAR = 0
   SIGMA = 0.05
   EDIFF = 1E-6
   ALGO = ALL
   ISTART = 0
   IBRION = -1
   NSW = 0
   ISYM = 0
   DIPOL = 0.5 0.5 0.5
   IDIPOL = 4
   LDIPOL = .TRUE.
   GGA = RE
   AGGAC = 0.0
   LUSE_VDW = .TRUE.
   LASPH = .TRUE.
   ENCUT = 600
   PREC = Accurate
   LASPH = .TRUE.
   LREAL = .FALSE.
   ISPIN = 1
   NELM = 200
   NELMIN = 8
   NCORE = 8
   KPAR = 1
   LWAVE = .FALSE.
   LCHARG = .FALSE.

 POTCAR:    PAW_PBE C 08Apr2002                   
 POTCAR:    PAW_PBE H 15Jun2001                   
 -----------------------------------------------------------------------------
|                                                                             |
|               ----> ADVICE to this user running VASP <----                  |
|                                                                             |
|     You have switched on vdW-DFT.                                           |
|     This routine was written and supplied by Jiri Klimes. We recommend      |
|     that you carefully read and cite the following publications:            |
|       J. Klimes, D.R. Bowler, A. Michelides                                 |
|          J. Phys.: Cond Matt. 22 022201 (2010)                              |
|       J. Klimes, D.R. Bowler, A. Michelides                                 |
|          Phys. Rev. B. 83, 195131 (2011)                                    |
|     and references therein.                                                 |
|                                                                             |
 -----------------------------------------------------------------------------

 POTCAR:    PAW_PBE C 08Apr2002                   
   SHA256 =  253f7b50bb8d59471dbedb8285d89021f4a42ed1a2c5d38a03a736e69125dd95 C/POTCAR              
   COPYR  = (c) Copyright 08Apr2002 Georg Kresse                                                    
   COPYR  = This file is part of the software VASP. Any use, copying, and all other rights are regul
   COPYR  = If you do not have a valid VASP license, you may not use, copy or distribute this file. 
   VRHFIN =C: s2p2                                                                                  
   LEXCH  = PE                                                                                      
   EATOM  =   147.1560 eV,   10.8157 Ry                                                             
                                                                                                    
   TITEL  = PAW_PBE C 08Apr2002                                                                     
   LULTRA =        F    use ultrasoft PP ?                                                          
   IUNSCR =        1    unscreen: 0-lin 1-nonlin 2-no                                               
   RPACOR =    1.200    partial core radius                                                         
   POMASS =   12.011; ZVAL   =    4.000    mass and valenz                                          
   RCORE  =    1.500    outmost cutoff radius                                                       
   RWIGS  =    1.630; RWIGS  =    0.863    wigner-seitz radius (au A)                               
   ENMAX  =  400.000; ENMIN  =  300.000 eV                                                          
   ICORE  =        2    local potential                                                             
   LCOR   =        T    correct aug charges                                                         
   LPAW   =        T    paw PP                                                                      
   EAUG   =  644.873                                                                                
   DEXC   =    0.000                                                                                
   RMAX   =    1.529    core radius for proj-oper                                                   
   RAUG   =    1.300    factor for augmentation sphere                                              
   RDEP   =    1.501    radius for radial grids                                                     
   RDEPT  =    1.300    core radius for aug-charge                                                  
                                                                                                    
   Atomic configuration                                                                             
    4 entries                                                                                       
     n  l   j            E        occ.                                                              
     1  0  0.50      -273.3789   2.0000                                                             
     2  0  0.50       -13.7508   2.0000                                                             
     2  1  0.50        -5.2854   2.0000                                                             
     3  2  1.50        -5.4423   0.0000                                                             
   Description                                                                                      
     l       E           TYP  RCUT    TYP  RCUT                                                     
     0    -13.7508458     23  1.200                                                                 
     0     -8.2022199     23  1.200                                                                 
     1     -5.2854383     23  1.500                                                                 
     1     34.0145650     23  1.500                                                                 
     2     -5.4423304      7  1.500                                                                 
  local pseudopotential read in
  partial core-charges read in
  partial kinetic energy density read in
  atomic valenz-charges read in
  non local Contribution for L=           0  read in
    real space projection operators read in
  non local Contribution for L=           0  read in
    real space projection operators read in
  non local Contribution for L=           1  read in
    real space projection operators read in
  non local Contribution for L=           1  read in
    real space projection operators read in
    PAW grid and wavefunctions read in

   number of l-projection  operators is LMAX  =           4
   number of lm-projection operators is LMMAX =           8

 POTCAR:    PAW_PBE H 15Jun2001                   
   SHA256 =  030f79b5d3ab3cf0e668861823c8fb652ff669f3e15e46930bd03bfd63a607b6 H/POTCAR              
   COPYR  = (c) Copyright 15Jun2001 Georg Kresse                                                    
   COPYR  = This file is part of the software VASP. Any use, copying, and all other rights are regul
   COPYR  = If you do not have a valid VASP license, you may not use, copy or distribute this file. 
   VRHFIN =H: ultrasoft test                                                                        
   LEXCH  = PE                                                                                      
   EATOM  =    12.4884 eV,    0.9179 Ry                                                             
                                                                                                    
   TITEL  = PAW_PBE H 15Jun2001                                                                     
   LULTRA =        F    use ultrasoft PP ?                                                          
   IUNSCR =        0    unscreen: 0-lin 1-nonlin 2-no                                               
   RPACOR =    0.000    partial core radius                                                         
   POMASS =    1.000; ZVAL   =    1.000    mass and valenz                                          
   RCORE  =    1.100    outmost cutoff radius                                                       
   RWIGS  =    0.700; RWIGS  =    0.370    wigner-seitz radius (au A)                               
   ENMAX  =  250.000; ENMIN  =  200.000 eV                                                          
   RCLOC  =    0.701    cutoff for local pot                                                        
   LCOR   =        T    correct aug charges                                                         
   LPAW   =        T    paw PP                                                                      
   EAUG   =  400.000                                                                                
   RMAX   =    1.123    core radius for proj-oper                                                   
   RAUG   =    1.200    factor for augmentation sphere                                              
   RDEP   =    1.112    radius for radial grids                                                     
   RDEPT  =    0.926    core radius for aug-charge                                                  
                                                                                                    
   Atomic configuration                                                                             
    2 entries                                                                                       
     n  l   j            E        occ.                                                              
     1  0  0.50        -6.4927   1.0000                                                             
     2  1  0.50        -3.4015   0.0000                                                             
   Description                                                                                      
     l       E           TYP  RCUT    TYP  RCUT                                                     
     0     -6.4927494     23  1.100                                                                 
     0      6.8029130     23  1.100                                                                 
     1     -4.0817478     23  1.100                                                                 
  local pseudopotential read in
  atomic valenz-charges read in
  non local Contribution for L=           0  read in
    real space projection operators read in
  non local Contribution for L=           0  read in
    real space projection operators read in
  non local Contribution for L=           1  read in
    real space projection operators read in
    PAW grid and wavefunctions read in

   number of l-projection  operators is LMAX  =           3
   number of lm-projection operators is LMMAX =           5

 -----------------------------------------------------------------------------
|                                                                             |
|               ----> ADVICE to this user running VASP <----                  |
|                                                                             |
|     You enforced a specific xc type in the INCAR file but a different       |
|     type was found in the POTCAR file.                                      |
|     I HOPE YOU KNOW WHAT YOU ARE DOING!                                     |
|                                                                             |
 -----------------------------------------------------------------------------

  PAW_PBE C 08Apr2002                   :
 energy of atom  1       EATOM= -147.1560
 kinetic energy error for atom=    0.0057 (will be added to EATOM!!)
  PAW_PBE H 15Jun2001                   :
 energy of atom  2       EATOM=  -12.4884
 kinetic energy error for atom=    0.0004 (will be added to EATOM!!)


 POSCAR:  C  H
  positions in direct lattice
  No initial velocities read in
 exchange correlation table for  LEXCH =       40
   RHO(1)=    0.500       N(1)  =     2000
   RHO(2)=  100.500       N(2)  =     4000



--------------------------------------------------------------------------------------------------------


 ion  position               nearest neighbor table
   1  0.463  0.518  0.486-   5 1.10   4 1.10   3 1.10   2 1.53
   2  0.537  0.483  0.513-   7 1.10   8 1.10   6 1.10   1 1.53
   3  0.432  0.479  0.446-   1 1.10
   4  0.472  0.572  0.454-   1 1.10
   5  0.425  0.531  0.536-   1 1.10
   6  0.575  0.473  0.462-   2 1.10
   7  0.528  0.428  0.543-   2 1.10
   8  0.568  0.520  0.554-   2 1.10


IMPORTANT INFORMATION: All symmetrisations will be switched off!
NOSYMM: (Re-)initialisation of all symmetry stuff for point group C_1.


----------------------------------------------------------------------------------------

                                     Primitive cell                                     

  volume of cell :    5205.2791

  direct lattice vectors                    reciprocal lattice vectors
    17.650966955  0.000000000  0.000000000     0.056654120  0.000000000  0.000000000
     0.000000000 17.534575872  0.000000000     0.000000000  0.057030179  0.000000000
     0.000000000  0.000000000 16.818228565     0.000000000  0.000000000  0.059459294

  length of vectors
    17.650966955 17.534575872 16.818228565     0.056654120  0.057030179  0.059459294

  position of ions in fractional coordinates (direct lattice)
     0.462730030  0.518193413  0.485528554
     0.537345945  0.482684931  0.512681539
     0.431860330  0.478839085  0.445944706
     0.472204780  0.572273658  0.453699537
     0.424905900  0.530700368  0.535827291
     0.575094100  0.472641243  0.461663800
     0.528024479  0.427726342  0.542666633
     0.567872784  0.520332443  0.554055294

  ion indices of the primitive-cell ions
   primitive index   ion index
                 1           1
                 2           2
                 3           3
                 4           4
                 5           5
                 6           6
                 7           7
                 8           8

----------------------------------------------------------------------------------------



 KPOINTS: pymatgen v2020.8.13 with grid density = 

Automatic generation of k-mesh.
 Grid dimensions read from file:
 generate k-points for:    1    1    1

 Generating k-lattice:

  Cartesian coordinates                     Fractional coordinates (reciprocal lattice)
     0.056654120  0.000000000  0.000000000     1.000000000  0.000000000  0.000000000
     0.000000000  0.057030179  0.000000000     0.000000000  1.000000000  0.000000000
     0.000000000  0.000000000  0.059459294     0.000000000  0.000000000  1.000000000

  Length of vectors
     0.056654120  0.057030179  0.059459294

  Shift w.r.t. Gamma in fractional coordinates (k-lattice)
     0.000000000  0.000000000  0.000000000

 
 Subroutine IBZKPT returns following result:
 ===========================================
 
 Found      1 irreducible k-points:
 
 Following reciprocal coordinates:
            Coordinates               Weight
  0.000000  0.000000  0.000000      1.000000
 
 Following cartesian coordinates:
            Coordinates               Weight
  0.000000  0.000000  0.000000      1.000000
 


--------------------------------------------------------------------------------------------------------




 Dimension of arrays:
   k-points           NKPTS =      1   k-points in BZ     NKDIM =      1   number of bands    NBANDS=     64
   number of dos      NEDOS =    301   number of ions     NIONS =      8
   non local maximal  LDIM  =      4   non local SUM 2l+1 LMDIM =      8
   total plane-waves  NPLWV = ******
   max r-space proj   IRMAX =      1   max aug-charges    IRDMAX=   6597
   dimension x,y,z NGX =   144 NGY =  140 NGZ =  140
   dimension x,y,z NGXF=   288 NGYF=  280 NGZF=  280
   support grid    NGXF=   288 NGYF=  280 NGZF=  280
   ions per type =               2   6
   NGX,Y,Z   is equivalent  to a cutoff of  13.56, 13.27, 13.84 a.u.
   NGXF,Y,Z  is equivalent  to a cutoff of  27.13, 26.55, 27.68 a.u.

 SYSTEM =  MgO-rocksalt                            
 POSCAR =   C  H                                   

--------------------------------------------------------------------------------------------------------


  energy-cutoff  :      600.00
  volume of cell :     5205.28
      direct lattice vectors                 reciprocal lattice vectors
    17.650966955  0.000000000  0.000000000     0.056654120  0.000000000  0.000000000
     0.000000000 17.534575872  0.000000000     0.000000000  0.057030179  0.000000000
     0.000000000  0.000000000 16.818228565     0.000000000  0.000000000  0.059459294

  length of vectors
    17.650966955 17.534575872 16.818228565     0.056654120  0.057030179  0.059459294



 k-points in units of 2pi/SCALE and weight: pymatgen v2020.8.13 with grid density = 
   0.00000000  0.00000000  0.00000000       1.000

 k-points in reciprocal lattice and weights: pymatgen v2020.8.13 with grid density = 
   0.00000000  0.00000000  0.00000000       1.000

 position of ions in fractional coordinates (direct lattice) 
   0.46273003  0.51819341  0.48552855
   0.53734594  0.48268493  0.51268154
   0.43186033  0.47883908  0.44594471
   0.47220478  0.57227366  0.45369954
   0.42490590  0.53070037  0.53582729
   0.57509410  0.47264124  0.46166380
   0.52802448  0.42772634  0.54266663
   0.56787278  0.52033244  0.55405529

 position of ions in cartesian coordinates  (Angst):
   8.16763247  9.08630171  8.16573020
   9.48467551  8.46367554  8.62239531
   7.62275242  8.39624026  7.50000000
   8.33487096 10.03457587  7.63042251
   7.50000000  9.30560586  9.01166586
  10.15096695  8.28756374  7.76436731
   9.32014264  7.50000000  9.12669147
  10.02350375  9.12380871  9.31822857



--------------------------------------------------------------------------------------------------------

--------------------------------------- Iteration      FINAL  ---------------------------------------


--------------------OUTCAR has been truncated-------------------------


--------------------OUTCAR has been truncated-------------------------


--------------------OUTCAR has been truncated-------------------------


--------------------OUTCAR has been truncated-------------------------


--------------------OUTCAR has been truncated-------------------------


--------------------OUTCAR has been truncated-------------------------


--------------------OUTCAR has been truncated-------------------------


--------------------OUTCAR has been truncated-------------------------


--------------------OUTCAR has been truncated-------------------------


--------------------OUTCAR has been truncated-------------------------


  FORCE on cell =-STRESS in cart. coord.  units (eV):
  Direction    XX          YY          ZZ          XY          YZ          ZX
  --------------------------------------------------------------------------------------
  Alpha Z     0.14978     0.14978     0.14978
  Ewald     230.09134   133.56068   126.72949   -57.64674   -20.37955    42.29976
  Hartree   311.26469   237.28189   235.67916   -44.07292   -15.31731    32.34374
  E(xc)     -50.35555   -50.14467   -50.15871     0.12950     0.03943    -0.09518
  Local    -653.51477  -479.57555  -471.19815   103.81734    36.33282   -76.19677
  n-local   -25.14548   -25.84246   -25.95747    -0.43244    -0.15892     0.32349
  augment     0.11477     0.07155     0.06968    -0.02639    -0.00852     0.01970
  Kinetic   187.53204   184.06964   184.53390    -2.09211    -0.58000     1.50438
  Fock        0.00000     0.00000     0.00000     0.00000     0.00000     0.00000
  -------------------------------------------------------------------------------------
  Total       0.13683    -0.42913    -0.15232    -0.32375    -0.07206     0.19912
  in kB       0.04212    -0.13209    -0.04688    -0.09965    -0.02218     0.06129
  external pressure =       -0.05 kB  Pullay stress =        0.00 kB


 VOLUME and BASIS-vectors are now :
 -----------------------------------------------------------------------------
  energy-cutoff  :      600.00
  volume of cell :     5205.28
      direct lattice vectors                 reciprocal lattice vectors
    17.650966955  0.000000000  0.000000000     0.056654120  0.000000000  0.000000000
     0.000000000 17.534575872  0.000000000     0.000000000  0.057030179  0.000000000
     0.000000000  0.000000000 16.818228565     0.000000000  0.000000000  0.059459294

  length of vectors
    17.650966955 17.534575872 16.818228565     0.056654120  0.057030179  0.059459294


 FORCES acting on ions:
    Electron-Ion                     Ewald-Force                    Non-Local-Force
 -----------------------------------------------------------------------------------------------
   0.675E+02 -.324E+02 0.238E+02   -.675E+02 0.325E+02 -.238E+02   -.376E+00 0.720E-01 -.788E-01
   -.675E+02 0.323E+02 -.241E+02   0.675E+02 -.323E+02 0.242E+02   0.329E+00 -.599E-01 0.247E-01
   0.373E+02 0.326E+02 0.382E+02   -.400E+02 -.359E+02 -.416E+02   0.279E+01 0.348E+01 0.335E+01
   -.546E+00 -.542E+02 0.312E+02   0.131E+01 0.589E+02 -.340E+02   -.807E+00 -.483E+01 0.271E+01
   0.437E+02 -.156E+02 -.421E+02   -.471E+02 0.167E+02 0.464E+02   0.345E+01 -.114E+01 -.429E+01
   -.439E+02 0.134E+02 0.427E+02   0.473E+02 -.143E+02 -.470E+02   -.343E+01 0.902E+00 0.435E+01
   0.412E+00 0.552E+02 -.297E+02   -.117E+01 -.600E+02 0.323E+02   0.801E+00 0.493E+01 -.258E+01
   -.369E+02 -.312E+02 -.399E+02   0.397E+02 0.344E+02 0.434E+02   -.279E+01 -.334E+01 -.355E+01
 -----------------------------------------------------------------------------------------------
   0.283E-01 -.743E-02 0.580E-01   -.284E-13 0.000E+00 -.107E-13   -.284E-01 0.736E-02 -.579E-01


 POSITION                                       TOTAL-FORCE (eV/Angst)
 -----------------------------------------------------------------------------------
      8.16763      9.08630      8.16573        -0.412819      0.095677     -0.131341
      9.48468      8.46368      8.62240         0.363744     -0.073806      0.080342
      7.62275      8.39624      7.50000         0.073597      0.184076      0.012764
      8.33487     10.03458      7.63042        -0.039502     -0.154596      0.005858
      7.50000      9.30561      9.01167         0.077631     -0.024192     -0.002809
     10.15097      8.28756      7.76437        -0.047591     -0.045020      0.080891
      9.32014      7.50000      9.12669         0.038425      0.084171     -0.029904
     10.02350      9.12381      9.31823        -0.053486     -0.066310     -0.015802
 -----------------------------------------------------------------------------------
    total drift:                               -0.000084     -0.000070      0.000120


--------------------------------------------------------------------------------------------------------



  FREE ENERGIE OF THE ION-ELECTRON SYSTEM (eV)
  ---------------------------------------------------
  free  energy   TOTEN  =       -37.40548075 eV

  energy  without entropy=      -37.40548075  energy(sigma->0) =      -37.40548075



--------------------------------------------------------------------------------------------------------


    POTLOK:  cpu time      1.1069: real time      1.1073


--------------------------------------------------------------------------------------------------------


     LOOP+:  cpu time     57.7617: real time     57.8504
    4ORBIT:  cpu time      0.0000: real time      0.0000

 total amount of memory used by VASP MPI-rank0    68195. kBytes
=======================================================================

   base      :      30000. kBytes
   nonl-proj :       5570. kBytes
   fftplans  :      13010. kBytes
   grid      :      18565. kBytes
   one-center:          3. kBytes
   wavefun   :       1047. kBytes

  
  
 General timing and accounting informations for this job:
 ========================================================
  
                  Total CPU time used (sec):       88.396
                            User time (sec):       87.360
                          System time (sec):        1.036
                         Elapsed time (sec):      102.382
  
                   Maximum memory used (kb):      354504.
                   Average memory used (kb):          N/A
  
                          Minor page faults:        30444
                          Major page faults:         1159
                 Voluntary context switches:        10807
