 **********************************************************************
                          MRCC program system
 **********************************************************************
 
                              Written by
     Mihaly Kallay, Peter R. Nagy, David Mester, Laszlo Gyevi-Nagy,
        Jozsef Csoka, P. Bernat Szabo, Zoltan Rolik, Gyula Samu,
     Jozsef Csontos, Bence Hegely, Adam Ganyecz, Istvan Ladjanszki,
       Lorant Szegedy, Bence Ladoczki, Klara Petrov, Mate Farkas,
                    Pal D. Mezei, and Reka A. Horvath
 
        Department of Physical Chemistry and Materials Science
            Budapest University of Technology and Economics
                  Budapest P.O.Box 91, H-1521 Hungary
 
                              www.mrcc.hu
 
                      Release date: March 18, 2022

 ************************ 2023-02-05 13:13:14 *************************
 Executing minp...

 Reading input from MINP...
 
 Input file:
 
calc=FNO-CCSD(T)
verbosity=3
mem=220GB
unit=angs
scfiguess=small
scfalg=locfit1
ccmaxit=400
ccsdalg=dfdirect
ccsdthreads=4
ccsdmkl=thr
ptthreads=4
lnoepsv=1e-5
naf_cor=1e-2
basis=aug-cc-pVQZ
basis_sm=def2-SVP
dfbasis_scf=def2-QZVPP-RI-JK
dfbasis_cor=aug-cc-pVQZ-RI
unit=angs
geom=xyz
16

C    34.41670262    34.07107264    10.41543014
C    33.11117461    33.45680459    10.91530835
H    34.24160149    35.00442132     9.86225048
H    34.94674030    33.36940783     9.75379242
H    35.10002891    34.30603621    11.24227357
H    32.42643037    33.26105434    10.07939442
H    32.59136835    34.12756100    11.61262818
H    33.28915165    32.50678735    11.43686767
C    34.41670262    17.18910333    10.41543014
C    33.11117461    16.57483529    10.91530835
H    34.24160149    18.12245202     9.86225048
H    34.94674030    16.48743852     9.75379242
H    35.10002891    17.42406690    11.24227357
H    32.42643037    16.37908503    10.07939442
H    32.59136835    17.24559169    11.61262818
H    33.28915165    15.62481804    11.43686767

--------------------Output has been truncated-------------------------


--------------------Output has been truncated-------------------------


--------------------Output has been truncated-------------------------


--------------------Output has been truncated-------------------------


--------------------Output has been truncated-------------------------


--------------------Output has been truncated-------------------------


--------------------Output has been truncated-------------------------


--------------------Output has been truncated-------------------------


--------------------Output has been truncated-------------------------


--------------------Output has been truncated-------------------------


 
 Reference energy [au]:                       -79.264437034417
 DF-MP2 singlet pair energy [au]:              -0.317722279236
 DF-MP2 triplet pair energy [au]:              -0.076906314196
 DF-SCS-MP2 correlation energy [au]:           -0.406902173148
 DF-SCS-MP2 energy [au]:                      -79.671339207565
 DF-SOS-MP2 correlation energy [au]:           -0.413038963007
 DF-SOS-MP2 energy [au]:                      -79.677475997424
 DF-MP2 correlation energy [au]:               -0.394628593432
 DF-MP2 energy [au]:                          -79.659065627849

 Results in FNO basis:
 
 
 Reference energy [au]:                       -79.264437034417
 DF-MP2 singlet pair energy [au]:              -0.312548718968
 DF-MP2 triplet pair energy [au]:              -0.076620433170
 DF-SCS-MP2 correlation energy [au]:           -0.400598607151
 DF-SCS-MP2 energy [au]:                      -79.665035641569
 DF-SOS-MP2 correlation energy [au]:           -0.406313334658
 DF-SOS-MP2 energy [au]:                      -79.670750369075
 DF-MP2 correlation energy [au]:               -0.389169152138
 DF-MP2 energy [au]:                          -79.653606186555

 Results in NAF basis:
 
 
 Reference energy [au]:                       -79.264437034417
 DF-MP2 singlet pair energy [au]:              -0.312527756778
 DF-MP2 triplet pair energy [au]:              -0.076628439649
 DF-SCS-MP2 correlation energy [au]:           -0.400576121350
 DF-SCS-MP2 energy [au]:                      -79.665013155767
 DF-SOS-MP2 correlation energy [au]:           -0.406286083811
 DF-SOS-MP2 energy [au]:                      -79.670723118228
 DF-MP2 correlation energy [au]:               -0.389156196427
 DF-MP2 energy [au]:                          -79.653593230844

 ************************ 2023-02-05 13:14:44 *************************
 Executing ccsd...

 Allocation of 220.0 Gbytes of memory...

 Direct DF-CCSD(T) calculation
 
 Convergence criterion:  1.0E-06
 
 Number of occupied/virtual/auxiliary orbitals:     7   175   551
    851.32 MB is the minimal memory requirement for (T)
    190.43 MB is the minimal memory requirement for CCSD
 
 Reference energy [au]:             -79.264437034417
 T1 contribution [au]:                0.000000000000
 Same spin MP2 energy [au]:          -0.076624433846
 Opposite spin MP2 energy [au]:      -0.312538233165
 MP2 correlation energy [au]:        -0.389162667012
 Total MP2 energy [au]:             -79.653599701429
 MP2 correction [au]:                -0.005465926420
 
 
 CPU time [min]:     0.404                   Wall time [min]:     0.050
 
 Starting CCSD iterations...
 
                     Residual norm          Energy
 Iteration  1        0.179604436150      -79.671512628384
 Iteration  2        0.044511305155      -79.681094790148
 Iteration  3        0.013089806564      -79.682230514239
 Iteration  4        0.002650289267      -79.682237736928
 Iteration  5        0.000560968217      -79.682243602180
 Iteration  6        0.000156931248      -79.682245653032
 Iteration  7        0.000037096190      -79.682245427977
 Iteration  8        0.000009998706      -79.682245791865
 
 CCSD iteration has converged in  8 steps.
     3804.92 MB memory was utilized by CCSD
 
 T1 diagnostic:      8.231E-03            D1 diagnostic:      1.428E-02
 
 T1 contribution [au]:                                  0.000000000000
 PPL energy contribution [au]:                          0.108935348884
 Scaled PPL energy contribution [au]:                   0.110475069575

 OS-PPL energy contribution [au]:                       0.095542144402
 Scaled OS-PPL energy contribution [au]:                0.097137047123
 SS-PPL energy contribution [au]:                       0.013393204481
 Scaled SS-PPL energy contribution [au]:                0.013441281497

 Opposite spin CCSD energy [au]:                       -0.345140078237
 Same spin CCSD energy [au]:                           -0.072676432017
 CCSD correlation energy [au]:                         -0.417816510254
 CCSD correlation energy + MP2 correction [au]:        -0.423282436674
 CCSD correlation energy + MP2 + PPL corr. [au]:       -0.421742715982
 Total CCSD energy [au]:                              -79.682253544672
 Total CCSD energy + MP2 correction [au]:             -79.687719471091
 Total CCSD energy + MP2 + PPL corr. [au]:            -79.686179750399
 
 CPU time [min]:     6.492                   Wall time [min]:     0.237
 
 Calculation of (T) correction...
 
 
      783.34 MB memory is utilized for (T)

 0%       25%       50%       75%       100%
 |---------|---------|---------|---------| 
 
 (T) correction [au]:                                    -0.014762649462
 (T*) correction [au]:                                   -0.014969996061
 (T+) correction [au]:                                   -0.014966464630
 CCSD(T) correlation energy [au]:                        -0.432579159716
 CCSD(T) correlation energy + MP2 correction [au]:       -0.438045086136
 CCSD(T+) correlation en. + MP2 + PPL corr. [au]:        -0.436709180612
 Total CCSD(T) energy [au]:                             -79.697016194133
 Total CCSD(T) energy + MP2 correction [au]:            -79.702482120553
 Total CCSD(T+) energy + MP2 + PPL corr. [au]:          -79.701146215029
 
 CPU time [min]:     8.198                   Wall time [min]:     0.294
 
 ************************ 2023-02-05 13:15:02 *************************
                      Normal termination of mrcc.
 **********************************************************************
