 **********************************************************************
                          MRCC program system
 **********************************************************************
 
                              Written by
     Mihaly Kallay, Peter R. Nagy, David Mester, Laszlo Gyevi-Nagy,
        Jozsef Csoka, P. Bernat Szabo, Zoltan Rolik, Gyula Samu,
     Jozsef Csontos, Bence Hegely, Adam Ganyecz, Istvan Ladjanszki,
       Lorant Szegedy, Bence Ladoczki, Klara Petrov, Mate Farkas,
                    Pal D. Mezei, and Reka A. Horvath
 
        Department of Physical Chemistry and Materials Science
            Budapest University of Technology and Economics
                  Budapest P.O.Box 91, H-1521 Hungary
 
                              www.mrcc.hu
 
                      Release date: March 18, 2022

 ************************ 2023-02-05 13:13:11 *************************
 Executing minp...

 Reading input from MINP...
 
 Input file:
 
calc=FNO-CCSD(T)
verbosity=3
mem=220GB
unit=angs
scfiguess=small
scfalg=locfit1
ccmaxit=400
ccsdalg=dfdirect
ccsdthreads=4
ccsdmkl=thr
ptthreads=4
lnoepsv=1e-5
naf_cor=1e-2
basis=aug-cc-pVTZ
basis_sm=def2-SVP
dfbasis_scf=def2-QZVPP-RI-JK
dfbasis_cor=aug-cc-pVTZ-RI
unit=angs
geom=xyz
16

C    34.41670262    34.07107264    10.41543014
C    33.11117461    33.45680459    10.91530835
H    34.24160149    35.00442132     9.86225048
H    34.94674030    33.36940783     9.75379242
H    35.10002891    34.30603621    11.24227357
H    32.42643037    33.26105434    10.07939442
H    32.59136835    34.12756100    11.61262818
H    33.28915165    32.50678735    11.43686767
C    34.41670262    17.18910333    10.41543014
C    33.11117461    16.57483529    10.91530835
H    34.24160149    18.12245202     9.86225048
H    34.94674030    16.48743852     9.75379242
H    35.10002891    17.42406690    11.24227357
H    32.42643037    16.37908503    10.07939442
H    32.59136835    17.24559169    11.61262818
H    33.28915165    15.62481804    11.43686767

--------------------Output has been truncated-------------------------


--------------------Output has been truncated-------------------------


--------------------Output has been truncated-------------------------


--------------------Output has been truncated-------------------------


--------------------Output has been truncated-------------------------


--------------------Output has been truncated-------------------------


--------------------Output has been truncated-------------------------


--------------------Output has been truncated-------------------------


--------------------Output has been truncated-------------------------


--------------------Output has been truncated-------------------------


 
 Reference energy [au]:                       -79.259550503213
 DF-MP2 singlet pair energy [au]:              -0.300254290016
 DF-MP2 triplet pair energy [au]:              -0.075031442269
 DF-SCS-MP2 correlation energy [au]:           -0.385315628776
 DF-SCS-MP2 energy [au]:                      -79.644866131988
 DF-SOS-MP2 correlation energy [au]:           -0.390330577021
 DF-SOS-MP2 energy [au]:                      -79.649881080233
 DF-MP2 correlation energy [au]:               -0.375285732285
 DF-MP2 energy [au]:                          -79.634836235498

 Results in FNO basis:
 
 
 Reference energy [au]:                       -79.259550503213
 DF-MP2 singlet pair energy [au]:              -0.299084107869
 DF-MP2 triplet pair energy [au]:              -0.074925176442
 DF-SCS-MP2 correlation energy [au]:           -0.383875988257
 DF-SCS-MP2 energy [au]:                      -79.643426491470
 DF-SOS-MP2 correlation energy [au]:           -0.388809340230
 DF-SOS-MP2 energy [au]:                      -79.648359843443
 DF-MP2 correlation energy [au]:               -0.374009284312
 DF-MP2 energy [au]:                          -79.633559787524

 Results in NAF basis:
 
 
 Reference energy [au]:                       -79.259550503213
 DF-MP2 singlet pair energy [au]:              -0.299023376895
 DF-MP2 triplet pair energy [au]:              -0.074964220912
 DF-SCS-MP2 correlation energy [au]:           -0.383816125911
 DF-SCS-MP2 energy [au]:                      -79.643366629124
 DF-SOS-MP2 correlation energy [au]:           -0.388730389963
 DF-SOS-MP2 energy [au]:                      -79.648280893176
 DF-MP2 correlation energy [au]:               -0.373987597807
 DF-MP2 energy [au]:                          -79.633538101019

 ************************ 2023-02-05 13:13:41 *************************
 Executing ccsd...

 Allocation of 220.0 Gbytes of memory...

 Direct DF-CCSD(T) calculation
 
 Convergence criterion:  1.0E-06
 
 Number of occupied/virtual/auxiliary orbitals:     7   139   378
    421.21 MB is the minimal memory requirement for (T)
     94.89 MB is the minimal memory requirement for CCSD
 
 Reference energy [au]:             -79.259550503213
 T1 contribution [au]:                0.000000000000
 Same spin MP2 energy [au]:          -0.074944639497
 Opposite spin MP2 energy [au]:      -0.299053571567
 MP2 correlation energy [au]:        -0.373998211064
 Total MP2 energy [au]:             -79.633548714277
 MP2 correction [au]:                -0.001287521221
 
 
 CPU time [min]:     0.317                   Wall time [min]:     0.017
 
 Starting CCSD iterations...
 
                     Residual norm          Energy
 Iteration  1        0.170712144823      -79.654477276771
 Iteration  2        0.042453498900      -79.664042194227
 Iteration  3        0.011296535568      -79.664998240248
 Iteration  4        0.002548541628      -79.665006561904
 Iteration  5        0.000536665455      -79.665011768637
 Iteration  6        0.000152292046      -79.665014846269
 Iteration  7        0.000036257620      -79.665014630980
 Iteration  8        0.000009249088      -79.665014922616
 
 CCSD iteration has converged in  8 steps.
     1534.57 MB memory was utilized by CCSD
 
 T1 diagnostic:      7.816E-03            D1 diagnostic:      1.353E-02
 
 T1 contribution [au]:                                  0.000000000000
 PPL energy contribution [au]:                          0.102911447259
 Scaled PPL energy contribution [au]:                   0.103270156888

 OS-PPL energy contribution [au]:                       0.089961249745
 Scaled OS-PPL energy contribution [au]:                0.090332332065
 SS-PPL energy contribution [au]:                       0.012950197514
 Scaled SS-PPL energy contribution [au]:                0.012962024242

 Opposite spin CCSD energy [au]:                       -0.334284074188
 Same spin CCSD energy [au]:                           -0.071199012462
 CCSD correlation energy [au]:                         -0.405483086649
 CCSD correlation energy + MP2 correction [au]:        -0.406770607870
 CCSD correlation energy + MP2 + PPL corr. [au]:       -0.406411898242
 Total CCSD energy [au]:                              -79.665033589862
 Total CCSD energy + MP2 correction [au]:             -79.666321111083
 Total CCSD energy + MP2 + PPL corr. [au]:            -79.665962401455
 
 CPU time [min]:     2.775                   Wall time [min]:     0.089
 
 Calculation of (T) correction...
 
 
      388.93 MB memory is utilized for (T)

 0%       25%       50%       75%       100%
 |---------|---------|---------|---------| 
 
 (T) correction [au]:                                    -0.013958893958
 (T*) correction [au]:                                   -0.014006948659
 (T+) correction [au]:                                   -0.014006366326
 CCSD(T) correlation energy [au]:                        -0.419441980607
 CCSD(T) correlation energy + MP2 correction [au]:       -0.420729501828
 CCSD(T+) correlation en. + MP2 + PPL corr. [au]:        -0.420418264568
 Total CCSD(T) energy [au]:                             -79.678992483820
 Total CCSD(T) energy + MP2 correction [au]:            -79.680280005041
 Total CCSD(T+) energy + MP2 + PPL corr. [au]:          -79.679968767781
 
 CPU time [min]:     3.476                   Wall time [min]:     0.111
 
 ************************ 2023-02-05 13:13:48 *************************
                      Normal termination of mrcc.
 **********************************************************************
