 vasp.6.3.0 20Jan22 (build Apr  1 2022 16:44:48) complex                         
 executed on        HPECrayEX_GCC date 2022.10.25  00:41:00
 running  512 mpi-ranks, with    1 threads/rank
 distrk:  each k-point on  512 cores,    1 groups
 distr:  one band on NCORE=   8 cores,   64 groups


--------------------------------------------------------------------------------------------------------


 INCAR:
   SYSTEM = MgO-rocksalt
   ISMEAR = 0
   SIGMA = 0.05
   EDIFF = 1E-6
   ALGO = ALL
   ISTART = 0
   IBRION = -1
   NSW = 0
   ISYM = 0
   DIPOL = 0.5 0.5 0.5
   IDIPOL = 3
   LDIPOL = .TRUE.
   GGA = RE
   AGGAC = 0.0
   LUSE_VDW = .TRUE.
   LASPH = .TRUE.
   ENCUT = 600
   PREC = Accurate
   LASPH = .TRUE.
   LREAL = .FALSE.
   ISPIN = 1
   NELM = 200
   NELMIN = 8
   NCORE = 8
   KPAR = 1
   LWAVE = .FALSE.
   LCHARG = .FALSE.

 POTCAR:    PAW_PBE C 08Apr2002                   
 POTCAR:    PAW_PBE H 15Jun2001                   
 POTCAR:    PAW_PBE Mg_pv 13Apr2007               
 POTCAR:    PAW_PBE O 08Apr2002                   
 -----------------------------------------------------------------------------
|                                                                             |
|               ----> ADVICE to this user running VASP <----                  |
|                                                                             |
|     You have switched on vdW-DFT.                                           |
|     This routine was written and supplied by Jiri Klimes. We recommend      |
|     that you carefully read and cite the following publications:            |
|       J. Klimes, D.R. Bowler, A. Michelides                                 |
|          J. Phys.: Cond Matt. 22 022201 (2010)                              |
|       J. Klimes, D.R. Bowler, A. Michelides                                 |
|          Phys. Rev. B. 83, 195131 (2011)                                    |
|     and references therein.                                                 |
|                                                                             |
 -----------------------------------------------------------------------------

 POTCAR:    PAW_PBE C 08Apr2002                   
   SHA256 =  253f7b50bb8d59471dbedb8285d89021f4a42ed1a2c5d38a03a736e69125dd95 C/POTCAR              
   COPYR  = (c) Copyright 08Apr2002 Georg Kresse                                                    
   COPYR  = This file is part of the software VASP. Any use, copying, and all other rights are regul
   COPYR  = If you do not have a valid VASP license, you may not use, copy or distribute this file. 
   VRHFIN =C: s2p2                                                                                  
   LEXCH  = PE                                                                                      
   EATOM  =   147.1560 eV,   10.8157 Ry                                                             
                                                                                                    
   TITEL  = PAW_PBE C 08Apr2002                                                                     
   LULTRA =        F    use ultrasoft PP ?                                                          
   IUNSCR =        1    unscreen: 0-lin 1-nonlin 2-no                                               
   RPACOR =    1.200    partial core radius                                                         
   POMASS =   12.011; ZVAL   =    4.000    mass and valenz                                          
   RCORE  =    1.500    outmost cutoff radius                                                       
   RWIGS  =    1.630; RWIGS  =    0.863    wigner-seitz radius (au A)                               
   ENMAX  =  400.000; ENMIN  =  300.000 eV                                                          
   ICORE  =        2    local potential                                                             
   LCOR   =        T    correct aug charges                                                         
   LPAW   =        T    paw PP                                                                      
   EAUG   =  644.873                                                                                
   DEXC   =    0.000                                                                                
   RMAX   =    1.529    core radius for proj-oper                                                   
   RAUG   =    1.300    factor for augmentation sphere                                              
   RDEP   =    1.501    radius for radial grids                                                     
   RDEPT  =    1.300    core radius for aug-charge                                                  
                                                                                                    
   Atomic configuration                                                                             
    4 entries                                                                                       
     n  l   j            E        occ.                                                              
     1  0  0.50      -273.3789   2.0000                                                             
     2  0  0.50       -13.7508   2.0000                                                             
     2  1  0.50        -5.2854   2.0000                                                             
     3  2  1.50        -5.4423   0.0000                                                             
   Description                                                                                      
     l       E           TYP  RCUT    TYP  RCUT                                                     
     0    -13.7508458     23  1.200                                                                 
     0     -8.2022199     23  1.200                                                                 
     1     -5.2854383     23  1.500                                                                 
     1     34.0145650     23  1.500                                                                 
     2     -5.4423304      7  1.500                                                                 
  local pseudopotential read in
  partial core-charges read in
  partial kinetic energy density read in
  atomic valenz-charges read in
  non local Contribution for L=           0  read in
    real space projection operators read in
  non local Contribution for L=           0  read in
    real space projection operators read in
  non local Contribution for L=           1  read in
    real space projection operators read in
  non local Contribution for L=           1  read in
    real space projection operators read in
    PAW grid and wavefunctions read in

   number of l-projection  operators is LMAX  =           4
   number of lm-projection operators is LMMAX =           8

 POTCAR:    PAW_PBE H 15Jun2001                   
   SHA256 =  030f79b5d3ab3cf0e668861823c8fb652ff669f3e15e46930bd03bfd63a607b6 H/POTCAR              
   COPYR  = (c) Copyright 15Jun2001 Georg Kresse                                                    
   COPYR  = This file is part of the software VASP. Any use, copying, and all other rights are regul
   COPYR  = If you do not have a valid VASP license, you may not use, copy or distribute this file. 
   VRHFIN =H: ultrasoft test                                                                        
   LEXCH  = PE                                                                                      
   EATOM  =    12.4884 eV,    0.9179 Ry                                                             
                                                                                                    
   TITEL  = PAW_PBE H 15Jun2001                                                                     
   LULTRA =        F    use ultrasoft PP ?                                                          
   IUNSCR =        0    unscreen: 0-lin 1-nonlin 2-no                                               
   RPACOR =    0.000    partial core radius                                                         
   POMASS =    1.000; ZVAL   =    1.000    mass and valenz                                          
   RCORE  =    1.100    outmost cutoff radius                                                       
   RWIGS  =    0.700; RWIGS  =    0.370    wigner-seitz radius (au A)                               
   ENMAX  =  250.000; ENMIN  =  200.000 eV                                                          
   RCLOC  =    0.701    cutoff for local pot                                                        
   LCOR   =        T    correct aug charges                                                         
   LPAW   =        T    paw PP                                                                      
   EAUG   =  400.000                                                                                
   RMAX   =    1.123    core radius for proj-oper                                                   
   RAUG   =    1.200    factor for augmentation sphere                                              
   RDEP   =    1.112    radius for radial grids                                                     
   RDEPT  =    0.926    core radius for aug-charge                                                  
                                                                                                    
   Atomic configuration                                                                             
    2 entries                                                                                       
     n  l   j            E        occ.                                                              
     1  0  0.50        -6.4927   1.0000                                                             
     2  1  0.50        -3.4015   0.0000                                                             
   Description                                                                                      
     l       E           TYP  RCUT    TYP  RCUT                                                     
     0     -6.4927494     23  1.100                                                                 
     0      6.8029130     23  1.100                                                                 
     1     -4.0817478     23  1.100                                                                 
  local pseudopotential read in
  atomic valenz-charges read in
  non local Contribution for L=           0  read in
    real space projection operators read in
  non local Contribution for L=           0  read in
    real space projection operators read in
  non local Contribution for L=           1  read in
    real space projection operators read in
    PAW grid and wavefunctions read in

   number of l-projection  operators is LMAX  =           3
   number of lm-projection operators is LMMAX =           5

 POTCAR:    PAW_PBE Mg_pv 13Apr2007               
   SHA256 =  f474ac0dd33840b9ae76c01d57fea79fdf77cdfbb07d5ade72c65f83c709b62b Mg_pv/POTCAR          
   COPYR  = (c) Copyright 13Apr2007 Georg Kresse                                                    
   COPYR  = This file is part of the software VASP. Any use, copying, and all other rights are regul
   COPYR  = If you do not have a valid VASP license, you may not use, copy or distribute this file. 
   VRHFIN =Mg: p6s2                                                                                 
   LEXCH  = PE                                                                                      
   EATOM  =  1056.7344 eV,   77.6678 Ry                                                             
                                                                                                    
   TITEL  = PAW_PBE Mg_pv 13Apr2007                                                                 
   LULTRA =        F    use ultrasoft PP ?                                                          
   IUNSCR =        1    unscreen: 0-lin 1-nonlin 2-no                                               
   RPACOR =    1.500    partial core radius                                                         
   POMASS =   24.305; ZVAL   =    8.000    mass and valenz                                          
   RCORE  =    2.000    outmost cutoff radius                                                       
   RWIGS  =    2.000; RWIGS  =    1.058    wigner-seitz radius (au A)                               
   ENMAX  =  403.929; ENMIN  =  302.947 eV                                                          
   RCLOC  =    1.506    cutoff for local pot                                                        
   LCOR   =        T    correct aug charges                                                         
   LPAW   =        T    paw PP                                                                      
   EAUG   =  758.780                                                                                
   DEXC   =    0.000                                                                                
   RMAX   =    2.045    core radius for proj-oper                                                   
   RAUG   =    1.300    factor for augmentation sphere                                              
   RDEP   =    2.025    radius for radial grids                                                     
   RDEPT  =    1.557    core radius for aug-charge                                                  
                                                                                                    
   Atomic configuration                                                                             
    5 entries                                                                                       
     n  l   j            E        occ.                                                              
     1  0  0.50     -1259.6230   2.0000                                                             
     2  0  0.50       -79.8442   2.0000                                                             
     2  1  1.50       -46.6121   6.0000                                                             
     3  0  0.50        -4.7055   2.0000                                                             
     3  2  1.50        -1.3606   0.0000                                                             
   Description                                                                                      
     l       E           TYP  RCUT    TYP  RCUT                                                     
     1    -46.6121073     23  1.600                                                                 
     1      2.7211652     23  1.600                                                                 
     0     -4.7054661     23  2.000                                                                 
     0     61.2262170     23  2.000                                                                 
     2     -1.3605826     23  2.000                                                                 
  local pseudopotential read in
  partial core-charges read in
  partial kinetic energy density read in
  atomic valenz-charges read in
  non local Contribution for L=           1  read in
    real space projection operators read in
  non local Contribution for L=           1  read in
    real space projection operators read in
  non local Contribution for L=           0  read in
    real space projection operators read in
  non local Contribution for L=           0  read in
    real space projection operators read in
  non local Contribution for L=           2  read in
    real space projection operators read in
    PAW grid and wavefunctions read in

   number of l-projection  operators is LMAX  =           5
   number of lm-projection operators is LMMAX =          13

 POTCAR:    PAW_PBE O 08Apr2002                   
   SHA256 =  818f92134a0a090dccd8ba1447fa70422a3b330e708bb4f08108d8ae51209ddf O/POTCAR              
   COPYR  = (c) Copyright 08Apr2002 Georg Kresse                                                    
   COPYR  = This file is part of the software VASP. Any use, copying, and all other rights are regul
   COPYR  = If you do not have a valid VASP license, you may not use, copy or distribute this file. 
   VRHFIN =O: s2p4                                                                                  
   LEXCH  = PE                                                                                      
   EATOM  =   432.3788 eV,   31.7789 Ry                                                             
                                                                                                    
   TITEL  = PAW_PBE O 08Apr2002                                                                     
   LULTRA =        F    use ultrasoft PP ?                                                          
   IUNSCR =        1    unscreen: 0-lin 1-nonlin 2-no                                               
   RPACOR =    1.200    partial core radius                                                         
   POMASS =   16.000; ZVAL   =    6.000    mass and valenz                                          
   RCORE  =    1.520    outmost cutoff radius                                                       
   RWIGS  =    1.550; RWIGS  =    0.820    wigner-seitz radius (au A)                               
   ENMAX  =  400.000; ENMIN  =  300.000 eV                                                          
   ICORE  =        2    local potential                                                             
   LCOR   =        T    correct aug charges                                                         
   LPAW   =        T    paw PP                                                                      
   EAUG   =  605.392                                                                                
   DEXC   =    0.000                                                                                
   RMAX   =    1.553    core radius for proj-oper                                                   
   RAUG   =    1.300    factor for augmentation sphere                                              
   RDEP   =    1.550    radius for radial grids                                                     
   RDEPT  =    1.329    core radius for aug-charge                                                  
                                                                                                    
   Atomic configuration                                                                             
    4 entries                                                                                       
     n  l   j            E        occ.                                                              
     1  0  0.50      -514.6923   2.0000                                                             
     2  0  0.50       -23.9615   2.0000                                                             
     2  1  0.50        -9.0305   4.0000                                                             
     3  2  1.50        -9.5241   0.0000                                                             
   Description                                                                                      
     l       E           TYP  RCUT    TYP  RCUT                                                     
     0    -23.9615318     23  1.200                                                                 
     0     -9.5240782     23  1.200                                                                 
     1     -9.0304911     23  1.520                                                                 
     1      8.1634956     23  1.520                                                                 
     2     -9.5240782      7  1.500                                                                 
  local pseudopotential read in
  partial core-charges read in
  partial kinetic energy density read in
  kinetic energy density of atom read in
  atomic valenz-charges read in
  non local Contribution for L=           0  read in
    real space projection operators read in
  non local Contribution for L=           0  read in
    real space projection operators read in
  non local Contribution for L=           1  read in
    real space projection operators read in
  non local Contribution for L=           1  read in
    real space projection operators read in
    PAW grid and wavefunctions read in

   number of l-projection  operators is LMAX  =           4
   number of lm-projection operators is LMMAX =           8

 -----------------------------------------------------------------------------
|                                                                             |
|               ----> ADVICE to this user running VASP <----                  |
|                                                                             |
|     You have a (more or less) 'large supercell' and for larger cells it     |
|     might be more efficient to use real-space projection operators.         |
|     Therefore, try LREAL= Auto in the INCAR file.                           |
|     Mind: For very accurate calculation, you might also keep the            |
|     reciprocal projection scheme (i.e. LREAL=.FALSE.).                      |
|                                                                             |
 -----------------------------------------------------------------------------

 -----------------------------------------------------------------------------
|                                                                             |
|               ----> ADVICE to this user running VASP <----                  |
|                                                                             |
|     You enforced a specific xc type in the INCAR file but a different       |
|     type was found in the POTCAR file.                                      |
|     I HOPE YOU KNOW WHAT YOU ARE DOING!                                     |
|                                                                             |
 -----------------------------------------------------------------------------

  PAW_PBE C 08Apr2002                   :
 energy of atom  1       EATOM= -147.1560
 kinetic energy error for atom=    0.0057 (will be added to EATOM!!)
  PAW_PBE H 15Jun2001                   :
 energy of atom  2       EATOM=  -12.4884
 kinetic energy error for atom=    0.0004 (will be added to EATOM!!)
  PAW_PBE Mg_pv 13Apr2007               :
 energy of atom  3       EATOM=-1056.7344
 kinetic energy error for atom=    0.0221 (will be added to EATOM!!)
  PAW_PBE O 08Apr2002                   :
 energy of atom  4       EATOM= -432.3788
 kinetic energy error for atom=    0.0168 (will be added to EATOM!!)


 POSCAR:  C  H Mg  O
  positions in direct lattice
  No initial velocities read in
 exchange correlation table for  LEXCH =       40
   RHO(1)=    0.500       N(1)  =     2000
   RHO(2)=  100.500       N(2)  =     4000



--------------------------------------------------------------------------------------------------------


 ion  position               nearest neighbor table
   1  0.506  0.498  0.794-   5 1.09   4 1.09   3 1.09   2 1.53
   2  0.676  0.499  0.819-   6 1.09   7 1.09   8 1.09   1 1.53
   3  0.486  0.392  0.765-   1 1.09
   4  0.483  0.604  0.765-   1 1.09
   5  0.418  0.496  0.831-   1 1.09
   6  0.761  0.501  0.781-   2 1.09
   7  0.700  0.394  0.848-   2 1.09
   8  0.697  0.604  0.849-   2 1.09
   9  0.250  0.000  0.352-  43 2.10  44 2.10  51 2.10  60 2.10  41 2.10
  10  0.500  0.250  0.352-  43 2.10  44 2.10  52 2.10  59 2.10  42 2.10
  11  0.250  0.250  0.451-  41 2.10  42 2.10  49 2.10  58 2.10  43 2.10  47 2.11
  12  0.500  0.000  0.451-  41 2.10  42 2.10  50 2.10  57 2.10  44 2.10  48 2.11
  13  0.250  1.000  0.550-  55 2.10  47 2.10  48 2.10  64 2.10  41 2.11  45 2.13
  14  0.500  0.250  0.550-  56 2.10  47 2.10  63 2.10  48 2.10  42 2.11  46 2.13
  15  0.250  0.250  0.648-  47 2.09  62 2.10  53 2.10  45 2.10  46 2.10
  16  0.500  1.000  0.648-  48 2.09  46 2.10  54 2.10  45 2.10  61 2.10
  17  0.250  0.500  0.352-  43 2.10  51 2.10  52 2.10  68 2.10  49 2.10
  18  0.500  0.750  0.352-  44 2.10  51 2.10  52 2.10  67 2.10  50 2.10
  19  0.250  0.750  0.451-  41 2.10  49 2.10  50 2.10  66 2.10  51 2.10  55 2.11
  20  0.500  0.500  0.451-  42 2.10  49 2.10  50 2.10  65 2.10  52 2.10  56 2.11
  21  0.250  0.500  0.550-  56 2.10  47 2.10  55 2.10  72 2.10  49 2.11  53 2.12
  22  0.500  0.750  0.550-  56 2.10  55 2.10  71 2.10  48 2.10  50 2.11  54 2.13
  23  0.250  0.750  0.648-  55 2.09  70 2.10  53 2.10  45 2.10  54 2.10
  24  0.500  0.500  0.649-  53 2.10  54 2.10  46 2.10  69 2.11  56 2.11
  25  0.750  0.000  0.352-  44 2.10  59 2.10  60 2.10  67 2.10  57 2.10
  26  0.000  0.250  0.352-  43 2.10  59 2.10  60 2.10  68 2.10  58 2.10
  27  0.750  0.250  0.451-  42 2.10  57 2.10  58 2.10  65 2.10  59 2.10  63 2.11
  28  0.000  0.000  0.451-  41 2.10  57 2.10  58 2.10  66 2.10  60 2.10  64 2.11
  29  0.750  1.000  0.550-  48 2.10  71 2.10  63 2.10  64 2.10  57 2.11  61 2.13
  30  1.000  0.250  0.550-  72 2.10  63 2.10  47 2.10  64 2.10  58 2.11  62 2.13
  31  0.750  0.250  0.648-  63 2.09  62 2.10  61 2.10  69 2.10  46 2.10
  32  1.000  1.000  0.648-  64 2.09  45 2.10  70 2.10  62 2.10  61 2.10
  33  0.750  0.500  0.352-  52 2.10  59 2.10  67 2.10  68 2.10  65 2.10
  34  0.000  0.750  0.352-  51 2.10  60 2.10  67 2.10  68 2.10  66 2.10
  35  0.750  0.750  0.451-  50 2.10  57 2.10  65 2.10  66 2.10  67 2.10  71 2.11
  36  0.000  0.500  0.451-  49 2.10  58 2.10  65 2.10  66 2.10  68 2.10  72 2.11
  37  0.750  0.500  0.550-  56 2.10  71 2.10  63 2.10  72 2.10  65 2.11  69 2.13
  38  1.000  0.750  0.550-  72 2.10  71 2.10  55 2.10  64 2.10  66 2.11  70 2.13
  39  0.750  0.750  0.648-  71 2.09  70 2.10  61 2.10  69 2.10  54 2.10
  40  0.000  0.500  0.648-  72 2.09  53 2.10  69 2.10  62 2.10  70 2.10
  41  0.250  0.000  0.451-  11 2.10  12 2.10  19 2.10  28 2.10   9 2.10  13 2.11
  42  0.500  0.250  0.451-  11 2.10  12 2.10  20 2.10  27 2.10  10 2.10  14 2.11
  43  0.250  0.250  0.352-   9 2.10  10 2.10  17 2.10  26 2.10  11 2.10
  44  0.500  0.000  0.352-   9 2.10  10 2.10  18 2.10  25 2.10  12 2.10
  45  0.250  1.000  0.650-  32 2.10  15 2.10  23 2.10  16 2.10  13 2.13
  46  0.500  0.250  0.650-  16 2.10  31 2.10  15 2.10  24 2.10  14 2.13
  47  0.250  0.250  0.550-  15 2.09  13 2.10  14 2.10  30 2.10  21 2.10  11 2.11
  48  0.500  1.000  0.550-  16 2.09  29 2.10  13 2.10  22 2.10  14 2.10  12 2.11
  49  0.250  0.500  0.451-  11 2.10  19 2.10  20 2.10  36 2.10  17 2.10  21 2.11
  50  0.500  0.750  0.451-  12 2.10  19 2.10  20 2.10  35 2.10  18 2.10  22 2.11
  51  0.250  0.750  0.352-   9 2.10  17 2.10  18 2.10  34 2.10  19 2.10
  52  0.500  0.500  0.352-  10 2.10  17 2.10  18 2.10  33 2.10  20 2.10
  53  0.250  0.500  0.650-  40 2.10  15 2.10  23 2.10  24 2.10  21 2.12
  54  0.500  0.750  0.650-  16 2.10  39 2.10  24 2.10  23 2.10  22 2.13
  55  0.250  0.750  0.550-  23 2.09  13 2.10  22 2.10  38 2.10  21 2.10  19 2.11
  56  0.500  0.500  0.550-  37 2.10  22 2.10  14 2.10  21 2.10  24 2.11  20 2.11
  57  0.750  0.000  0.451-  12 2.10  27 2.10  28 2.10  35 2.10  25 2.10  29 2.11
  58  0.000  0.250  0.451-  11 2.10  27 2.10  28 2.10  36 2.10  26 2.10  30 2.11
  59  0.750  0.250  0.352-  10 2.10  25 2.10  26 2.10  33 2.10  27 2.10
  60  0.000  0.000  0.352-   9 2.10  25 2.10  26 2.10  34 2.10  28 2.10
  61  0.750  1.000  0.650-  31 2.10  39 2.10  32 2.10  16 2.10  29 2.13
  62  1.000  0.250  0.650-  15 2.10  31 2.10  32 2.10  40 2.10  30 2.13
  63  0.750  0.250  0.550-  31 2.09  29 2.10  14 2.10  30 2.10  37 2.10  27 2.11
  64  1.000  1.000  0.550-  32 2.09  30 2.10  38 2.10  29 2.10  13 2.10  28 2.11
  65  0.750  0.500  0.451-  20 2.10  27 2.10  35 2.10  36 2.10  33 2.10  37 2.11
  66  0.000  0.750  0.451-  19 2.10  28 2.10  35 2.10  36 2.10  34 2.10  38 2.11
  67  0.750  0.750  0.352-  18 2.10  25 2.10  33 2.10  34 2.10  35 2.10
  68  0.000  0.500  0.352-  17 2.10  26 2.10  33 2.10  34 2.10  36 2.10
  69  0.750  0.500  0.650-  40 2.10  39 2.10  31 2.10  24 2.11  37 2.13
  70  1.000  0.750  0.650-  23 2.10  39 2.10  32 2.10  40 2.10  38 2.13
  71  0.750  0.750  0.550-  39 2.09  29 2.10  22 2.10  38 2.10  37 2.10  35 2.11
  72  1.000  0.500  0.549-  40 2.09  38 2.10  30 2.10  37 2.10  21 2.10  36 2.11


IMPORTANT INFORMATION: All symmetrisations will be switched off!
NOSYMM: (Re-)initialisation of all symmetry stuff for point group C_1.


----------------------------------------------------------------------------------------

                                     Primitive cell                                     

  volume of cell :    1504.9259

  direct lattice vectors                    reciprocal lattice vectors
     8.404861995  0.000000000  0.000000000     0.118978753  0.000000000  0.000000000
     0.000000000  8.404861995  0.000000000     0.000000000  0.118978753  0.000000000
     0.000000000  0.000000000 21.303646496     0.000000000  0.000000000  0.046940321

  length of vectors
     8.404861995  8.404861995 21.303646496     0.118978753  0.118978753  0.046940321

  position of ions in fractional coordinates (direct lattice)
     0.506033056  0.497657771  0.793724639
     0.675995816  0.499336962  0.819391971
     0.485808316  0.392316636  0.764649389
     0.482988764  0.603749604  0.765411095
     0.417960215  0.495620477  0.831415485
     0.761474374  0.500952850  0.780807888
     0.699574885  0.394192081  0.848045069
     0.697025130  0.604124080  0.848553631
     0.250000000  0.000000000  0.352052406
     0.500000000  0.250000000  0.352052406
     0.250000000  0.250000000  0.450684135
     0.500000000  0.000000000  0.450684135
     0.249988551  0.999973557  0.549801888
     0.499945928  0.250159205  0.549915381
     0.249703366  0.249969230  0.647634472
     0.499891150  0.999951978  0.647704672
     0.250000000  0.500000000  0.352052406
     0.500000000  0.750000000  0.352052406
     0.250000000  0.750000000  0.450684135
     0.500000000  0.500000000  0.450684135
     0.250144256  0.499974938  0.549890876
     0.499944840  0.749785289  0.549915873
     0.249704909  0.749948419  0.647637507
     0.499691815  0.499965301  0.648605873
     0.750000000  0.000000000  0.352052406
     0.000000000  0.250000000  0.352052406
     0.750000000  0.250000000  0.450684135
     0.000000000  0.000000000  0.450684135
     0.749916197  0.999971624  0.549811524
     0.999948569  0.249996484  0.549783941
     0.750081856  0.249877651  0.647655787
     0.999936033  0.999958284  0.647750327
     0.750000000  0.500000000  0.352052406
     0.000000000  0.750000000  0.352052406
     0.750000000  0.750000000  0.450684135
     0.000000000  0.500000000  0.450684135
     0.749750428  0.499976582  0.549933064
     0.999945466  0.749951560  0.549786349
     0.750067721  0.750037951  0.647666494
     0.000115406  0.499957392  0.647601214
     0.250000000  0.000000000  0.450684135
     0.500000000  0.250000000  0.450684135
     0.250000000  0.250000000  0.352052406
     0.500000000  0.000000000  0.352052406
     0.249857271  0.999961397  0.649809432
     0.499902563  0.249700756  0.649943171
     0.249960359  0.249898658  0.549536859
     0.499969456  0.999969297  0.549562060
     0.250000000  0.500000000  0.450684135
     0.500000000  0.750000000  0.450684135
     0.250000000  0.750000000  0.352052406
     0.500000000  0.500000000  0.352052406
     0.249629061  0.499958562  0.649599599
     0.499892269  0.750197032  0.649957344
     0.249959895  0.750052018  0.549538676
     0.500005239  0.499976189  0.549725035
     0.750000000  0.000000000  0.450684135
     0.000000000  0.250000000  0.450684135
     0.750000000  0.250000000  0.352052406
     0.000000000  0.000000000  0.352052406
     0.749973059  0.999960825  0.649820337
     0.999894548  0.249923451  0.649777804
     0.749937136  0.249946631  0.549570217
     0.999938969  0.999974263  0.549543976
     0.750000000  0.500000000  0.450684135
     0.000000000  0.750000000  0.450684135
     0.750000000  0.750000000  0.352052406
     0.000000000  0.500000000  0.352052406
     0.750181984  0.499958908  0.649895632
     0.999892901  0.749996542  0.649782748
     0.749933275  0.750003836  0.549573492
     0.999892105  0.499976937  0.549498595

  ion indices of the primitive-cell ions
   primitive index   ion index
                 1           1
                 2           2
                 3           3
                 4           4
                 5           5
                 6           6
                 7           7
                 8           8
                 9           9
                10          10
                11          11
                12          12
                13          13
                14          14
                15          15
                16          16
                17          17
                18          18
                19          19
                20          20
                21          21
                22          22
                23          23
                24          24
                25          25
                26          26
                27          27
                28          28
                29          29
                30          30
                31          31
                32          32
                33          33
                34          34
                35          35
                36          36
                37          37
                38          38
                39          39
                40          40
                41          41
                42          42
                43          43
                44          44
                45          45
                46          46
                47          47
                48          48
                49          49
                50          50
                51          51
                52          52
                53          53
                54          54
                55          55
                56          56
                57          57
                58          58
                59          59
                60          60
                61          61
                62          62
                63          63
                64          64
                65          65
                66          66
                67          67
                68          68
                69          69
                70          70
                71          71
                72          72

----------------------------------------------------------------------------------------



 KPOINTS: pymatgen v2020.8.13 with grid density = 

Automatic generation of k-mesh.
 Grid dimensions read from file:
 generate k-points for:    2    2    1

 Generating k-lattice:

  Cartesian coordinates                     Fractional coordinates (reciprocal lattice)
     0.059489377  0.000000000  0.000000000     0.500000000  0.000000000  0.000000000
     0.000000000  0.059489377  0.000000000     0.000000000  0.500000000  0.000000000
     0.000000000  0.000000000  0.046940321     0.000000000  0.000000000  1.000000000

  Length of vectors
     0.059489377  0.059489377  0.046940321

  Shift w.r.t. Gamma in fractional coordinates (k-lattice)
     0.000000000  0.000000000  0.000000000

 
 Subroutine IBZKPT returns following result:
 ===========================================
 
 Found      4 irreducible k-points:
 
 Following reciprocal coordinates:
            Coordinates               Weight
  0.000000  0.000000  0.000000      1.000000
  0.500000  0.000000  0.000000      1.000000
  0.000000  0.500000  0.000000      1.000000
  0.500000  0.500000  0.000000      1.000000
 
 Following cartesian coordinates:
            Coordinates               Weight
  0.000000  0.000000  0.000000      1.000000
  0.059489  0.000000  0.000000      1.000000
  0.000000  0.059489  0.000000      1.000000
  0.059489  0.059489  0.000000      1.000000
 


--------------------------------------------------------------------------------------------------------




 Dimension of arrays:
   k-points           NKPTS =      4   k-points in BZ     NKDIM =      4   number of bands    NBANDS=    320
   number of dos      NEDOS =    301   number of ions     NIONS =     72
   non local maximal  LDIM  =      5   non local SUM 2l+1 LMDIM =     13
   total plane-waves  NPLWV = 882000
   max r-space proj   IRMAX =      1   max aug-charges    IRDMAX=  11749
   dimension x,y,z NGX =    70 NGY =   70 NGZ =  180
   dimension x,y,z NGXF=   140 NGYF=  140 NGZF=  360
   support grid    NGXF=   140 NGYF=  140 NGZF=  360
   ions per type =               2   6  32  32
   NGX,Y,Z   is equivalent  to a cutoff of  13.85, 13.85, 14.05 a.u.
   NGXF,Y,Z  is equivalent  to a cutoff of  27.69, 27.69, 28.09 a.u.

 SYSTEM =  MgO-rocksalt                            
 POSCAR =   C  H Mg  O                             

--------------------------------------------------------------------------------------------------------


  energy-cutoff  :      600.00
  volume of cell :     1504.93
      direct lattice vectors                 reciprocal lattice vectors
     8.404861995  0.000000000  0.000000000     0.118978753  0.000000000  0.000000000
     0.000000000  8.404861995  0.000000000     0.000000000  0.118978753  0.000000000
     0.000000000  0.000000000 21.303646496     0.000000000  0.000000000  0.046940321

  length of vectors
     8.404861995  8.404861995 21.303646496     0.118978753  0.118978753  0.046940321



 k-points in units of 2pi/SCALE and weight: pymatgen v2020.8.13 with grid density = 
   0.00000000  0.00000000  0.00000000       0.250
   0.05948938  0.00000000  0.00000000       0.250
   0.00000000  0.05948938  0.00000000       0.250
   0.05948938  0.05948938  0.00000000       0.250

 k-points in reciprocal lattice and weights: pymatgen v2020.8.13 with grid density = 
   0.00000000  0.00000000  0.00000000       0.250
   0.50000000  0.00000000  0.00000000       0.250
   0.00000000  0.50000000  0.00000000       0.250
   0.50000000  0.50000000  0.00000000       0.250

 position of ions in fractional coordinates (direct lattice) 
   0.50603306  0.49765777  0.79372464
   0.67599582  0.49933696  0.81939197
   0.48580832  0.39231664  0.76464939
   0.48298876  0.60374960  0.76541109
   0.41796021  0.49562048  0.83141549
   0.76147437  0.50095285  0.78080789
   0.69957488  0.39419208  0.84804507
   0.69702513  0.60412408  0.84855363
   0.25000000  0.00000000  0.35205241
   0.50000000  0.25000000  0.35205241
   0.25000000  0.25000000  0.45068414
   0.50000000  0.00000000  0.45068414
   0.24998855  0.99997356  0.54980189
   0.49994593  0.25015921  0.54991538
   0.24970337  0.24996923  0.64763447
   0.49989115  0.99995198  0.64770467
   0.25000000  0.50000000  0.35205241
   0.50000000  0.75000000  0.35205241
   0.25000000  0.75000000  0.45068414
   0.50000000  0.50000000  0.45068414
   0.25014426  0.49997494  0.54989088
   0.49994484  0.74978529  0.54991587
   0.24970491  0.74994842  0.64763751
   0.49969181  0.49996530  0.64860587
   0.75000000  0.00000000  0.35205241
   0.00000000  0.25000000  0.35205241
   0.75000000  0.25000000  0.45068414
   0.00000000  0.00000000  0.45068414
   0.74991620  0.99997162  0.54981152
   0.99994857  0.24999648  0.54978394
   0.75008186  0.24987765  0.64765579
   0.99993603  0.99995828  0.64775033
   0.75000000  0.50000000  0.35205241
   0.00000000  0.75000000  0.35205241
   0.75000000  0.75000000  0.45068414
   0.00000000  0.50000000  0.45068414
   0.74975043  0.49997658  0.54993306
   0.99994547  0.74995156  0.54978635
   0.75006772  0.75003795  0.64766649
   0.00011541  0.49995739  0.64760121
   0.25000000  0.00000000  0.45068414
   0.50000000  0.25000000  0.45068414
   0.25000000  0.25000000  0.35205241
   0.50000000  0.00000000  0.35205241
   0.24985727  0.99996140  0.64980943
   0.49990256  0.24970076  0.64994317
   0.24996036  0.24989866  0.54953686
   0.49996946  0.99996930  0.54956206
   0.25000000  0.50000000  0.45068414
   0.50000000  0.75000000  0.45068414
   0.25000000  0.75000000  0.35205241
   0.50000000  0.50000000  0.35205241
   0.24962906  0.49995856  0.64959960
   0.49989227  0.75019703  0.64995734
   0.24995989  0.75005202  0.54953868
   0.50000524  0.49997619  0.54972504
   0.75000000  0.00000000  0.45068414
   0.00000000  0.25000000  0.45068414
   0.75000000  0.25000000  0.35205241
   0.00000000  0.00000000  0.35205241
   0.74997306  0.99996083  0.64982034
   0.99989455  0.24992345  0.64977780
   0.74993714  0.24994663  0.54957022
   0.99993897  0.99997426  0.54954398
   0.75000000  0.50000000  0.45068414
   0.00000000  0.75000000  0.45068414
   0.75000000  0.75000000  0.35205241
   0.00000000  0.50000000  0.35205241
   0.75018198  0.49995891  0.64989563
   0.99989290  0.74999654  0.64978275
   0.74993327  0.75000384  0.54957349
   0.99989211  0.49997694  0.54949860

 position of ions in cartesian coordinates  (Angst):
   4.25313800  4.18274488 16.90922913
   5.68165154  4.19685825 17.45603690
   4.08315185  3.29736718 16.28982027
   4.05945390  5.07443210 16.30604739
   3.51289792  4.16562171 17.71218159
   6.40008703  4.21043957 16.63405522
   5.87983036  3.31313004 18.06645236
   5.85840002  5.07757952 18.07728658
   2.10121550  0.00000000  7.50000000
   4.20243100  2.10121550  7.50000000
   2.10121550  2.10121550  9.60121550
   4.20243100  0.00000000  9.60121550
   2.10111927  8.40463974 11.71278506
   4.20197653  2.10255360 11.71520289
   2.09872233  2.10095688 13.79697585
   4.20151613  8.40445838 13.79847137
   2.10121550  4.20243100  7.50000000
   4.20243100  6.30364650  7.50000000
   2.10121550  6.30364650  9.60121550
   4.20243100  4.20243100  9.60121550
   2.10242795  4.20222035 11.71468084
   4.20196739  6.30184188 11.71521335
   2.09873530  6.30321296 13.79704051
   4.19984074  4.20213935 13.81767023
   6.30364650  0.00000000  7.50000000
   0.00000000  2.10121550  7.50000000
   6.30364650  2.10121550  9.60121550
   0.00000000  0.00000000  9.60121550
   6.30294214  8.40462350 11.71299034
   8.40442973  2.10118595 11.71240273
   6.30433449  2.10018717 13.79742994
   8.40432436  8.40451138 13.79944399
   6.30364650  4.20243100  7.50000000
   0.00000000  6.30364650  7.50000000
   6.30364650  6.30364650  9.60121550
   0.00000000  4.20243100  9.60121550
   6.30154888  4.20223417 11.71557959
   8.40440364  6.30323936 11.71245402
   6.30421568  6.30396547 13.79765803
   0.00096998  4.20207288 13.79626732
   2.10121550  0.00000000  9.60121550
   4.20243100  2.10121550  9.60121550
   2.10121550  2.10121550  7.50000000
   4.20243100  0.00000000  7.50000000
   2.10001588  8.40453755 13.84331042
   4.20161206  2.09870039 13.84615955
   2.10088232  2.10036374 11.70713898
   4.20217428  8.40460394 11.70767585
   2.10121550  4.20243100  9.60121550
   4.20243100  6.30364650  9.60121550
   2.10121550  6.30364650  7.50000000
   4.20243100  4.20243100  7.50000000
   2.09809781  4.20208271 13.83884022
   4.20152553  6.30530252 13.84646150
   2.10087842  6.30408370 11.70717769
   4.20247503  4.20223087 11.71114782
   6.30364650  0.00000000  9.60121550
   0.00000000  2.10121550  9.60121550
   6.30364650  2.10121550  7.50000000
   0.00000000  0.00000000  7.50000000
   6.30342006  8.40453274 13.84354275
   8.40397568  2.10057211 13.84263664
   6.30311814  2.10076694 11.70784964
   8.40434904  8.40464568 11.70729060
   6.30364650  4.20243100  9.60121550
   0.00000000  6.30364650  9.60121550
   6.30364650  6.30364650  7.50000000
   0.00000000  4.20243100  7.50000000
   6.30517604  4.20208562 13.84514681
   8.40396184  6.30361743 13.84274196
   6.30308568  6.30367874 11.70791940
   8.40395515  4.20223716 11.70632382



--------------------------------------------------------------------------------------------------------

--------------------------------------- Iteration      FINAL  ---------------------------------------


--------------------OUTCAR has been truncated-------------------------


--------------------OUTCAR has been truncated-------------------------


--------------------OUTCAR has been truncated-------------------------


--------------------OUTCAR has been truncated-------------------------


--------------------OUTCAR has been truncated-------------------------


--------------------OUTCAR has been truncated-------------------------


--------------------OUTCAR has been truncated-------------------------


--------------------OUTCAR has been truncated-------------------------


--------------------OUTCAR has been truncated-------------------------


--------------------OUTCAR has been truncated-------------------------


  FORCE on cell =-STRESS in cart. coord.  units (eV):
  Direction    XX          YY          ZZ          XY          YZ          ZX
  --------------------------------------------------------------------------------------
  Alpha Z   928.64058   928.64058   928.64058
  Ewald  158224.33184158071.26264************     1.22914     0.29738    50.65125
  Hartree168475.63409168355.05972************     0.93322     0.27050    38.20743
  E(xc)   -2574.92679 -2574.56098 -2577.54568    -0.00319    -0.00003    -0.12392
  Local  ************************336275.10095    -2.22731    -0.60460   -90.96300
  n-local -2837.88319 -2838.99660 -2858.32472     0.01036    -0.00371     0.43938
  augment  1077.43071  1077.35611  1068.54643     0.00081    -0.00025     0.02587
  Kinetic  7526.10564  7520.90759  7555.66985     0.05753     0.07132     1.93093
  Fock        0.00000     0.00000     0.00000     0.00000     0.00000     0.00000
  -------------------------------------------------------------------------------------
  Total      -0.00375    -0.19482    21.04156     0.00056     0.03061     0.16794
  in kB      -0.00400    -0.20741    22.40131     0.00059     0.03259     0.17880
  external pressure =        7.40 kB  Pullay stress =        0.00 kB


 VOLUME and BASIS-vectors are now :
 -----------------------------------------------------------------------------
  energy-cutoff  :      600.00
  volume of cell :     1504.93
      direct lattice vectors                 reciprocal lattice vectors
     8.404861995  0.000000000  0.000000000     0.118978753  0.000000000  0.000000000
     0.000000000  8.404861995  0.000000000     0.000000000  0.118978753  0.000000000
     0.000000000  0.000000000 21.303646496     0.000000000  0.000000000  0.046940321

  length of vectors
     8.404861995  8.404861995 21.303646496     0.118978753  0.118978753  0.046940321


 FORCES acting on ions:
    Electron-Ion                     Ewald-Force                    Non-Local-Force
 -----------------------------------------------------------------------------------------------
   0.690E+02 0.697E+00 -.919E+03   -.688E+02 -.714E+00 0.919E+03   -.258E+00 0.160E-01 -.222E+00
   -.690E+02 -.689E+00 -.861E+03   0.691E+02 0.695E+00 0.861E+03   -.105E+00 -.466E-02 0.218E+00
   0.172E+02 0.469E+02 -.232E+03   -.182E+02 -.517E+02 0.229E+03   0.925E+00 0.469E+01 0.316E+01
   0.185E+02 -.470E+02 -.232E+03   -.196E+02 0.519E+02 0.229E+03   0.105E+01 -.472E+01 0.307E+01
   0.467E+02 0.990E+00 -.235E+03   -.507E+02 -.108E+01 0.239E+03   0.391E+01 0.903E-01 -.419E+01
   -.460E+02 -.807E+00 -.210E+03   0.500E+02 0.881E+00 0.206E+03   -.380E+01 -.708E-01 0.436E+01
   -.186E+02 0.465E+02 -.213E+03   0.197E+02 -.513E+02 0.216E+03   -.108E+01 0.462E+01 -.321E+01
   -.175E+02 -.465E+02 -.213E+03   0.185E+02 0.512E+02 0.216E+03   -.969E+00 -.461E+01 -.327E+01
   0.122E+00 0.324E-02 0.210E+04   -.121E+00 -.331E-02 -.210E+04   -.602E-03 0.466E-04 -.649E+01
   0.820E-01 0.225E+00 0.210E+04   -.819E-01 -.223E+00 -.210E+04   -.129E-03 -.151E-02 -.649E+01
   0.489E+00 0.776E+00 0.733E+03   -.479E+00 -.772E+00 -.734E+03   -.675E-02 -.201E-02 0.427E+00
   0.246E+00 0.104E-01 0.733E+03   -.249E+00 -.117E-01 -.734E+03   0.169E-02 0.888E-03 0.423E+00
   0.254E+01 0.495E-01 -.633E+03   -.253E+01 -.496E-01 0.633E+03   -.163E-01 0.172E-03 -.214E+00
   0.153E+01 0.549E+01 -.625E+03   -.152E+01 -.544E+01 0.625E+03   -.226E-02 -.461E-01 -.274E+00
   0.165E+02 0.190E+02 -.199E+04   -.166E+02 -.190E+02 0.198E+04   0.564E-01 -.108E-01 0.561E+01
   0.453E+01 0.307E+00 -.199E+04   -.454E+01 -.304E+00 0.199E+04   0.103E-01 -.232E-02 0.557E+01
   0.135E+00 -.341E-02 0.210E+04   -.133E+00 0.336E-02 -.210E+04   -.141E-02 0.371E-04 -.649E+01
   0.819E-01 -.226E+00 0.210E+04   -.817E-01 0.223E+00 -.210E+04   -.133E-03 0.160E-02 -.649E+01
   0.489E+00 -.780E+00 0.733E+03   -.480E+00 0.775E+00 -.734E+03   -.671E-02 0.329E-02 0.428E+00
   0.312E+00 -.153E-01 0.735E+03   -.307E+00 0.143E-01 -.735E+03   -.426E-02 0.586E-03 0.466E+00
   0.412E+01 -.529E-01 -.624E+03   -.408E+01 0.531E-01 0.625E+03   -.495E-01 -.187E-03 -.396E+00
   0.152E+01 -.549E+01 -.625E+03   -.152E+01 0.544E+01 0.625E+03   -.250E-02 0.462E-01 -.267E+00
   0.163E+02 -.190E+02 -.199E+04   -.163E+02 0.190E+02 0.198E+04   0.541E-01 0.108E-01 0.561E+01
   0.115E+02 -.467E+00 -.192E+04   -.115E+02 0.475E+00 0.192E+04   0.484E-01 -.724E-02 0.571E+01
   -.122E+00 0.335E-02 0.210E+04   0.121E+00 -.342E-02 -.210E+04   0.741E-03 0.528E-04 -.649E+01
   -.823E-01 0.212E+00 0.210E+04   0.819E-01 -.211E+00 -.210E+04   0.237E-03 -.654E-03 -.649E+01
   -.498E+00 0.844E+00 0.734E+03   0.484E+00 -.832E+00 -.734E+03   0.956E-02 -.838E-02 0.439E+00
   -.254E+00 0.118E-01 0.732E+03   0.253E+00 -.129E-01 -.733E+03   0.656E-03 0.767E-03 0.433E+00
   -.256E+01 0.545E-01 -.631E+03   0.254E+01 -.549E-01 0.631E+03   0.173E-01 0.651E-03 -.213E+00
   -.151E+01 0.388E+01 -.630E+03   0.151E+01 -.387E+01 0.631E+03   0.234E-02 -.128E-01 -.214E+00
   -.167E+02 0.258E+02 -.197E+04   0.168E+02 -.258E+02 0.197E+04   -.523E-01 0.705E-02 0.562E+01
   -.447E+01 0.116E+00 -.201E+04   0.448E+01 -.117E+00 0.200E+04   -.104E-01 0.207E-03 0.558E+01
   -.136E+00 -.351E-02 0.210E+04   0.134E+00 0.347E-02 -.210E+04   0.157E-02 0.291E-04 -.650E+01
   -.822E-01 -.212E+00 0.210E+04   0.818E-01 0.211E+00 -.210E+04   0.244E-03 0.727E-03 -.649E+01
   -.499E+00 -.848E+00 0.734E+03   0.485E+00 0.835E+00 -.734E+03   0.966E-02 0.967E-02 0.440E+00
   -.321E+00 -.156E-01 0.734E+03   0.311E+00 0.147E-01 -.734E+03   0.708E-02 0.537E-03 0.398E+00
   -.415E+01 -.580E-01 -.621E+03   0.410E+01 0.587E-01 0.622E+03   0.522E-01 -.673E-03 -.338E+00
   -.150E+01 -.389E+01 -.630E+03   0.150E+01 0.387E+01 0.631E+03   0.248E-02 0.130E-01 -.214E+00
   -.165E+02 -.257E+02 -.197E+04   0.165E+02 0.257E+02 0.197E+04   -.501E-01 -.640E-02 0.561E+01
   -.108E+02 -.130E+00 -.198E+04   0.108E+02 0.130E+00 0.198E+04   -.590E-01 -.818E-04 0.560E+01
   0.347E+00 0.780E-02 0.549E+03   -.341E+00 -.648E-02 -.549E+03   -.818E-02 -.178E-02 -.612E-01
   0.199E+00 0.700E+00 0.550E+03   -.197E+00 -.706E+00 -.550E+03   -.262E-02 0.828E-02 -.830E-01
   0.961E-01 0.160E+00 0.158E+04   -.945E-01 -.159E+00 -.158E+04   -.238E-02 -.168E-02 0.354E+01
   0.586E-01 0.255E-02 0.158E+04   -.587E-01 -.252E-02 -.158E+04   0.194E-04 -.431E-04 0.354E+01
   0.703E+01 0.143E+00 -.152E+04   -.700E+01 -.144E+00 0.153E+04   -.314E-01 0.950E-03 -.504E+01
   0.587E+01 0.254E+02 -.149E+04   -.587E+01 -.253E+02 0.150E+04   0.562E-02 -.702E-01 -.508E+01
   0.242E+01 0.318E+01 -.466E+03   -.241E+01 -.316E+01 0.465E+03   -.894E-02 -.194E-01 0.322E+00
   0.915E+00 0.485E-01 -.466E+03   -.918E+00 -.478E-01 0.466E+03   0.269E-02 -.681E-03 0.310E+00
   0.437E+00 -.125E-01 0.550E+03   -.445E+00 0.137E-01 -.550E+03   0.112E-01 -.157E-02 -.785E-01
   0.198E+00 -.704E+00 0.550E+03   -.196E+00 0.714E+00 -.550E+03   -.268E-02 -.121E-01 -.832E-01
   0.962E-01 -.160E+00 0.158E+04   -.945E-01 0.159E+00 -.158E+04   -.239E-02 0.158E-02 0.354E+01
   0.652E-01 -.244E-02 0.158E+04   -.644E-01 0.250E-02 -.158E+04   -.123E-02 -.855E-04 0.354E+01
   0.203E+02 -.171E+00 -.150E+04   -.203E+02 0.170E+00 0.150E+04   -.795E-01 0.569E-03 -.509E+01
   0.583E+01 -.252E+02 -.149E+04   -.583E+01 0.252E+02 0.150E+04   0.558E-02 0.671E-01 -.507E+01
   0.240E+01 -.317E+01 -.466E+03   -.240E+01 0.315E+01 0.465E+03   -.788E-02 0.206E-01 0.322E+00
   0.137E+01 -.444E-01 -.460E+03   -.137E+01 0.427E-01 0.460E+03   -.216E-02 0.190E-02 0.899E-01
   -.356E+00 0.832E-02 0.549E+03   0.354E+00 -.686E-02 -.549E+03   0.203E-02 -.194E-02 -.584E-01
   -.208E+00 0.608E+00 0.549E+03   0.211E+00 -.600E+00 -.549E+03   -.457E-02 -.115E-01 -.537E-01
   -.959E-01 0.166E+00 0.158E+04   0.944E-01 -.164E+00 -.158E+04   0.213E-02 -.293E-02 0.354E+01
   -.585E-01 0.260E-02 0.158E+04   0.586E-01 -.258E-02 -.158E+04   -.213E-03 -.429E-04 0.354E+01
   -.708E+01 0.164E+00 -.152E+04   0.705E+01 -.165E+00 0.152E+04   0.299E-01 0.961E-03 -.503E+01
   -.570E+01 0.112E+02 -.152E+04   0.569E+01 -.112E+02 0.152E+04   0.826E-02 -.214E-01 -.504E+01
   -.243E+01 0.365E+01 -.463E+03   0.242E+01 -.363E+01 0.463E+03   0.901E-02 -.212E-01 0.328E+00
   -.907E+00 0.345E-01 -.470E+03   0.910E+00 -.348E-01 0.470E+03   -.261E-02 0.452E-03 0.288E+00
   -.446E+00 -.130E-01 0.550E+03   0.460E+00 0.141E-01 -.550E+03   -.182E-01 -.143E-02 -.935E-01
   -.207E+00 -.613E+00 0.549E+03   0.211E+00 0.608E+00 -.549E+03   -.490E-02 0.808E-02 -.540E-01
   -.960E-01 -.166E+00 0.158E+04   0.945E-01 0.164E+00 -.158E+04   0.213E-02 0.282E-02 0.354E+01
   -.650E-01 -.249E-02 0.158E+04   0.643E-01 0.255E-02 -.158E+04   0.100E-02 -.777E-04 0.354E+01
   -.209E+02 -.205E+00 -.148E+04   0.208E+02 0.204E+00 0.148E+04   0.450E-01 0.123E-02 -.512E+01
   -.568E+01 -.112E+02 -.152E+04   0.567E+01 0.111E+02 0.152E+04   0.952E-02 0.237E-01 -.504E+01
   -.241E+01 -.365E+01 -.464E+03   0.240E+01 0.363E+01 0.463E+03   0.809E-02 0.224E-01 0.326E+00
   -.134E+01 -.294E-01 -.464E+03   0.134E+01 0.285E-01 0.464E+03   0.204E-02 0.937E-03 0.310E+00
 -----------------------------------------------------------------------------------------------
   0.343E+00 -.103E-01 0.162E+02   -.114E-12 0.142E-12 -.591E-11   -.346E+00 0.906E-02 -.162E+02


 POSITION                                       TOTAL-FORCE (eV/Angst)
 -----------------------------------------------------------------------------------
      4.25314      4.18274     16.90923        -0.049695     -0.001396      0.028444
      5.68165      4.19686     17.45604         0.058927      0.001573      0.029865
      4.08315      3.29737     16.28982        -0.055039     -0.144255     -0.057702
      4.05945      5.07443     16.30605        -0.058198      0.146218     -0.059195
      3.51290      4.16562     17.71218        -0.148857     -0.001734      0.127441
      6.40009      4.21044     16.63406         0.159751      0.003199     -0.091280
      5.87983      3.31313     18.06645         0.055829     -0.148989      0.107982
      5.85840      5.07758     18.07729         0.052014      0.147679      0.110133
      2.10122      0.00000      7.50000         0.000276     -0.000006      0.083648
      4.20243      2.10122      7.50000         0.000059      0.000538      0.084252
      2.10122      2.10122      9.60122         0.002652      0.001276      0.031621
      4.20243      0.00000      9.60122        -0.000715     -0.000419      0.037042
      2.10112      8.40464     11.71279         0.001999      0.000131      0.005508
      4.20198      2.10255     11.71520         0.001086     -0.001807      0.010586
      2.09872      2.10096     13.79698        -0.000093     -0.003120      0.281906
      4.20152      8.40446     13.79847        -0.000891      0.000274      0.287488
      2.10122      4.20243      7.50000         0.000529      0.000007      0.083952
      4.20243      6.30365      7.50000         0.000054     -0.000533      0.084265
      2.10122      6.30365      9.60122         0.002598     -0.001915      0.031672
      4.20243      4.20243      9.60122         0.001391     -0.000323      0.043189
      2.10243      4.20222     11.71468        -0.001752      0.000087      0.004970
      4.20197      6.30184     11.71521         0.001063      0.002002      0.010489
      2.09874      6.30321     13.79704        -0.000186      0.003413      0.282228
      4.19984      4.20214     13.81767         0.003480      0.000400      0.180140
      6.30365      0.00000      7.50000        -0.000268      0.000003      0.083272
      0.00000      2.10122      7.50000        -0.000112      0.000357      0.083252
      6.30365      2.10122      9.60122        -0.004055      0.003495      0.034080
      0.00000      0.00000      9.60122        -0.000425     -0.000369      0.028619
      6.30294      8.40462     11.71299        -0.002077      0.000176      0.003806
      8.40443      2.10119     11.71240        -0.000958      0.002082      0.004869
      6.30433      2.10019     13.79743         0.000098     -0.000464      0.271452
      8.40432      8.40451     13.79944         0.000800      0.000130      0.291427
      6.30365      4.20243      7.50000        -0.000532      0.000006      0.084843
      0.00000      6.30365      7.50000        -0.000110     -0.000357      0.083249
      6.30365      6.30365      9.60122        -0.004097     -0.004129      0.034127
      0.00000      4.20243      9.60122        -0.002630     -0.000277      0.036042
      6.30155      4.20223     11.71558         0.001441      0.000057      0.013635
      8.40440      6.30324     11.71245        -0.000934     -0.001781      0.004943
      6.30422      6.30397     13.79766         0.000193      0.000702      0.271830
      0.00097      4.20207     13.79627        -0.003336      0.000308      0.282264
      2.10122      0.00000      9.60122        -0.002129     -0.000437      0.060542
      4.20243      2.10122      9.60122        -0.000477      0.001982      0.066901
      2.10122      2.10122      7.50000        -0.000661     -0.000463     -0.621353
      4.20243      0.00000      7.50000         0.000030      0.000006     -0.621358
      2.10002      8.40454     13.84331        -0.001411      0.000158      0.167687
      4.20161      2.09870     13.84616         0.002577     -0.012783      0.133300
      2.10088      2.10036     11.70714        -0.002114     -0.000441     -0.016082
      4.20217      8.40460     11.70768        -0.000265     -0.000008     -0.017951
      2.10122      4.20243      9.60122         0.003006     -0.000365      0.065660
      4.20243      6.30365      9.60122        -0.000491     -0.002905      0.066872
      2.10122      6.30365      7.50000        -0.000664      0.000465     -0.621343
      4.20243      4.20243      7.50000        -0.000324     -0.000012     -0.622207
      2.09810      4.20208     13.83884        -0.003694      0.000069      0.163095
      4.20153      6.30530     13.84646         0.002865      0.012310      0.135970
      2.10088      6.30408     11.70718        -0.001986      0.000666     -0.016044
      4.20248      4.20223     11.71115        -0.003337      0.000155     -0.010165
      6.30365      0.00000      9.60122         0.000672     -0.000466      0.062665
      0.00000      2.10122      9.60122        -0.001285     -0.003250      0.060952
      6.30365      2.10122      7.50000         0.000649     -0.000821     -0.621389
      0.00000      0.00000      7.50000        -0.000024     -0.000003     -0.620667
      6.30342      8.40453     13.84354         0.001404      0.000164      0.172091
      8.40398      2.10057     13.84264        -0.000104     -0.000776      0.171171
      6.30312      2.10077     11.70785         0.002248     -0.003442     -0.018565
      8.40435      8.40465     11.70729         0.000007      0.000107     -0.012707
      6.30365      4.20243      9.60122        -0.004710     -0.000341      0.065648
      0.00000      6.30365      9.60122        -0.001357      0.002438      0.061132
      6.30365      6.30365      7.50000         0.000655      0.000818     -0.621400
      0.00000      4.20243      7.50000         0.000316     -0.000001     -0.621401
      6.30518      4.20209     13.84515        -0.003431      0.000095      0.124383
      8.40396      6.30362     13.84274        -0.000104      0.001110      0.170928
      6.30309      6.30368     11.70792         0.002166      0.003674     -0.018475
      8.40396      4.20224     11.70632         0.002692      0.000062     -0.018247
 -----------------------------------------------------------------------------------
    total drift:                               -0.002657     -0.001277     -0.001489


--------------------------------------------------------------------------------------------------------



  FREE ENERGIE OF THE ION-ELECTRON SYSTEM (eV)
  ---------------------------------------------------
  free  energy   TOTEN  =      -264.95192199 eV

  energy  without entropy=     -264.95192199  energy(sigma->0) =     -264.95192199



--------------------------------------------------------------------------------------------------------


    POTLOK:  cpu time      2.2817: real time      2.2818


--------------------------------------------------------------------------------------------------------


     LOOP+:  cpu time    161.0589: real time    161.3105
    4ORBIT:  cpu time      0.0000: real time      0.0000

 total amount of memory used by VASP MPI-rank0    67232. kBytes
=======================================================================

   base      :      30000. kBytes
   nonl-proj :      17842. kBytes
   fftplans  :       4923. kBytes
   grid      :       8190. kBytes
   one-center:         73. kBytes
   wavefun   :       6204. kBytes

  
  
 General timing and accounting informations for this job:
 ========================================================
  
                  Total CPU time used (sec):      194.753
                            User time (sec):      192.549
                          System time (sec):        2.204
                         Elapsed time (sec):      205.264
  
                   Maximum memory used (kb):      272088.
                   Average memory used (kb):          N/A
  
                          Minor page faults:        62174
                          Major page faults:           52
                 Voluntary context switches:        12732
