 **********************************************************************
                          MRCC program system
 **********************************************************************
 
                              Written by
     Mihaly Kallay, Peter R. Nagy, David Mester, Laszlo Gyevi-Nagy,
        Jozsef Csoka, P. Bernat Szabo, Zoltan Rolik, Gyula Samu,
     Jozsef Csontos, Bence Hegely, Adam Ganyecz, Istvan Ladjanszki,
       Lorant Szegedy, Bence Ladoczki, Klara Petrov, Mate Farkas,
                    Pal D. Mezei, and Reka A. Horvath
 
        Department of Physical Chemistry and Materials Science
            Budapest University of Technology and Economics
                  Budapest P.O.Box 91, H-1521 Hungary
 
                              www.mrcc.hu
 
                      Release date: March 18, 2022

 ************************ 2023-02-05 13:28:58 *************************
 Executing minp...

 Reading input from MINP...
 
 Input file:
 
calc=FNO-CCSD(T)
verbosity=3
mem=220GB
unit=angs
scfiguess=small
scfalg=locfit1
ccmaxit=400
ccsdalg=dfdirect
ccsdthreads=4
ccsdmkl=thr
ptthreads=4
lnoepsv=1e-5
naf_cor=1e-2
basis=aug-cc-pVTZ
basis_sm=def2-SVP
dfbasis_scf=def2-QZVPP-RI-JK
dfbasis_cor=aug-cc-pVTZ-RI
unit=angs
geom=xyz
16

C    34.41670262    34.07107264    10.41543014
C    33.11117461    33.45680459    10.91530835
H    34.24160149    35.00442132     9.86225048
H    34.94674030    33.36940783     9.75379242
H    35.10002891    34.30603621    11.24227357
H    32.42643037    33.26105434    10.07939442
H    32.59136835    34.12756100    11.61262818
H    33.28915165    32.50678735    11.43686767
C    28.86048160    36.18152134    10.40840413
C    30.16019719    35.56768136    10.92356358
H    28.33519739    35.47732643     9.74574003
H    29.04252993    37.11247849     9.85293887
H    28.16943746    36.42212532    11.22701403
H    30.85410596    35.37102181    10.09557036
H    29.97595347    34.61815933    11.44395536
H    30.67229494    36.23927251    11.62583355

--------------------Output has been truncated-------------------------


--------------------Output has been truncated-------------------------


--------------------Output has been truncated-------------------------


--------------------Output has been truncated-------------------------


--------------------Output has been truncated-------------------------


--------------------Output has been truncated-------------------------


--------------------Output has been truncated-------------------------


--------------------Output has been truncated-------------------------


--------------------Output has been truncated-------------------------


--------------------Output has been truncated-------------------------


 
 Reference energy [au]:                      -158.517424106812
 DF-MP2 singlet pair energy [au]:              -0.602093693851
 DF-MP2 triplet pair energy [au]:              -0.151242647662
 DF-SCS-MP2 correlation energy [au]:           -0.772926648508
 DF-SCS-MP2 energy [au]:                     -159.290350755320
 DF-SOS-MP2 correlation energy [au]:           -0.782721802006
 DF-SOS-MP2 energy [au]:                     -159.300145908818
 DF-MP2 correlation energy [au]:               -0.753336341512
 DF-MP2 energy [au]:                         -159.270760448325

 Results in FNO basis:
 
 
 Reference energy [au]:                      -158.517424106812
 DF-MP2 singlet pair energy [au]:              -0.599820183261
 DF-MP2 triplet pair energy [au]:              -0.151021938069
 DF-SCS-MP2 correlation energy [au]:           -0.770124865936
 DF-SCS-MP2 energy [au]:                     -159.287548972748
 DF-SOS-MP2 correlation energy [au]:           -0.779766238239
 DF-SOS-MP2 energy [au]:                     -159.297190345051
 DF-MP2 correlation energy [au]:               -0.750842121330
 DF-MP2 energy [au]:                         -159.268266228142

 Results in NAF basis:
 
 
 Reference energy [au]:                      -158.517424106812
 DF-MP2 singlet pair energy [au]:              -0.599700281658
 DF-MP2 triplet pair energy [au]:              -0.151100495071
 DF-SCS-MP2 correlation energy [au]:           -0.770007169679
 DF-SCS-MP2 energy [au]:                     -159.287431276492
 DF-SOS-MP2 correlation energy [au]:           -0.779610366155
 DF-SOS-MP2 energy [au]:                     -159.297034472967
 DF-MP2 correlation energy [au]:               -0.750800776728
 DF-MP2 energy [au]:                         -159.268224883541

 ************************ 2023-02-05 13:29:51 *************************
 Executing ccsd...

 Allocation of 220.0 Gbytes of memory...

 Direct DF-CCSD(T) calculation
 
 Convergence criterion:  1.0E-06
 
 Number of occupied/virtual/auxiliary orbitals:    14   284   767
   3641.22 MB is the minimal memory requirement for (T)
    821.10 MB is the minimal memory requirement for CCSD
 
 Reference energy [au]:            -158.517424106812
 T1 contribution [au]:                0.000000000000
 Same spin MP2 energy [au]:          -0.151061095552
 Opposite spin MP2 energy [au]:      -0.599759883404
 MP2 correlation energy [au]:        -0.750820978956
 Total MP2 energy [au]:            -159.268245085768
 MP2 correction [au]:                -0.002515362556
 
 
 CPU time [min]:     0.913                   Wall time [min]:     0.119
 
 Starting CCSD iterations...
 
                     Residual norm          Energy
 Iteration  1        0.236164652374     -159.309800258601
 Iteration  2        0.058281844408     -159.328857782806
 Iteration  3        0.015677667596     -159.330846257072
 Iteration  4        0.003521990673     -159.330843327351
 Iteration  5        0.000795863359     -159.330853263143
 Iteration  6        0.000234822209     -159.330858684031
 Iteration  7        0.000055126549     -159.330858599148
 Iteration  8        0.000015501299     -159.330859080990
 Iteration  9        0.000004220883     -159.330859092665
 
 CCSD iteration has converged in  9 steps.
    25734.28 MB memory was utilized by CCSD
 
 T1 diagnostic:      7.917E-03            D1 diagnostic:      1.398E-02
 
 T1 contribution [au]:                                  0.000000000000
 PPL energy contribution [au]:                          0.206189628065
 Scaled PPL energy contribution [au]:                   0.206888599714

 OS-PPL energy contribution [au]:                       0.180161048109
 Scaled OS-PPL energy contribution [au]:                0.180881360274
 SS-PPL energy contribution [au]:                       0.026028579956
 Scaled SS-PPL energy contribution [au]:                0.026053530866

 Opposite spin CCSD energy [au]:                       -0.669891545938
 Same spin CCSD energy [au]:                           -0.143579882514
 CCSD correlation energy [au]:                         -0.813471428452
 CCSD correlation energy + MP2 correction [au]:        -0.815986791008
 CCSD correlation energy + MP2 + PPL corr. [au]:       -0.815287819360
 Total CCSD energy [au]:                             -159.330895535264
 Total CCSD energy + MP2 correction [au]:            -159.333410897821
 Total CCSD energy + MP2 + PPL corr. [au]:           -159.332711926172
 
 CPU time [min]:    56.875                   Wall time [min]:     1.885
 
 Calculation of (T) correction...
 
 
     4710.74 MB memory is utilized for (T)

 0%       25%       50%       75%       100%
 |---------|---------|---------|---------| 
 
 (T) correction [au]:                                    -0.028306088168
 (T*) correction [au]:                                   -0.028400917796
 (T+) correction [au]:                                   -0.028399895624
 CCSD(T) correlation energy [au]:                        -0.841777516620
 CCSD(T) correlation energy + MP2 correction [au]:       -0.844292879176
 CCSD(T+) correlation en. + MP2 + PPL corr. [au]:        -0.843687714984
 Total CCSD(T) energy [au]:                            -159.359201623432
 Total CCSD(T) energy + MP2 correction [au]:           -159.361716985989
 Total CCSD(T+) energy + MP2 + PPL corr. [au]:         -159.361111821796
 
 CPU time [min]:   118.735                   Wall time [min]:     3.746
 
 ************************ 2023-02-05 13:33:36 *************************
                      Normal termination of mrcc.
 **********************************************************************
