 **********************************************************************
                          MRCC program system
 **********************************************************************
 
                              Written by
     Mihaly Kallay, Peter R. Nagy, David Mester, Laszlo Gyevi-Nagy,
        Jozsef Csoka, P. Bernat Szabo, Zoltan Rolik, Gyula Samu,
     Jozsef Csontos, Bence Hegely, Adam Ganyecz, Istvan Ladjanszki,
       Lorant Szegedy, Bence Ladoczki, Klara Petrov, Mate Farkas,
                    Pal D. Mezei, and Reka A. Horvath
 
        Department of Physical Chemistry and Materials Science
            Budapest University of Technology and Economics
                  Budapest P.O.Box 91, H-1521 Hungary
 
                              www.mrcc.hu
 
                      Release date: March 18, 2022

 ************************ 2024-08-27 07:13:31 *************************
 Executing minp...

 Reading input from MINP...
 
 Input file:
 
calc=LNO-CCSD(T)
scftype=rhf
verbosity=3
mem=1400GB
symm=off
unit=angs
scfiguess=small
scfmaxit=1000
scfalg=locfit1


lcorthr=tight
bpedo=0.99999
ccmaxit=400
usedisk=0
ccsdalg=dfdirect
ccsdthreads=4
ccsdmkl=thr
ptthreads=4

charge=0
core=3

basis=special
aug-cc-pVTZ
aug-cc-pVTZ
aug-cc-pVTZ
aug-cc-pVTZ
bse_CVTZ
bse_CVTZ
bse_CVTZ
bse_CVTZ
bse_CVTZ
aug-cc-pVTZ
aug-cc-pVTZ
aug-cc-pVTZ
aug-cc-pVTZ
aug-cc-pVTZ
aug-cc-pVTZ
aug-cc-pVTZ
aug-cc-pVTZ
aug-cc-pVTZ
aug-cc-pVTZ
aug-cc-pVTZ
aug-cc-pVTZ
aug-cc-pVTZ

basis_sm=special
def2-SVP
def2-SVP
def2-SVP
def2-SVP
def2-SVP
def2-SVP
def2-SVP
def2-SVP
def2-SVP
def2-SVP
def2-SVP
def2-SVP
def2-SVP
def2-SVP
def2-SVP
def2-SVP
def2-SVP
def2-SVP
def2-SVP
def2-SVP
def2-SVP
def2-SVP

dfbasis_scf=special
def2-QZVPP-RI-JK
def2-QZVPP-RI-JK
def2-QZVPP-RI-JK
def2-QZVPP-RI-JK
def2-QZVPP-RI-JK
def2-QZVPP-RI-JK
def2-QZVPP-RI-JK
def2-QZVPP-RI-JK
def2-QZVPP-RI-JK
def2-QZVPP-RI-JK
def2-QZVPP-RI-JK
def2-QZVPP-RI-JK
def2-QZVPP-RI-JK
def2-QZVPP-RI-JK
def2-QZVPP-RI-JK
def2-QZVPP-RI-JK
def2-QZVPP-RI-JK
def2-QZVPP-RI-JK
def2-QZVPP-RI-JK
def2-QZVPP-RI-JK
def2-QZVPP-RI-JK
def2-QZVPP-RI-JK

dfbasis_cor=special
aug-cc-pVTZ-RI
aug-cc-pVTZ-RI
aug-cc-pVTZ-RI
aug-cc-pVTZ-RI
bse_CVTZ_mp2fit
bse_CVTZ_mp2fit
bse_CVTZ_mp2fit
bse_CVTZ_mp2fit
bse_CVTZ_mp2fit
aug-cc-pVTZ-RI
aug-cc-pVTZ-RI
aug-cc-pVTZ-RI
aug-cc-pVTZ-RI
aug-cc-pVTZ-RI
aug-cc-pVTZ-RI
aug-cc-pVTZ-RI
aug-cc-pVTZ-RI
aug-cc-pVTZ-RI
aug-cc-pVTZ-RI
aug-cc-pVTZ-RI
aug-cc-pVTZ-RI
aug-cc-pVTZ-RI

ecp=special
none
none
none
none
none
none
none
none
none
none
none
none
none
none
none
none
none
none
none
none
none
none

unit=angs
geom=xyz
22
C1 O2 Mg5 O14 ECP49
C    -0.00000013802    0.00001712073    1.38460825816
O    -0.00000021671    1.15357540214    1.87518050294
O    -0.00000003699   -1.15359235923    1.87518573717
O     0.00000000000    0.00000000000   -0.07957731380
Mg    0.00000011981    2.20676481653    0.00000000000
Mg    0.00000011639   -2.20676599877   -0.00000261543
Mg    2.22330811820   -0.00000032101   -0.23567948182
Mg   -2.22330750521   -0.00000032742   -0.23568102440
Mg    0.00000038198   -0.00000052998   -2.34612295632
O    -2.12783319003    2.09773054006   -0.18566019924
O     2.12783363060    2.09773032299   -0.18566007535
O     2.12783277690   -2.09773114427   -0.18565982124
O    -2.12783227299   -2.09773132024   -0.18565993753
O     0.00000021828    2.09199317570   -2.27848967309
O     0.00000019397   -2.09199425125   -2.27848932825
O     2.09114975294   -0.00000081251   -2.29734710102
O    -2.09114929933   -0.00000081165   -2.29734779676
O     0.00000024113    4.22029213560   -0.14252876485
O     0.00000024113   -4.22029252803   -0.14252876485
O     4.22029266485   -0.00000124925   -0.19743592451
O    -4.22029199878   -0.00000124925   -0.19743592451
O     0.00000022118   -0.00000076368   -4.41824844657

ghost=serialno
4-22

 
 
 Checking keyword combinations...
 
 Keywords:
 
 active=none
--------------------Output has been truncated-------------------------


--------------------Output has been truncated-------------------------


--------------------Output has been truncated-------------------------


--------------------Output has been truncated-------------------------


--------------------Output has been truncated-------------------------


--------------------Output has been truncated-------------------------


--------------------Output has been truncated-------------------------


--------------------Output has been truncated-------------------------


--------------------Output has been truncated-------------------------


--------------------Output has been truncated-------------------------


 
 Final local CC results:
 
 Minimum number of correlated electrons:        16       (100.0%)
 Maximum number of correlated electrons:        16       (100.0%)
 Average number of correlated electrons:        16.0     (100.0%)
 Minimum number of correlated orbitals:         87       (  8.1%)
 Maximum number of correlated orbitals:        104       (  9.7%)
 Average number of correlated orbitals:         99.2     (  9.2%)
 
 CPU time for integral calculations [min]:                  7.042
 Wall time for integral calculations [min]:                 0.201
 
 CPU time for SCF calculation [min]:                       22.815
 Wall time for SCF calculation [min]:                       0.664
 
 CPU time for orbital localization [min]:                   0.151
 Wall time for orbital localization [min]:                  0.026
 
 CPU time for integral transformations [min]:             172.082
 Wall time for integral transformations [min]:              5.397
 
 Reference energy [au]:                                  -187.601127207128
 
 LMP2 correlation energy [au]:                             -0.652360498283
 Total LMP2 energy [au]:                                 -188.253487705411
 
 Total MP2 correction for dropped NAFs [au]:               -0.000008529664
 Total MP2 correction [au]:                                -0.000723944093
 
 CPU time for CCSD calculations [min]:                      6.407
 Total CPU time for CCSD [min]:                           208.497
 Wall time for CCSD calculations [min]:                     0.196
 Total wall time for CCSD [min]:                            6.483
 
 CCSD correlation energy [au]:                             -0.631382054200
 Total CCSD energy [au]:                                 -188.232509261328
 CCSD correlation energy + 0.5 MP2 corrections [au]:       -0.631744026247
 Total LNO-CCSD energy with MP2 corrections [au]:        -188.232871233375
 
 CPU time for (T) corrections [min]:                        3.980
 Total CPU time for CCSD(T) [min]:                        212.477
 Wall time for (T) corrections [min]:                       0.130
 Total wall time for CCSD(T) [min]:                         6.613
 
 Total (T) correlation energy contribution [au]:           -0.038042551058
 Total (T) correlation energy+0.5 MP2 correction [au]:     -0.038404523104
 CCSD(T) correlation energy [au]:                          -0.669424605258
 Total CCSD(T) energy [au]:                              -188.270551812386
 CCSD(T) correlation energy + MP2 corrections [au]:        -0.670148549351
 Total LNO-CCSD(T) energy with MP2 corrections [au]:     -188.271275756479
 
 ======================================================================
 ======================================================================
 
 ************************ 2024-08-27 07:20:29 *************************
                      Normal termination of mrcc.
 **********************************************************************
