 vasp.6.3.0 20Jan22 (build Mar 11 2022 13:48:16) complex                        
  
 executed on             LinuxIFC date 2023.12.26  17:24:31
 running on  304 total cores
 distrk:  each k-point on  304 cores,    1 groups
 distr:  one band on NCORE=   2 cores,  152 groups


--------------------------------------------------------------------------------------------------------


 INCAR:
   SYSTEM = MgO-rocksalt
   ISMEAR = 0
   SIGMA = 0.05
   EDIFF = 1E-5
   ALGO = ALL
   ISTART = 0
   IBRION = -1
   NSW = 0
   ISYM = 2
   ISIF = 2
   DIPOL = 0.5 0.5 0.5
   IDIPOL = 3
   LDIPOL = .TRUE.
   GGA = RE
   LUSE_VDW = .TRUE.
   AGGAC = 0.0
   ENCUT = 600
   PREC = Accurate
   LASPH = .TRUE.
   LREAL = .FALSE.
   ISPIN = 1
   NELM = 200
   NELMIN = 8
   NCORE = 2
   KPAR = 1
   LWAVE = .FALSE.
   LCHARG = .FALSE.

 POTCAR:    PAW_PBE C 08Apr2002                   
 POTCAR:    PAW_PBE O 08Apr2002                   
 POTCAR:    PAW_PBE Mg_pv 13Apr2007               
 POTCAR:    PAW_PBE O 08Apr2002                   
 -----------------------------------------------------------------------------
|                                                                             |
|           W    W    AA    RRRRR   N    N  II  N    N   GGGG   !!!           |
|           W    W   A  A   R    R  NN   N  II  NN   N  G    G  !!!           |
|           W    W  A    A  R    R  N N  N  II  N N  N  G       !!!           |
|           W WW W  AAAAAA  RRRRR   N  N N  II  N  N N  G  GGG   !            |
|           WW  WW  A    A  R   R   N   NN  II  N   NN  G    G                |
|           W    W  A    A  R    R  N    N  II  N    N   GGGG   !!!           |
|                                                                             |
|     For optimal performance we recommend to set                             |
|       NCORE = 2 up to number-of-cores-per-socket                            |
|     NCORE specifies how many cores store one orbital (NPAR=cpu/NCORE).      |
|     This setting can greatly improve the performance of VASP for DFT.       |
|     The default, NCORE=1 might be grossly inefficient on modern             |
|     multi-core architectures or massively parallel machines. Do your        |
|     own testing! More info at https://www.vasp.at/wiki/index.php/NCORE      |
|     Unfortunately you need to use the default for GW and RPA                |
|     calculations (for HF NCORE is supported but not extensively tested      |
|     yet).                                                                   |
|                                                                             |
 -----------------------------------------------------------------------------

 -----------------------------------------------------------------------------
|                                                                             |
|               ----> ADVICE to this user running VASP <----                  |
|                                                                             |
|     You have switched on vdW-DFT.                                           |
|     This routine was written and supplied by Jiri Klimes. We recommend      |
|     that you carefully read and cite the following publications:            |
|       J. Klimes, D.R. Bowler, A. Michelides                                 |
|          J. Phys.: Cond Matt. 22 022201 (2010)                              |
|       J. Klimes, D.R. Bowler, A. Michelides                                 |
|          Phys. Rev. B. 83, 195131 (2011)                                    |
|     and references therein.                                                 |
|                                                                             |
 -----------------------------------------------------------------------------

 POTCAR:    PAW_PBE C 08Apr2002                   
   SHA256 =  253f7b50bb8d59471dbedb8285d89021f4a42ed1a2c5d38a03a736e69125dd95 C/POTCAR              
   COPYR  = (c) Copyright 08Apr2002 Georg Kresse                                                    
   COPYR  = This file is part of the software VASP. Any use, copying, and all other rights are regul
   COPYR  = If you do not have a valid VASP license, you may not use, copy or distribute this file. 
   VRHFIN =C: s2p2                                                                                  
   LEXCH  = PE                                                                                      
   EATOM  =   147.1560 eV,   10.8157 Ry                                                             
                                                                                                    
   TITEL  = PAW_PBE C 08Apr2002                                                                     
   LULTRA =        F    use ultrasoft PP ?                                                          
   IUNSCR =        1    unscreen: 0-lin 1-nonlin 2-no                                               
   RPACOR =    1.200    partial core radius                                                         
   POMASS =   12.011; ZVAL   =    4.000    mass and valenz                                          
   RCORE  =    1.500    outmost cutoff radius                                                       
   RWIGS  =    1.630; RWIGS  =    0.863    wigner-seitz radius (au A)                               
   ENMAX  =  400.000; ENMIN  =  300.000 eV                                                          
   ICORE  =        2    local potential                                                             
   LCOR   =        T    correct aug charges                                                         
   LPAW   =        T    paw PP                                                                      
   EAUG   =  644.873                                                                                
   DEXC   =    0.000                                                                                
   RMAX   =    1.529    core radius for proj-oper                                                   
   RAUG   =    1.300    factor for augmentation sphere                                              
   RDEP   =    1.501    radius for radial grids                                                     
   RDEPT  =    1.300    core radius for aug-charge                                                  
                                                                                                    
   Atomic configuration                                                                             
    4 entries                                                                                       
     n  l   j            E        occ.                                                              
     1  0  0.50      -273.3789   2.0000                                                             
     2  0  0.50       -13.7508   2.0000                                                             
     2  1  0.50        -5.2854   2.0000                                                             
     3  2  1.50        -5.4423   0.0000                                                             
   Description                                                                                      
     l       E           TYP  RCUT    TYP  RCUT                                                     
     0    -13.7508458     23  1.200                                                                 
     0     -8.2022199     23  1.200                                                                 
     1     -5.2854383     23  1.500                                                                 
     1     34.0145650     23  1.500                                                                 
     2     -5.4423304      7  1.500                                                                 
  local pseudopotential read in
  partial core-charges read in
  partial kinetic energy density read in
  atomic valenz-charges read in
  non local Contribution for L=           0  read in
    real space projection operators read in
  non local Contribution for L=           0  read in
    real space projection operators read in
  non local Contribution for L=           1  read in
    real space projection operators read in
  non local Contribution for L=           1  read in
    real space projection operators read in
    PAW grid and wavefunctions read in
 
   number of l-projection  operators is LMAX  =           4
   number of lm-projection operators is LMMAX =           8
 
 POTCAR:    PAW_PBE O 08Apr2002                   
   SHA256 =  818f92134a0a090dccd8ba1447fa70422a3b330e708bb4f08108d8ae51209ddf O/POTCAR              
   COPYR  = (c) Copyright 08Apr2002 Georg Kresse                                                    
   COPYR  = This file is part of the software VASP. Any use, copying, and all other rights are regul
   COPYR  = If you do not have a valid VASP license, you may not use, copy or distribute this file. 
   VRHFIN =O: s2p4                                                                                  
   LEXCH  = PE                                                                                      
   EATOM  =   432.3788 eV,   31.7789 Ry                                                             
                                                                                                    
   TITEL  = PAW_PBE O 08Apr2002                                                                     
   LULTRA =        F    use ultrasoft PP ?                                                          
   IUNSCR =        1    unscreen: 0-lin 1-nonlin 2-no                                               
   RPACOR =    1.200    partial core radius                                                         
   POMASS =   16.000; ZVAL   =    6.000    mass and valenz                                          
   RCORE  =    1.520    outmost cutoff radius                                                       
   RWIGS  =    1.550; RWIGS  =    0.820    wigner-seitz radius (au A)                               
   ENMAX  =  400.000; ENMIN  =  300.000 eV                                                          
   ICORE  =        2    local potential                                                             
   LCOR   =        T    correct aug charges                                                         
   LPAW   =        T    paw PP                                                                      
   EAUG   =  605.392                                                                                
   DEXC   =    0.000                                                                                
   RMAX   =    1.553    core radius for proj-oper                                                   
   RAUG   =    1.300    factor for augmentation sphere                                              
   RDEP   =    1.550    radius for radial grids                                                     
   RDEPT  =    1.329    core radius for aug-charge                                                  
                                                                                                    
   Atomic configuration                                                                             
    4 entries                                                                                       
     n  l   j            E        occ.                                                              
     1  0  0.50      -514.6923   2.0000                                                             
     2  0  0.50       -23.9615   2.0000                                                             
     2  1  0.50        -9.0305   4.0000                                                             
     3  2  1.50        -9.5241   0.0000                                                             
   Description                                                                                      
     l       E           TYP  RCUT    TYP  RCUT                                                     
     0    -23.9615318     23  1.200                                                                 
     0     -9.5240782     23  1.200                                                                 
     1     -9.0304911     23  1.520                                                                 
     1      8.1634956     23  1.520                                                                 
     2     -9.5240782      7  1.500                                                                 
  local pseudopotential read in
  partial core-charges read in
  partial kinetic energy density read in
  kinetic energy density of atom read in
  atomic valenz-charges read in
  non local Contribution for L=           0  read in
    real space projection operators read in
  non local Contribution for L=           0  read in
    real space projection operators read in
  non local Contribution for L=           1  read in
    real space projection operators read in
  non local Contribution for L=           1  read in
    real space projection operators read in
    PAW grid and wavefunctions read in
 
   number of l-projection  operators is LMAX  =           4
   number of lm-projection operators is LMMAX =           8
 
 POTCAR:    PAW_PBE Mg_pv 13Apr2007               
   SHA256 =  f474ac0dd33840b9ae76c01d57fea79fdf77cdfbb07d5ade72c65f83c709b62b Mg_pv/POTCAR          
   COPYR  = (c) Copyright 13Apr2007 Georg Kresse                                                    
   COPYR  = This file is part of the software VASP. Any use, copying, and all other rights are regul
   COPYR  = If you do not have a valid VASP license, you may not use, copy or distribute this file. 
   VRHFIN =Mg: p6s2                                                                                 
   LEXCH  = PE                                                                                      
   EATOM  =  1056.7344 eV,   77.6678 Ry                                                             
                                                                                                    
   TITEL  = PAW_PBE Mg_pv 13Apr2007                                                                 
   LULTRA =        F    use ultrasoft PP ?                                                          
   IUNSCR =        1    unscreen: 0-lin 1-nonlin 2-no                                               
   RPACOR =    1.500    partial core radius                                                         
   POMASS =   24.305; ZVAL   =    8.000    mass and valenz                                          
   RCORE  =    2.000    outmost cutoff radius                                                       
   RWIGS  =    2.000; RWIGS  =    1.058    wigner-seitz radius (au A)                               
   ENMAX  =  403.929; ENMIN  =  302.947 eV                                                          
   RCLOC  =    1.506    cutoff for local pot                                                        
   LCOR   =        T    correct aug charges                                                         
   LPAW   =        T    paw PP                                                                      
   EAUG   =  758.780                                                                                
   DEXC   =    0.000                                                                                
   RMAX   =    2.045    core radius for proj-oper                                                   
   RAUG   =    1.300    factor for augmentation sphere                                              
   RDEP   =    2.025    radius for radial grids                                                     
   RDEPT  =    1.557    core radius for aug-charge                                                  
                                                                                                    
   Atomic configuration                                                                             
    5 entries                                                                                       
     n  l   j            E        occ.                                                              
     1  0  0.50     -1259.6230   2.0000                                                             
     2  0  0.50       -79.8442   2.0000                                                             
     2  1  1.50       -46.6121   6.0000                                                             
     3  0  0.50        -4.7055   2.0000                                                             
     3  2  1.50        -1.3606   0.0000                                                             
   Description                                                                                      
     l       E           TYP  RCUT    TYP  RCUT                                                     
     1    -46.6121073     23  1.600                                                                 
     1      2.7211652     23  1.600                                                                 
     0     -4.7054661     23  2.000                                                                 
     0     61.2262170     23  2.000                                                                 
     2     -1.3605826     23  2.000                                                                 
  local pseudopotential read in
  partial core-charges read in
  partial kinetic energy density read in
  atomic valenz-charges read in
  non local Contribution for L=           1  read in
    real space projection operators read in
  non local Contribution for L=           1  read in
    real space projection operators read in
  non local Contribution for L=           0  read in
    real space projection operators read in
  non local Contribution for L=           0  read in
    real space projection operators read in
  non local Contribution for L=           2  read in
    real space projection operators read in
    PAW grid and wavefunctions read in
 
   number of l-projection  operators is LMAX  =           5
   number of lm-projection operators is LMMAX =          13
 
 POTCAR:    PAW_PBE O 08Apr2002                   
   SHA256 =  818f92134a0a090dccd8ba1447fa70422a3b330e708bb4f08108d8ae51209ddf O/POTCAR              
   COPYR  = (c) Copyright 08Apr2002 Georg Kresse                                                    
   COPYR  = This file is part of the software VASP. Any use, copying, and all other rights are regul
   COPYR  = If you do not have a valid VASP license, you may not use, copy or distribute this file. 
   VRHFIN =O: s2p4                                                                                  
   LEXCH  = PE                                                                                      
   EATOM  =   432.3788 eV,   31.7789 Ry                                                             
                                                                                                    
   TITEL  = PAW_PBE O 08Apr2002                                                                     
   LULTRA =        F    use ultrasoft PP ?                                                          
   IUNSCR =        1    unscreen: 0-lin 1-nonlin 2-no                                               
   RPACOR =    1.200    partial core radius                                                         
   POMASS =   16.000; ZVAL   =    6.000    mass and valenz                                          
   RCORE  =    1.520    outmost cutoff radius                                                       
   RWIGS  =    1.550; RWIGS  =    0.820    wigner-seitz radius (au A)                               
   ENMAX  =  400.000; ENMIN  =  300.000 eV                                                          
   ICORE  =        2    local potential                                                             
   LCOR   =        T    correct aug charges                                                         
   LPAW   =        T    paw PP                                                                      
   EAUG   =  605.392                                                                                
   DEXC   =    0.000                                                                                
   RMAX   =    1.553    core radius for proj-oper                                                   
   RAUG   =    1.300    factor for augmentation sphere                                              
   RDEP   =    1.550    radius for radial grids                                                     
   RDEPT  =    1.329    core radius for aug-charge                                                  
                                                                                                    
   Atomic configuration                                                                             
    4 entries                                                                                       
     n  l   j            E        occ.                                                              
     1  0  0.50      -514.6923   2.0000                                                             
     2  0  0.50       -23.9615   2.0000                                                             
     2  1  0.50        -9.0305   4.0000                                                             
     3  2  1.50        -9.5241   0.0000                                                             
   Description                                                                                      
     l       E           TYP  RCUT    TYP  RCUT                                                     
     0    -23.9615318     23  1.200                                                                 
     0     -9.5240782     23  1.200                                                                 
     1     -9.0304911     23  1.520                                                                 
     1      8.1634956     23  1.520                                                                 
     2     -9.5240782      7  1.500                                                                 
  local pseudopotential read in
  partial core-charges read in
  partial kinetic energy density read in
  kinetic energy density of atom read in
  atomic valenz-charges read in
  non local Contribution for L=           0  read in
    real space projection operators read in
  non local Contribution for L=           0  read in
    real space projection operators read in
  non local Contribution for L=           1  read in
    real space projection operators read in
  non local Contribution for L=           1  read in
    real space projection operators read in
    PAW grid and wavefunctions read in
 
   number of l-projection  operators is LMAX  =           4
   number of lm-projection operators is LMMAX =           8
 
 -----------------------------------------------------------------------------
|                                                                             |
|               ----> ADVICE to this user running VASP <----                  |
|                                                                             |
|     You have a (more or less) 'large supercell' and for larger cells it     |
|     might be more efficient to use real-space projection operators.         |
|     Therefore, try LREAL= Auto in the INCAR file.                           |
|     Mind: For very accurate calculation, you might also keep the            |
|     reciprocal projection scheme (i.e. LREAL=.FALSE.).                      |
|                                                                             |
 -----------------------------------------------------------------------------

 -----------------------------------------------------------------------------
|                                                                             |
|               ----> ADVICE to this user running VASP <----                  |
|                                                                             |
|     You enforced a specific xc type in the INCAR file but a different       |
|     type was found in the POTCAR file.                                      |
|     I HOPE YOU KNOW WHAT YOU ARE DOING!                                     |
|                                                                             |
 -----------------------------------------------------------------------------

  PAW_PBE C 08Apr2002                   :
 energy of atom  1       EATOM= -147.1560
 kinetic energy error for atom=    0.0057 (will be added to EATOM!!)
  PAW_PBE O 08Apr2002                   :
 energy of atom  2       EATOM= -432.3788
 kinetic energy error for atom=    0.0168 (will be added to EATOM!!)
  PAW_PBE Mg_pv 13Apr2007               :
 energy of atom  3       EATOM=-1056.7344
 kinetic energy error for atom=    0.0221 (will be added to EATOM!!)
  PAW_PBE O 08Apr2002                   :
 energy of atom  4       EATOM= -432.3788
 kinetic energy error for atom=    0.0168 (will be added to EATOM!!)
 
 
 POSCAR:  C  O Mg  O
  positions in direct lattice
  No initial velocities read in
 exchange correlation table for  LEXCH =       40
   RHO(1)=    0.500       N(1)  =     2000
   RHO(2)=  100.500       N(2)  =     4000
 


--------------------------------------------------------------------------------------------------------


 ion  position               nearest neighbor table
   1  0.500  0.500  0.764-   2 1.14
   2  0.500  0.500  0.818-   1 1.14
   3  0.250  0.000  0.351-  35 2.12  37 2.12  38 2.12  45 2.12  54 2.12
   4  0.500  0.250  0.351-  36 2.12  37 2.12  38 2.12  46 2.12  53 2.12
   5  0.250  0.250  0.450-  37 2.12  36 2.12  35 2.12  43 2.12  52 2.12  41 2.12
   6  0.500  0.000  0.450-  38 2.12  36 2.12  35 2.12  44 2.12  51 2.12  42 2.12
   7  0.250  0.000  0.550-  42 2.12  41 2.12  49 2.12  58 2.12  35 2.13  39 2.15
   8  0.500  0.251  0.550-  50 2.11  41 2.12  57 2.12  42 2.12  36 2.13  40 2.15
   9  0.250  0.250  0.648-  41 2.10  39 2.11  56 2.11  47 2.12  40 2.12
  10  0.500  0.000  0.648-  42 2.10  40 2.11  48 2.11  39 2.12  55 2.12
  11  0.250  0.500  0.351-  43 2.12  37 2.12  45 2.12  46 2.12  62 2.12
  12  0.500  0.750  0.351-  44 2.12  38 2.12  45 2.12  46 2.12  61 2.12
  13  0.250  0.750  0.450-  45 2.12  43 2.12  44 2.12  35 2.12  60 2.12  49 2.12
  14  0.500  0.500  0.450-  46 2.12  43 2.12  44 2.12  36 2.12  59 2.12  50 2.13
  15  0.251  0.500  0.550-  50 2.11  49 2.12  41 2.12  66 2.12  43 2.13  47 2.15
  16  0.500  0.749  0.550-  50 2.11  49 2.12  65 2.12  42 2.12  44 2.13  48 2.15
  17  0.250  0.750  0.648-  49 2.10  39 2.11  64 2.11  47 2.12  48 2.12
  18  0.500  0.500  0.651-  40 2.13  47 2.13  48 2.13  63 2.13  50 2.15
  19  0.750  0.000  0.351-  51 2.12  38 2.12  53 2.12  54 2.12  61 2.12
  20  0.000  0.250  0.351-  52 2.12  37 2.12  53 2.12  54 2.12  62 2.12
  21  0.750  0.250  0.450-  53 2.12  51 2.12  52 2.12  36 2.12  59 2.12  57 2.12
  22  0.000  0.000  0.450-  54 2.12  51 2.12  52 2.12  35 2.12  60 2.12  58 2.12
  23  0.750  0.000  0.550-  42 2.12  57 2.12  65 2.12  58 2.12  51 2.13  55 2.15
  24  0.000  0.250  0.550-  66 2.12  57 2.12  41 2.12  58 2.12  52 2.13  56 2.15
  25  0.750  0.250  0.648-  57 2.10  56 2.11  55 2.11  40 2.12  63 2.12
  26  0.000  0.000  0.648-  58 2.11  55 2.11  56 2.11  39 2.11  64 2.11
  27  0.750  0.500  0.351-  59 2.12  53 2.12  46 2.12  61 2.12  62 2.12
  28  0.000  0.750  0.351-  60 2.12  54 2.12  45 2.12  61 2.12  62 2.12
  29  0.750  0.750  0.450-  61 2.12  51 2.12  59 2.12  60 2.12  44 2.12  65 2.12
  30  0.000  0.500  0.450-  62 2.12  52 2.12  59 2.12  60 2.12  43 2.12  66 2.12
  31  0.749  0.500  0.550-  50 2.11  57 2.12  65 2.12  66 2.12  59 2.13  63 2.15
  32  0.000  0.750  0.550-  66 2.12  65 2.12  49 2.12  58 2.12  60 2.13  64 2.15
  33  0.750  0.750  0.648-  65 2.10  64 2.11  55 2.11  48 2.12  63 2.12
  34  0.000  0.500  0.648-  66 2.10  63 2.11  47 2.11  64 2.12  56 2.12
  35  0.250  0.000  0.450-   3 2.12   5 2.12   6 2.12  13 2.12  22 2.12   7 2.13
  36  0.500  0.250  0.450-   4 2.12   5 2.12   6 2.12  14 2.12  21 2.12   8 2.13
  37  0.250  0.250  0.351-   5 2.12   4 2.12   3 2.12  11 2.12  20 2.12
  38  0.500  0.000  0.351-   6 2.12   4 2.12   3 2.12  12 2.12  19 2.12
  39  0.250  0.000  0.651-   9 2.11  17 2.11  26 2.11  10 2.12   7 2.15
  40  0.500  0.249  0.651-  10 2.11   9 2.12  25 2.12  18 2.13   8 2.15
  41  0.250  0.250  0.550-   9 2.10   7 2.12  24 2.12  15 2.12   8 2.12   5 2.12
  42  0.500  0.000  0.550-  10 2.10   7 2.12  23 2.12   6 2.12  16 2.12   8 2.12
  43  0.250  0.500  0.450-  11 2.12   5 2.12  13 2.12  14 2.12  30 2.12  15 2.13
  44  0.500  0.750  0.450-  12 2.12   6 2.12  13 2.12  14 2.12  29 2.12  16 2.13
  45  0.250  0.750  0.351-  13 2.12  11 2.12  12 2.12   3 2.12  28 2.12
  46  0.500  0.500  0.351-  14 2.12  11 2.12  12 2.12   4 2.12  27 2.12
  47  0.249  0.500  0.651-  34 2.11  17 2.12   9 2.12  18 2.13  15 2.15
  48  0.500  0.751  0.651-  10 2.11  17 2.12  33 2.12  18 2.13  16 2.15
  49  0.250  0.750  0.550-  17 2.10   7 2.12  32 2.12  15 2.12  16 2.12  13 2.12
  50  0.500  0.500  0.550-   8 2.11  15 2.11  16 2.11  31 2.11  14 2.13  18 2.15
  51  0.750  0.000  0.450-  19 2.12   6 2.12  21 2.12  22 2.12  29 2.12  23 2.13
  52  0.000  0.250  0.450-  20 2.12   5 2.12  21 2.12  22 2.12  30 2.12  24 2.13
  53  0.750  0.250  0.351-  21 2.12  19 2.12  20 2.12   4 2.12  27 2.12
  54  0.000  0.000  0.351-  22 2.12  19 2.12  20 2.12   3 2.12  28 2.12
  55  0.750  0.000  0.651-  25 2.11  33 2.11  26 2.11  10 2.12  23 2.15
  56  0.000  0.250  0.651-   9 2.11  25 2.11  26 2.11  34 2.12  24 2.15
  57  0.750  0.250  0.550-  25 2.10  24 2.12  23 2.12   8 2.12  31 2.12  21 2.12
  58  0.000  0.000  0.550-  26 2.11  23 2.12  24 2.12   7 2.12  32 2.12  22 2.12
  59  0.750  0.500  0.450-  27 2.12  21 2.12  14 2.12  29 2.12  30 2.12  31 2.13
  60  0.000  0.750  0.450-  28 2.12  22 2.12  13 2.12  29 2.12  30 2.12  32 2.13
  61  0.750  0.750  0.351-  29 2.12  19 2.12  27 2.12  28 2.12  12 2.12
  62  0.000  0.500  0.351-  30 2.12  20 2.12  27 2.12  28 2.12  11 2.12
  63  0.751  0.500  0.651-  34 2.11  33 2.12  25 2.12  18 2.13  31 2.15
  64  0.000  0.750  0.651-  17 2.11  33 2.11  26 2.11  34 2.12  32 2.15
  65  0.750  0.750  0.550-  33 2.10  32 2.12  23 2.12  16 2.12  31 2.12  29 2.12
  66  0.000  0.500  0.550-  34 2.10  32 2.12  24 2.12  30 2.12  15 2.12  31 2.12
 
  LATTYP: Found a simple tetragonal cell.
 ALAT       =     8.4671426306
 C/A-ratio  =     2.5215539532
  
  Lattice vectors:
  
 A1 = (   8.4671426306,   0.0000000000,   0.0000000000)
 A2 = (   0.0000000000,   8.4671426306,   0.0000000000)
 A3 = (   0.0000000000,   0.0000000000,  21.3503569730)


Analysis of symmetry for initial positions (statically):
=====================================================================
 Subroutine PRICEL returns:
 Original cell was already a primitive cell.
 

 Routine SETGRP: Setting up the symmetry group for a 
 simple tetragonal supercell.


 Subroutine GETGRP returns: Found  8 space group operations
 (whereof  8 operations were pure point group operations)
 out of a pool of 16 trial point group operations.


The static configuration has the point symmetry C_4v.


Analysis of symmetry for dynamics (positions and initial velocities):
=====================================================================
 Subroutine PRICEL returns:
 Original cell was already a primitive cell.
 

 Routine SETGRP: Setting up the symmetry group for a 
 simple tetragonal supercell.


 Subroutine GETGRP returns: Found  8 space group operations
 (whereof  8 operations were pure point group operations)
 out of a pool of 16 trial point group operations.


The dynamic configuration has the point symmetry C_4v.


Analysis of constrained symmetry for selective dynamics:
=====================================================================
 Subroutine PRICEL returns:
 Original cell was already a primitive cell.
 

 Routine SETGRP: Setting up the symmetry group for a 
 simple tetragonal supercell.


 Subroutine GETGRP returns: Found  8 space group operations
 (whereof  8 operations were pure point group operations)
 out of a pool of 16 trial point group operations.


The constrained configuration has the point symmetry C_4v.


 Subroutine INISYM returns: Found  8 space group operations
 (whereof  8 operations are pure point group operations),
 and found     1 'primitive' translations


----------------------------------------------------------------------------------------

                                     Primitive cell                                     

  volume of cell :    1530.6606

  direct lattice vectors                    reciprocal lattice vectors
     8.467142631  0.000000000  0.000000000     0.118103597  0.000000000  0.000000000
     0.000000000  8.467142631  0.000000000     0.000000000  0.118103597  0.000000000
     0.000000000  0.000000000 21.350356973     0.000000000  0.000000000  0.046837624

  length of vectors
     8.467142631  8.467142631 21.350356973     0.118103597  0.118103597  0.046837624

  position of ions in fractional coordinates (direct lattice)
     0.500000000  0.500000000  0.764079771
     0.500000000  0.500000000  0.817635679
     0.250000000  0.000000000  0.351282183
     0.500000000  0.250000000  0.351282183
     0.250000000  0.250000000  0.450427394
     0.500000000  0.000000000  0.450427394
     0.250130675  0.000000000  0.550051025
     0.500000000  0.250549374  0.550337361
     0.249664725  0.249664725  0.648233062
     0.500000000  0.000000000  0.648327315
     0.250000000  0.500000000  0.351282183
     0.500000000  0.750000000  0.351282183
     0.250000000  0.750000000  0.450427394
     0.500000000  0.500000000  0.450427394
     0.250549374  0.500000000  0.550337361
     0.500000000  0.749450626  0.550337361
     0.249664725  0.750335275  0.648233062
     0.500000000  0.500000000  0.651025884
     0.750000000  0.000000000  0.351282183
     0.000000000  0.250000000  0.351282183
     0.750000000  0.250000000  0.450427394
     0.000000000  0.000000000  0.450427394
     0.749869325  0.000000000  0.550051025
     0.000000000  0.250130675  0.550051025
     0.750335275  0.249664725  0.648233062
     0.000000000  0.000000000  0.648316240
     0.750000000  0.500000000  0.351282183
     0.000000000  0.750000000  0.351282183
     0.750000000  0.750000000  0.450427394
     0.000000000  0.500000000  0.450427394
     0.749450626  0.500000000  0.550337361
     0.000000000  0.749869325  0.550051025
     0.750335275  0.750335275  0.648233062
     0.000000000  0.500000000  0.648327315
     0.250000000  0.000000000  0.450427394
     0.500000000  0.250000000  0.450427394
     0.250000000  0.250000000  0.351282183
     0.500000000  0.000000000  0.351282183
     0.249675969  0.000000000  0.650693757
     0.500000000  0.248616374  0.650874873
     0.249995626  0.249995626  0.549815020
     0.500000000  0.000000000  0.549743658
     0.250000000  0.500000000  0.450427394
     0.500000000  0.750000000  0.450427394
     0.250000000  0.750000000  0.351282183
     0.500000000  0.500000000  0.351282183
     0.248616374  0.500000000  0.650874873
     0.500000000  0.751383626  0.650874873
     0.249995626  0.750004374  0.549815020
     0.500000000  0.500000000  0.550361408
     0.750000000  0.000000000  0.450427394
     0.000000000  0.250000000  0.450427394
     0.750000000  0.250000000  0.351282183
     0.000000000  0.000000000  0.351282183
     0.750324031  0.000000000  0.650693757
     0.000000000  0.249675969  0.650693757
     0.750004374  0.249995626  0.549815020
     0.000000000  0.000000000  0.549710877
     0.750000000  0.500000000  0.450427394
     0.000000000  0.750000000  0.450427394
     0.750000000  0.750000000  0.351282183
     0.000000000  0.500000000  0.351282183
     0.751383626  0.500000000  0.650874873
     0.000000000  0.750324031  0.650693757
     0.750004374  0.750004374  0.549815020
     0.000000000  0.500000000  0.549743658

  ion indices of the primitive-cell ions
   primitive index   ion index
                 1           1
                 2           2
                 3           3
                 4           4
                 5           5
                 6           6
                 7           7
                 8           8
                 9           9
                10          10
                11          11
                12          12
                13          13
                14          14
                15          15
                16          16
                17          17
                18          18
                19          19
                20          20
                21          21
                22          22
                23          23
                24          24
                25          25
                26          26
                27          27
                28          28
                29          29
                30          30
                31          31
                32          32
                33          33
                34          34
                35          35
                36          36
                37          37
                38          38
                39          39
                40          40
                41          41
                42          42
                43          43
                44          44
                45          45
                46          46
                47          47
                48          48
                49          49
                50          50
                51          51
                52          52
                53          53
                54          54
                55          55
                56          56
                57          57
                58          58
                59          59
                60          60
                61          61
                62          62
                63          63
                64          64
                65          65
                66          66

----------------------------------------------------------------------------------------

 
 
 KPOINTS: pymatgen v2020.8.13 with grid density = 

Automatic generation of k-mesh.
 Grid dimensions read from file:
 generate k-points for:    2    2    1

 Generating k-lattice:

  Cartesian coordinates                     Fractional coordinates (reciprocal lattice)
     0.059051798  0.000000000  0.000000000     0.500000000  0.000000000  0.000000000
     0.000000000  0.059051798  0.000000000     0.000000000  0.500000000  0.000000000
     0.000000000  0.000000000  0.046837624     0.000000000  0.000000000  1.000000000

  Length of vectors
     0.059051798  0.059051798  0.046837624

  Shift w.r.t. Gamma in fractional coordinates (k-lattice)
     0.000000000  0.000000000  0.000000000

 
 Subroutine IBZKPT returns following result:
 ===========================================
 
 Found      3 irreducible k-points:
 
 Following reciprocal coordinates:
            Coordinates               Weight
  0.000000  0.000000  0.000000      1.000000
  0.500000  0.000000  0.000000      2.000000
  0.500000  0.500000  0.000000      1.000000
 
 Following cartesian coordinates:
            Coordinates               Weight
  0.000000  0.000000  0.000000      1.000000
  0.059052  0.000000  0.000000      2.000000
  0.059052  0.059052  0.000000      1.000000
 


--------------------------------------------------------------------------------------------------------




 Dimension of arrays:
   k-points           NKPTS =      3   k-points in BZ     NKDIM =      3   number of bands    NBANDS=    304
   number of dos      NEDOS =    301   number of ions     NIONS =     66
   non local maximal  LDIM  =      5   non local SUM 2l+1 LMDIM =     13
   total plane-waves  NPLWV = 882000
   max r-space proj   IRMAX =      1   max aug-charges    IRDMAX=  11554
   dimension x,y,z NGX =    70 NGY =   70 NGZ =  180
   dimension x,y,z NGXF=   140 NGYF=  140 NGZF=  360
   support grid    NGXF=   140 NGYF=  140 NGZF=  360
   ions per type =               1   1  32  32
   NGX,Y,Z   is equivalent  to a cutoff of  13.74, 13.74, 14.02 a.u.
   NGXF,Y,Z  is equivalent  to a cutoff of  27.49, 27.49, 28.03 a.u.

 SYSTEM =  MgO-rocksalt                            
 POSCAR =   C  O Mg  O                             

--------------------------------------------------------------------------------------------------------


  energy-cutoff  :      600.00
  volume of cell :     1530.66
      direct lattice vectors                 reciprocal lattice vectors
     8.467142631  0.000000000  0.000000000     0.118103597  0.000000000  0.000000000
     0.000000000  8.467142631  0.000000000     0.000000000  0.118103597  0.000000000
     0.000000000  0.000000000 21.350356973     0.000000000  0.000000000  0.046837624

  length of vectors
     8.467142631  8.467142631 21.350356973     0.118103597  0.118103597  0.046837624


 
 k-points in units of 2pi/SCALE and weight: pymatgen v2020.8.13 with grid density = 
   0.00000000  0.00000000  0.00000000       0.250
   0.05905180  0.00000000  0.00000000       0.500
   0.05905180  0.05905180  0.00000000       0.250
 
 k-points in reciprocal lattice and weights: pymatgen v2020.8.13 with grid density = 
   0.00000000  0.00000000  0.00000000       0.250
   0.50000000  0.00000000  0.00000000       0.500
   0.50000000  0.50000000  0.00000000       0.250
 
 position of ions in fractional coordinates (direct lattice) 
   0.50000000  0.50000000  0.76407977
   0.50000000  0.50000000  0.81763568
   0.25000000  0.00000000  0.35128218
   0.50000000  0.25000000  0.35128218
   0.25000000  0.25000000  0.45042739
   0.50000000  0.00000000  0.45042739
   0.25013068  0.00000000  0.55005102
   0.50000000  0.25054937  0.55033736
   0.24966473  0.24966473  0.64823306
   0.50000000  0.00000000  0.64832732
   0.25000000  0.50000000  0.35128218
   0.50000000  0.75000000  0.35128218
   0.25000000  0.75000000  0.45042739
   0.50000000  0.50000000  0.45042739
   0.25054937  0.50000000  0.55033736
   0.50000000  0.74945063  0.55033736
   0.24966473  0.75033527  0.64823306
   0.50000000  0.50000000  0.65102588
   0.75000000  0.00000000  0.35128218
   0.00000000  0.25000000  0.35128218
   0.75000000  0.25000000  0.45042739
   0.00000000  0.00000000  0.45042739
   0.74986932  0.00000000  0.55005102
   0.00000000  0.25013068  0.55005102
   0.75033527  0.24966473  0.64823306
   0.00000000  0.00000000  0.64831624
   0.75000000  0.50000000  0.35128218
   0.00000000  0.75000000  0.35128218
   0.75000000  0.75000000  0.45042739
   0.00000000  0.50000000  0.45042739
   0.74945063  0.50000000  0.55033736
   0.00000000  0.74986932  0.55005102
   0.75033527  0.75033527  0.64823306
   0.00000000  0.50000000  0.64832732
   0.25000000  0.00000000  0.45042739
   0.50000000  0.25000000  0.45042739
   0.25000000  0.25000000  0.35128218
   0.50000000  0.00000000  0.35128218
   0.24967597  0.00000000  0.65069376
   0.50000000  0.24861637  0.65087487
   0.24999563  0.24999563  0.54981502
   0.50000000  0.00000000  0.54974366
   0.25000000  0.50000000  0.45042739
   0.50000000  0.75000000  0.45042739
   0.25000000  0.75000000  0.35128218
   0.50000000  0.50000000  0.35128218
   0.24861637  0.50000000  0.65087487
   0.50000000  0.75138363  0.65087487
   0.24999563  0.75000437  0.54981502
   0.50000000  0.50000000  0.55036141
   0.75000000  0.00000000  0.45042739
   0.00000000  0.25000000  0.45042739
   0.75000000  0.25000000  0.35128218
   0.00000000  0.00000000  0.35128218
   0.75032403  0.00000000  0.65069376
   0.00000000  0.24967597  0.65069376
   0.75000437  0.24999563  0.54981502
   0.00000000  0.00000000  0.54971088
   0.75000000  0.50000000  0.45042739
   0.00000000  0.75000000  0.45042739
   0.75000000  0.75000000  0.35128218
   0.00000000  0.50000000  0.35128218
   0.75138363  0.50000000  0.65087487
   0.00000000  0.75032403  0.65069376
   0.75000437  0.75000437  0.54981502
   0.00000000  0.50000000  0.54974366
 
 position of ions in cartesian coordinates  (Angst):
   4.23357132  4.23357132 16.31337587
   4.23357132  4.23357132 17.45681361
   2.11678566  0.00000000  7.50000000
   4.23357132  2.11678566  7.50000000
   2.11678566  2.11678566  9.61678566
   4.23357132  0.00000000  9.61678566
   2.11789210  0.00000000 11.74378574
   4.23357132  2.12143728 11.74989911
   2.11394684  2.11394684 13.84000727
   4.23357132  0.00000000 13.84201961
   2.11678566  4.23357132  7.50000000
   4.23357132  6.35035697  7.50000000
   2.11678566  6.35035697  9.61678566
   4.23357132  4.23357132  9.61678566
   2.12143728  4.23357132 11.74989911
   4.23357132  6.34570535 11.74989911
   2.11394684  6.35319579 13.84000727
   4.23357132  4.23357132 13.89963502
   6.35035697  0.00000000  7.50000000
   0.00000000  2.11678566  7.50000000
   6.35035697  2.11678566  9.61678566
   0.00000000  0.00000000  9.61678566
   6.34925053  0.00000000 11.74378574
   0.00000000  2.11789210 11.74378574
   6.35319579  2.11394684 13.84000727
   0.00000000  0.00000000 13.84178315
   6.35035697  4.23357132  7.50000000
   0.00000000  6.35035697  7.50000000
   6.35035697  6.35035697  9.61678566
   0.00000000  4.23357132  9.61678566
   6.34570535  4.23357132 11.74989911
   0.00000000  6.34925053 11.74378574
   6.35319579  6.35319579 13.84000727
   0.00000000  4.23357132 13.84201961
   2.11678566  0.00000000  9.61678566
   4.23357132  2.11678566  9.61678566
   2.11678566  2.11678566  7.50000000
   4.23357132  0.00000000  7.50000000
   2.11404204  0.00000000 13.89254400
   4.23357132  2.10507030 13.89641088
   2.11674862  2.11674862 11.73874694
   4.23357132  0.00000000 11.73722335
   2.11678566  4.23357132  9.61678566
   4.23357132  6.35035697  9.61678566
   2.11678566  6.35035697  7.50000000
   4.23357132  4.23357132  7.50000000
   2.10507030  4.23357132 13.89641088
   4.23357132  6.36207233 13.89641088
   2.11674862  6.35039401 11.73874694
   4.23357132  4.23357132 11.75041252
   6.35035697  0.00000000  9.61678566
   0.00000000  2.11678566  9.61678566
   6.35035697  2.11678566  7.50000000
   0.00000000  0.00000000  7.50000000
   6.35310059  0.00000000 13.89254400
   0.00000000  2.11404204 13.89254400
   6.35039401  2.11674862 11.73874694
   0.00000000  0.00000000 11.73652345
   6.35035697  4.23357132  9.61678566
   0.00000000  6.35035697  9.61678566
   6.35035697  6.35035697  7.50000000
   0.00000000  4.23357132  7.50000000
   6.36207233  4.23357132 13.89641088
   0.00000000  6.35310059 13.89254400
   6.35039401  6.35039401 11.73874694
   0.00000000  4.23357132 11.73722335
 


--------------------------------------------------------------------------------------------------------

--------------------------------------- Iteration      FINAL  ---------------------------------------


--------------------OUTCAR has been truncated-------------------------


--------------------OUTCAR has been truncated-------------------------


--------------------OUTCAR has been truncated-------------------------


--------------------OUTCAR has been truncated-------------------------


--------------------OUTCAR has been truncated-------------------------


--------------------OUTCAR has been truncated-------------------------


--------------------OUTCAR has been truncated-------------------------


--------------------OUTCAR has been truncated-------------------------


--------------------OUTCAR has been truncated-------------------------


--------------------OUTCAR has been truncated-------------------------


  FORCE on cell =-STRESS in cart. coord.  units (eV):
  Direction    XX          YY          ZZ          XY          YZ          ZX
  --------------------------------------------------------------------------------------
  Alpha Z   901.53356   901.53356   901.53356
  Ewald  156713.02684156713.02684************     0.00000     0.00000     0.00000
  Hartree167110.40941167110.40941************    -0.00000    -0.00000    -0.00000
  E(xc)   -2567.41858 -2567.41858 -2567.93512     0.00000    -0.00000    -0.00000
  Local  ************************333292.14908    -0.00000    -0.00000    -0.00000
  n-local -2832.52157 -2833.30504 -2861.96754     0.00001     0.00001    -0.00000
  augment  1084.18523  1084.18523  1074.88810     0.00000     0.00000     0.00000
  Kinetic  7514.69305  7517.17921  7532.46970    -0.00002    -0.00004    -0.00002
  Fock        0.00000     0.00000     0.00000     0.00000     0.00000     0.00000
  -------------------------------------------------------------------------------------
  Total     -13.94260   -13.94260    10.03306     0.00000     0.00000     0.00000
  in kB     -14.59404   -14.59404    10.50183     0.00000     0.00000     0.00000
  external pressure =       -6.23 kB  Pullay stress =        0.00 kB


 VOLUME and BASIS-vectors are now :
 -----------------------------------------------------------------------------
  energy-cutoff  :      600.00
  volume of cell :     1530.66
      direct lattice vectors                 reciprocal lattice vectors
     8.467142631  0.000000000  0.000000000     0.118103597  0.000000000  0.000000000
     0.000000000  8.467142631  0.000000000     0.000000000  0.118103597  0.000000000
     0.000000000  0.000000000 21.350356973     0.000000000  0.000000000  0.046837624

  length of vectors
     8.467142631  8.467142631 21.350356973     0.118103597  0.118103597  0.046837624


 FORCES acting on ions:
    Electron-Ion                     Ewald-Force                    Non-Local-Force
 -----------------------------------------------------------------------------------------------
   0.121E-12 0.121E-12 -.834E+03   -.741E-14 0.224E-14 0.807E+03   -.311E-22 -.433E-22 0.272E+02
   0.424E-12 0.204E-11 -.145E+04   -.598E-14 0.424E-14 0.151E+04   0.815E-23 -.431E-22 -.603E+02
   0.717E-01 0.430E-12 0.206E+04   -.702E-01 0.123E-12 -.206E+04   -.100E-02 -.325E-22 -.644E+01
   0.670E-12 0.675E-01 0.206E+04   0.155E-12 -.633E-01 -.206E+04   0.179E-21 -.323E-02 -.645E+01
   0.221E+00 0.221E+00 0.711E+03   -.202E+00 -.202E+00 -.711E+03   -.133E-01 -.133E-01 0.464E+00
   0.604E-12 0.634E-12 0.711E+03   0.151E-10 -.149E-10 -.711E+03   -.756E-22 -.605E-23 0.399E+00
   0.258E+01 -.631E-12 -.636E+03   -.254E+01 -.146E-11 0.636E+03   -.360E-01 -.252E-22 -.186E+00
   0.602E-12 0.383E+01 -.631E+03   0.143E-11 -.372E+01 0.632E+03   0.271E-23 -.122E+00 -.300E+00
   0.176E+02 0.176E+02 -.197E+04   -.177E+02 -.177E+02 0.196E+04   0.130E+00 0.130E+00 0.554E+01
   0.646E-12 -.738E-13 -.198E+04   0.490E-12 -.432E-12 0.197E+04   0.673E-23 -.685E-23 0.545E+01
   0.675E-01 0.685E-12 0.206E+04   -.633E-01 -.168E-10 -.206E+04   -.323E-02 0.181E-22 -.645E+01
   0.659E-12 -.675E-01 0.206E+04   -.297E-11 0.633E-01 -.206E+04   0.148E-21 0.323E-02 -.645E+01
   0.221E+00 -.221E+00 0.711E+03   -.202E+00 0.202E+00 -.711E+03   -.133E-01 0.133E-01 0.464E+00
   0.638E-12 0.215E-12 0.710E+03   0.165E-10 0.245E-13 -.711E+03   0.293E-22 0.345E-22 0.580E+00
   0.383E+01 -.369E-13 -.631E+03   -.372E+01 -.252E-13 0.632E+03   -.122E+00 0.105E-22 -.300E+00
   0.585E-12 -.383E+01 -.631E+03   0.299E-11 0.372E+01 0.632E+03   0.721E-22 0.122E+00 -.300E+00
   0.176E+02 -.176E+02 -.197E+04   -.177E+02 0.177E+02 0.196E+04   0.130E+00 -.130E+00 0.554E+01
   0.702E-12 0.119E-11 -.190E+04   0.543E-13 0.720E-14 0.190E+04   -.177E-22 -.598E-22 0.365E+01
   -.717E-01 0.396E-12 0.206E+04   0.702E-01 0.281E-13 -.206E+04   0.100E-02 0.245E-22 -.644E+01
   -.578E-13 0.717E-01 0.206E+04   0.202E-10 -.702E-01 -.206E+04   0.247E-21 -.100E-02 -.644E+01
   -.221E+00 0.221E+00 0.711E+03   0.202E+00 -.202E+00 -.711E+03   0.133E-01 -.133E-01 0.464E+00
   -.476E-13 0.352E-13 0.710E+03   -.120E-11 -.149E-10 -.710E+03   -.860E-22 0.117E-21 0.418E+00
   -.258E+01 -.665E-12 -.636E+03   0.254E+01 -.151E-11 0.636E+03   0.360E-01 0.112E-22 -.186E+00
   -.687E-13 0.258E+01 -.636E+03   -.148E-11 -.254E+01 0.636E+03   -.524E-22 -.360E-01 -.186E+00
   -.176E+02 0.176E+02 -.197E+04   0.177E+02 -.177E+02 0.196E+04   -.130E+00 0.130E+00 0.554E+01
   -.174E-13 -.161E-12 -.199E+04   -.147E-13 0.557E-13 0.198E+04   0.302E-21 0.232E-21 0.546E+01
   -.675E-01 0.161E-12 0.206E+04   0.633E-01 -.168E-10 -.206E+04   0.323E-02 -.860E-22 -.645E+01
   -.499E-13 -.717E-01 0.206E+04   0.169E-10 0.702E-01 -.206E+04   -.913E-22 0.100E-02 -.644E+01
   -.221E+00 -.221E+00 0.711E+03   0.202E+00 0.202E+00 -.711E+03   0.133E-01 0.133E-01 0.464E+00
   -.499E-13 0.910E-12 0.711E+03   0.221E-12 0.430E-13 -.711E+03   0.598E-23 0.731E-22 0.399E+00
   -.383E+01 -.256E-11 -.631E+03   0.372E+01 -.573E-13 0.632E+03   0.122E+00 0.251E-22 -.300E+00
   -.512E-13 -.258E+01 -.636E+03   0.289E-13 0.254E+01 0.636E+03   0.248E-22 0.360E-01 -.186E+00
   -.176E+02 -.176E+02 -.197E+04   0.177E+02 0.177E+02 0.196E+04   -.130E+00 -.130E+00 0.554E+01
   -.597E-13 -.322E-12 -.198E+04   -.319E-13 -.249E-13 0.197E+04   0.274E-22 -.262E-22 0.545E+01
   0.237E+00 0.467E-12 0.532E+03   -.232E+00 -.520E-13 -.532E+03   -.654E-02 0.120E-21 -.519E-01
   0.271E-12 0.222E+00 0.532E+03   -.141E-12 -.255E+00 -.532E+03   0.194E-22 0.448E-01 -.107E+00
   0.510E-01 0.510E-01 0.155E+04   -.483E-01 -.483E-01 -.155E+04   -.384E-02 -.384E-02 0.356E+01
   0.332E-12 0.577E-12 0.155E+04   -.855E-11 0.834E-11 -.155E+04   0.286E-22 0.519E-22 0.356E+01
   0.707E+01 -.886E-12 -.151E+04   -.698E+01 -.232E-12 0.152E+04   -.829E-01 -.675E-22 -.520E+01
   0.386E-12 0.236E+02 -.148E+04   -.549E-13 -.232E+02 0.149E+04   -.132E-21 -.336E+00 -.521E+01
   0.229E+01 0.229E+01 -.468E+03   -.229E+01 -.229E+01 0.468E+03   -.494E-02 -.494E-02 0.427E+00
   0.258E-12 0.681E-12 -.468E+03   -.811E-12 0.832E-12 0.468E+03   -.266E-22 -.869E-22 0.357E+00
   0.222E+00 0.661E-12 0.532E+03   -.255E+00 0.828E-11 -.532E+03   0.448E-01 -.148E-21 -.107E+00
   0.259E-12 -.222E+00 0.532E+03   0.647E-12 0.255E+00 -.532E+03   0.132E-21 -.448E-01 -.107E+00
   0.510E-01 -.510E-01 0.155E+04   -.483E-01 0.483E-01 -.155E+04   -.384E-02 0.384E-02 0.356E+01
   0.307E-12 0.150E-11 0.155E+04   -.948E-11 -.396E-13 -.155E+04   0.483E-22 0.157E-22 0.355E+01
   0.236E+02 0.342E-12 -.148E+04   -.232E+02 -.211E-13 0.149E+04   -.336E+00 0.119E-23 -.521E+01
   0.359E-12 -.236E+02 -.148E+04   -.758E-14 0.232E+02 0.149E+04   0.425E-22 0.336E+00 -.521E+01
   0.229E+01 -.229E+01 -.468E+03   -.229E+01 0.229E+01 0.468E+03   -.494E-02 0.494E-02 0.427E+00
   0.247E-12 0.140E-11 -.471E+03   0.823E-11 -.141E-13 0.471E+03   0.477E-22 -.213E-23 -.249E+00
   -.237E+00 0.495E-12 0.532E+03   0.232E+00 -.546E-13 -.532E+03   0.654E-02 -.132E-21 -.519E-01
   -.295E-13 0.237E+00 0.532E+03   -.935E-11 -.232E+00 -.532E+03   0.126E-21 -.654E-02 -.519E-01
   -.510E-01 0.510E-01 0.155E+04   0.483E-01 -.483E-01 -.155E+04   0.384E-02 -.384E-02 0.356E+01
   -.208E-13 0.121E-12 0.155E+04   0.908E-12 0.838E-11 -.155E+04   -.148E-21 -.200E-22 0.356E+01
   -.707E+01 -.101E-11 -.151E+04   0.698E+01 -.220E-12 0.152E+04   0.829E-01 -.958E-22 -.520E+01
   -.325E-13 0.707E+01 -.151E+04   -.121E-12 -.698E+01 0.152E+04   -.343E-22 -.829E-01 -.520E+01
   -.229E+01 0.229E+01 -.468E+03   0.229E+01 -.229E+01 0.468E+03   0.494E-02 -.494E-02 0.427E+00
   -.343E-13 0.831E-12 -.473E+03   0.142E-13 -.576E-13 0.472E+03   0.162E-23 0.769E-22 0.335E+00
   -.222E+00 0.584E-11 0.532E+03   0.255E+00 0.838E-11 -.532E+03   -.448E-01 0.282E-22 -.107E+00
   -.707E-14 -.237E+00 0.532E+03   -.861E-11 0.232E+00 -.532E+03   0.305E-22 0.654E-02 -.519E-01
   -.510E-01 -.510E-01 0.155E+04   0.483E-01 0.483E-01 -.155E+04   0.384E-02 0.384E-02 0.356E+01
   -.247E-13 0.376E-12 0.155E+04   -.166E-12 -.246E-12 -.155E+04   -.698E-22 0.284E-23 0.356E+01
   -.236E+02 -.389E-11 -.148E+04   0.232E+02 -.498E-13 0.149E+04   0.336E+00 0.208E-21 -.521E+01
   -.235E-13 -.707E+01 -.151E+04   0.148E-13 0.698E+01 0.152E+04   -.679E-23 0.829E-01 -.520E+01
   -.229E+01 -.229E+01 -.468E+03   0.229E+01 0.229E+01 0.468E+03   0.494E-02 0.494E-02 0.427E+00
   -.322E-13 -.737E-12 -.468E+03   -.214E-13 0.213E-13 0.468E+03   -.426E-22 0.475E-22 0.357E+00
 -----------------------------------------------------------------------------------------------
   0.188E-10 0.314E-11 0.522E+02   0.892E-13 -.416E-12 -.796E-12   0.980E-16 0.434E-16 -.522E+02
 
 
 POSITION                                       TOTAL-FORCE (eV/Angst)
 -----------------------------------------------------------------------------------
      4.23357      4.23357     16.31338         0.000000      0.000000     -0.051837
      4.23357      4.23357     17.45681         0.000000      0.000000      0.199022
      2.11679      0.00000      7.50000         0.000414      0.000000      0.196838
      4.23357      2.11679      7.50000         0.000000      0.000942      0.197985
      2.11679      2.11679      9.61679         0.005614      0.005614      0.028094
      4.23357      0.00000      9.61679         0.000000      0.000000      0.039033
      2.11789      0.00000     11.74379        -0.000328      0.000000     -0.006033
      4.23357      2.12144     11.74990         0.000000     -0.008353     -0.004539
      2.11395      2.11395     13.84001        -0.002447     -0.002447      0.199267
      4.23357      0.00000     13.84202         0.000000      0.000000      0.204197
      2.11679      4.23357      7.50000         0.000942      0.000000      0.197985
      4.23357      6.35036      7.50000         0.000000     -0.000942      0.197985
      2.11679      6.35036      9.61679         0.005614     -0.005614      0.028094
      4.23357      4.23357      9.61679         0.000000      0.000000      0.047756
      2.12144      4.23357     11.74990        -0.008353      0.000000     -0.004539
      4.23357      6.34571     11.74990         0.000000      0.008353     -0.004539
      2.11395      6.35320     13.84001        -0.002447      0.002447      0.199267
      4.23357      4.23357     13.89964         0.000000      0.000000      0.137510
      6.35036      0.00000      7.50000        -0.000414      0.000000      0.196838
      0.00000      2.11679      7.50000         0.000000      0.000414      0.196838
      6.35036      2.11679      9.61679        -0.005614      0.005614      0.028094
      0.00000      0.00000      9.61679         0.000000      0.000000      0.023191
      6.34925      0.00000     11.74379         0.000328      0.000000     -0.006033
      0.00000      2.11789     11.74379         0.000000     -0.000328     -0.006033
      6.35320      2.11395     13.84001         0.002447     -0.002447      0.199267
      0.00000      0.00000     13.84178         0.000000      0.000000      0.212544
      6.35036      4.23357      7.50000        -0.000942      0.000000      0.197985
      0.00000      6.35036      7.50000         0.000000     -0.000414      0.196838
      6.35036      6.35036      9.61679        -0.005614     -0.005614      0.028094
      0.00000      4.23357      9.61679         0.000000      0.000000      0.039033
      6.34571      4.23357     11.74990         0.008353      0.000000     -0.004539
      0.00000      6.34925     11.74379         0.000000      0.000328     -0.006033
      6.35320      6.35320     13.84001         0.002447      0.002447      0.199267
      0.00000      4.23357     13.84202         0.000000      0.000000      0.204197
      2.11679      0.00000      9.61679        -0.001933      0.000000      0.058813
      4.23357      2.11679      9.61679         0.000000      0.011663      0.073086
      2.11679      2.11679      7.50000        -0.001064     -0.001064     -0.518276
      4.23357      0.00000      7.50000         0.000000      0.000000     -0.518301
      2.11404      0.00000     13.89254         0.002725      0.000000      0.033334
      4.23357      2.10507     13.89641         0.000000      0.000395      0.006970
      2.11675      2.11675     11.73875         0.001373      0.001373     -0.004777
      4.23357      0.00000     11.73722         0.000000      0.000000     -0.007358
      2.11679      4.23357      9.61679         0.011663      0.000000      0.073086
      4.23357      6.35036      9.61679         0.000000     -0.011663      0.073086
      2.11679      6.35036      7.50000        -0.001064      0.001064     -0.518276
      4.23357      4.23357      7.50000         0.000000      0.000000     -0.519877
      2.10507      4.23357     13.89641         0.000395      0.000000      0.006970
      4.23357      6.36207     13.89641         0.000000     -0.000395      0.006970
      2.11675      6.35039     11.73875         0.001373     -0.001373     -0.004777
      4.23357      4.23357     11.75041         0.000000      0.000000     -0.006037
      6.35036      0.00000      9.61679         0.001933      0.000000      0.058813
      0.00000      2.11679      9.61679         0.000000     -0.001933      0.058813
      6.35036      2.11679      7.50000         0.001064     -0.001064     -0.518276
      0.00000      0.00000      7.50000         0.000000      0.000000     -0.517529
      6.35310      0.00000     13.89254        -0.002725      0.000000      0.033334
      0.00000      2.11404     13.89254         0.000000      0.002725      0.033334
      6.35039      2.11675     11.73875        -0.001373      0.001373     -0.004777
      0.00000      0.00000     11.73652         0.000000      0.000000     -0.002932
      6.35036      4.23357      9.61679        -0.011663      0.000000      0.073086
      0.00000      6.35036      9.61679         0.000000      0.001933      0.058813
      6.35036      6.35036      7.50000         0.001064      0.001064     -0.518276
      0.00000      4.23357      7.50000         0.000000      0.000000     -0.518301
      6.36207      4.23357     13.89641        -0.000395      0.000000      0.006970
      0.00000      6.35310     13.89254         0.000000     -0.002725      0.033334
      6.35039      6.35039     11.73875        -0.001373     -0.001373     -0.004777
      0.00000      4.23357     11.73722         0.000000      0.000000     -0.007358
 -----------------------------------------------------------------------------------
    total drift:                                0.000000      0.000000      0.069433


--------------------------------------------------------------------------------------------------------



  FREE ENERGIE OF THE ION-ELECTRON SYSTEM (eV)
  ---------------------------------------------------
  free  energy   TOTEN  =      -238.99438491 eV

  energy  without entropy=     -238.99438491  energy(sigma->0) =     -238.99438491
 


--------------------------------------------------------------------------------------------------------


    POTLOK:  cpu time      0.4024: real time      0.4037


--------------------------------------------------------------------------------------------------------


     LOOP+:  cpu time     62.9400: real time     63.2006
    4ORBIT:  cpu time      0.0000: real time      0.0000

 total amount of memory used by VASP MPI-rank0   132918. kBytes
=======================================================================

   base      :      30000. kBytes
   nonl-proj :      59185. kBytes
   fftplans  :      14616. kBytes
   grid      :      21323. kBytes
   one-center:        267. kBytes
   wavefun   :       7527. kBytes
 
  
  
 General timing and accounting informations for this job:
 ========================================================
  
                  Total CPU time used (sec):       66.139
                            User time (sec):       65.368
                          System time (sec):        0.771
                         Elapsed time (sec):       67.063
  
                   Maximum memory used (kb):      506496.
                   Average memory used (kb):          N/A
  
                          Minor page faults:       109664
                          Major page faults:          107
                 Voluntary context switches:         1801
