 vasp.6.3.0 20Jan22 (build Apr  1 2022 16:44:48) gamma-only                      
 executed on        HPECrayEX_GCC date 2023.01.23  22:38:02
 running  512 mpi-ranks, with    1 threads/rank
 distrk:  each k-point on  512 cores,    1 groups
 distr:  one band on NCORE=   8 cores,   64 groups


--------------------------------------------------------------------------------------------------------


 INCAR:
   SYSTEM = MgO-rocksalt
   ISMEAR = 0
   SIGMA = 0.05
   EDIFF = 1E-8
   ALGO = ALL
   ISTART = 0
   IBRION = 5
   POTIM = 0.01
   NFREE = 2
   ISYM = 0
   DIPOL = 0.5 0.5 0.5
   IDIPOL = 4
   LDIPOL = .TRUE.
   GGA = RE
   AGGAC = 0.0
   LUSE_VDW = .TRUE.
   LASPH = .TRUE.
   ENCUT = 600
   PREC = Accurate
   LASPH = .TRUE.
   LREAL = .FALSE.
   ISPIN = 1
   NELM = 200
   NELMIN = 8
   NCORE = 8
   KPAR = 1
   LWAVE = .FALSE.
   LCHARG = .FALSE.

 POTCAR:    PAW_PBE C 08Apr2002                   
 POTCAR:    PAW_PBE O 08Apr2002                   
 -----------------------------------------------------------------------------
|                                                                             |
|               ----> ADVICE to this user running VASP <----                  |
|                                                                             |
|     You have switched on vdW-DFT.                                           |
|     This routine was written and supplied by Jiri Klimes. We recommend      |
|     that you carefully read and cite the following publications:            |
|       J. Klimes, D.R. Bowler, A. Michelides                                 |
|          J. Phys.: Cond Matt. 22 022201 (2010)                              |
|       J. Klimes, D.R. Bowler, A. Michelides                                 |
|          Phys. Rev. B. 83, 195131 (2011)                                    |
|     and references therein.                                                 |
|                                                                             |
 -----------------------------------------------------------------------------

 POTCAR:    PAW_PBE C 08Apr2002                   
   SHA256 =  253f7b50bb8d59471dbedb8285d89021f4a42ed1a2c5d38a03a736e69125dd95 C/POTCAR              
   COPYR  = (c) Copyright 08Apr2002 Georg Kresse                                                    
   COPYR  = This file is part of the software VASP. Any use, copying, and all other rights are regul
   COPYR  = If you do not have a valid VASP license, you may not use, copy or distribute this file. 
   VRHFIN =C: s2p2                                                                                  
   LEXCH  = PE                                                                                      
   EATOM  =   147.1560 eV,   10.8157 Ry                                                             
                                                                                                    
   TITEL  = PAW_PBE C 08Apr2002                                                                     
   LULTRA =        F    use ultrasoft PP ?                                                          
   IUNSCR =        1    unscreen: 0-lin 1-nonlin 2-no                                               
   RPACOR =    1.200    partial core radius                                                         
   POMASS =   12.011; ZVAL   =    4.000    mass and valenz                                          
   RCORE  =    1.500    outmost cutoff radius                                                       
   RWIGS  =    1.630; RWIGS  =    0.863    wigner-seitz radius (au A)                               
   ENMAX  =  400.000; ENMIN  =  300.000 eV                                                          
   ICORE  =        2    local potential                                                             
   LCOR   =        T    correct aug charges                                                         
   LPAW   =        T    paw PP                                                                      
   EAUG   =  644.873                                                                                
   DEXC   =    0.000                                                                                
   RMAX   =    1.529    core radius for proj-oper                                                   
   RAUG   =    1.300    factor for augmentation sphere                                              
   RDEP   =    1.501    radius for radial grids                                                     
   RDEPT  =    1.300    core radius for aug-charge                                                  
                                                                                                    
   Atomic configuration                                                                             
    4 entries                                                                                       
     n  l   j            E        occ.                                                              
     1  0  0.50      -273.3789   2.0000                                                             
     2  0  0.50       -13.7508   2.0000                                                             
     2  1  0.50        -5.2854   2.0000                                                             
     3  2  1.50        -5.4423   0.0000                                                             
   Description                                                                                      
     l       E           TYP  RCUT    TYP  RCUT                                                     
     0    -13.7508458     23  1.200                                                                 
     0     -8.2022199     23  1.200                                                                 
     1     -5.2854383     23  1.500                                                                 
     1     34.0145650     23  1.500                                                                 
     2     -5.4423304      7  1.500                                                                 
  local pseudopotential read in
  partial core-charges read in
  partial kinetic energy density read in
  atomic valenz-charges read in
  non local Contribution for L=           0  read in
    real space projection operators read in
  non local Contribution for L=           0  read in
    real space projection operators read in
  non local Contribution for L=           1  read in
    real space projection operators read in
  non local Contribution for L=           1  read in
    real space projection operators read in
    PAW grid and wavefunctions read in

   number of l-projection  operators is LMAX  =           4
   number of lm-projection operators is LMMAX =           8

 POTCAR:    PAW_PBE O 08Apr2002                   
   SHA256 =  818f92134a0a090dccd8ba1447fa70422a3b330e708bb4f08108d8ae51209ddf O/POTCAR              
   COPYR  = (c) Copyright 08Apr2002 Georg Kresse                                                    
   COPYR  = This file is part of the software VASP. Any use, copying, and all other rights are regul
   COPYR  = If you do not have a valid VASP license, you may not use, copy or distribute this file. 
   VRHFIN =O: s2p4                                                                                  
   LEXCH  = PE                                                                                      
   EATOM  =   432.3788 eV,   31.7789 Ry                                                             
                                                                                                    
   TITEL  = PAW_PBE O 08Apr2002                                                                     
   LULTRA =        F    use ultrasoft PP ?                                                          
   IUNSCR =        1    unscreen: 0-lin 1-nonlin 2-no                                               
   RPACOR =    1.200    partial core radius                                                         
   POMASS =   16.000; ZVAL   =    6.000    mass and valenz                                          
   RCORE  =    1.520    outmost cutoff radius                                                       
   RWIGS  =    1.550; RWIGS  =    0.820    wigner-seitz radius (au A)                               
   ENMAX  =  400.000; ENMIN  =  300.000 eV                                                          
   ICORE  =        2    local potential                                                             
   LCOR   =        T    correct aug charges                                                         
   LPAW   =        T    paw PP                                                                      
   EAUG   =  605.392                                                                                
   DEXC   =    0.000                                                                                
   RMAX   =    1.553    core radius for proj-oper                                                   
   RAUG   =    1.300    factor for augmentation sphere                                              
   RDEP   =    1.550    radius for radial grids                                                     
   RDEPT  =    1.329    core radius for aug-charge                                                  
                                                                                                    
   Atomic configuration                                                                             
    4 entries                                                                                       
     n  l   j            E        occ.                                                              
     1  0  0.50      -514.6923   2.0000                                                             
     2  0  0.50       -23.9615   2.0000                                                             
     2  1  0.50        -9.0305   4.0000                                                             
     3  2  1.50        -9.5241   0.0000                                                             
   Description                                                                                      
     l       E           TYP  RCUT    TYP  RCUT                                                     
     0    -23.9615318     23  1.200                                                                 
     0     -9.5240782     23  1.200                                                                 
     1     -9.0304911     23  1.520                                                                 
     1      8.1634956     23  1.520                                                                 
     2     -9.5240782      7  1.500                                                                 
  local pseudopotential read in
  partial core-charges read in
  partial kinetic energy density read in
  kinetic energy density of atom read in
  atomic valenz-charges read in
  non local Contribution for L=           0  read in
    real space projection operators read in
  non local Contribution for L=           0  read in
    real space projection operators read in
  non local Contribution for L=           1  read in
    real space projection operators read in
  non local Contribution for L=           1  read in
    real space projection operators read in
    PAW grid and wavefunctions read in

   number of l-projection  operators is LMAX  =           4
   number of lm-projection operators is LMMAX =           8

 -----------------------------------------------------------------------------
|                                                                             |
|               ----> ADVICE to this user running VASP <----                  |
|                                                                             |
|     You enforced a specific xc type in the INCAR file but a different       |
|     type was found in the POTCAR file.                                      |
|     I HOPE YOU KNOW WHAT YOU ARE DOING!                                     |
|                                                                             |
 -----------------------------------------------------------------------------

  PAW_PBE C 08Apr2002                   :
 energy of atom  1       EATOM= -147.1560
 kinetic energy error for atom=    0.0057 (will be added to EATOM!!)
  PAW_PBE O 08Apr2002                   :
 energy of atom  2       EATOM= -432.3788
 kinetic energy error for atom=    0.0168 (will be added to EATOM!!)


 POSCAR:  C  O
  positions in direct lattice
  No initial velocities read in
 exchange correlation table for  LEXCH =       40
   RHO(1)=    0.500       N(1)  =     2000
   RHO(2)=  100.500       N(2)  =     4000



--------------------------------------------------------------------------------------------------------


 ion  position               nearest neighbor table
   1  0.500  0.500  0.500-   2 1.18   3 1.18
   2  0.500  0.500  0.449-   1 1.18
   3  0.500  0.500  0.551-   1 1.18


IMPORTANT INFORMATION: All symmetrisations will be switched off!
NOSYMM: (Re-)initialisation of all symmetry stuff for point group C_1.


----------------------------------------------------------------------------------------

                                     Primitive cell                                     

  volume of cell :    9200.0000

  direct lattice vectors                    reciprocal lattice vectors
    20.000000000  0.000000000  0.000000000     0.050000000  0.000000000  0.000000000
     0.000000000 20.000000000  0.000000000     0.000000000  0.050000000  0.000000000
     0.000000000  0.000000000 23.000000000     0.000000000  0.000000000  0.043478261

  length of vectors
    20.000000000 20.000000000 23.000000000     0.050000000  0.050000000  0.043478261

  position of ions in fractional coordinates (direct lattice)
     0.500000001  0.499999997  0.499999817
     0.500000000  0.500000005  0.448744920
     0.499999999  0.499999998  0.551255263

  ion indices of the primitive-cell ions
   primitive index   ion index
                 1           1
                 2           2
                 3           3

----------------------------------------------------------------------------------------



 KPOINTS: pymatgen v2020.8.13 with grid density = 

Automatic generation of k-mesh.
 Grid dimensions read from file:
 generate k-points for:    1    1    1

 Generating k-lattice:

  Cartesian coordinates                     Fractional coordinates (reciprocal lattice)
     0.050000000  0.000000000  0.000000000     1.000000000  0.000000000  0.000000000
     0.000000000  0.050000000  0.000000000     0.000000000  1.000000000  0.000000000
     0.000000000  0.000000000  0.043478261     0.000000000  0.000000000  1.000000000

  Length of vectors
     0.050000000  0.050000000  0.043478261

  Shift w.r.t. Gamma in fractional coordinates (k-lattice)
     0.000000000  0.000000000  0.000000000

 
 Subroutine IBZKPT returns following result:
 ===========================================
 
 Found      1 irreducible k-points:
 
 Following reciprocal coordinates:
            Coordinates               Weight
  0.000000  0.000000  0.000000      1.000000
 
 Following cartesian coordinates:
            Coordinates               Weight
  0.000000  0.000000  0.000000      1.000000
 
 
 Subroutine IBZKPT_HF returns following result:
 ==============================================
 
 Found      1 k-points in 1st BZ
 the following      1 k-points will be used (e.g. in the exchange kernel)
 Following reciprocal coordinates:   # in IRBZ
  0.000000  0.000000  0.000000    1.00000000   1 t-inv F


--------------------------------------------------------------------------------------------------------




 Dimension of arrays:
   k-points           NKPTS =      1   k-points in BZ     NKDIM =      1   number of bands    NBANDS=     64
   number of dos      NEDOS =    301   number of ions     NIONS =      3
   non local maximal  LDIM  =      4   non local SUM 2l+1 LMDIM =      8
   total plane-waves  NPLWV = ******
   max r-space proj   IRMAX =      1   max aug-charges    IRDMAX=   7130
   dimension x,y,z NGX =   160 NGY =  160 NGZ =  192
   dimension x,y,z NGXF=   320 NGYF=  320 NGZF=  384
   support grid    NGXF=   320 NGYF=  320 NGZF=  384
   ions per type =               1   2
   NGX,Y,Z   is equivalent  to a cutoff of  13.30, 13.30, 13.88 a.u.
   NGXF,Y,Z  is equivalent  to a cutoff of  26.60, 26.60, 27.76 a.u.

 SYSTEM =  MgO-rocksalt                            
 POSCAR =   C  O                                   

--------------------------------------------------------------------------------------------------------


  energy-cutoff  :      600.00
  volume of cell :     9200.00
      direct lattice vectors                 reciprocal lattice vectors
    20.000000000  0.000000000  0.000000000     0.050000000  0.000000000  0.000000000
     0.000000000 20.000000000  0.000000000     0.000000000  0.050000000  0.000000000
     0.000000000  0.000000000 23.000000000     0.000000000  0.000000000  0.043478261

  length of vectors
    20.000000000 20.000000000 23.000000000     0.050000000  0.050000000  0.043478261



 k-points in units of 2pi/SCALE and weight: pymatgen v2020.8.13 with grid density = 
   0.00000000  0.00000000  0.00000000       1.000

 k-points in reciprocal lattice and weights: pymatgen v2020.8.13 with grid density = 
   0.00000000  0.00000000  0.00000000       1.000

 position of ions in fractional coordinates (direct lattice) 
   0.50000000  0.50000000  0.49999982
   0.50000000  0.50000000  0.44874492
   0.50000000  0.50000000  0.55125526

 position of ions in cartesian coordinates  (Angst):
  10.00000002  9.99999994 11.49999579
   9.99999999 10.00000009 10.32113316
   9.99999998  9.99999996 12.67887105



--------------------------------------------------------------------------------------------------------


--------------------------------------- Iteration      FINAL  ---------------------------------------


--------------------OUTCAR has been truncated-------------------------


--------------------OUTCAR has been truncated-------------------------


--------------------OUTCAR has been truncated-------------------------


--------------------OUTCAR has been truncated-------------------------


--------------------OUTCAR has been truncated-------------------------


--------------------OUTCAR has been truncated-------------------------


--------------------OUTCAR has been truncated-------------------------


--------------------OUTCAR has been truncated-------------------------


--------------------OUTCAR has been truncated-------------------------


--------------------OUTCAR has been truncated-------------------------


  FORCE on cell =-STRESS in cart. coord.  units (eV):
  Direction    XX          YY          ZZ          XY          YZ          ZX
  --------------------------------------------------------------------------------------
  Alpha Z     0.11627     0.11627     0.11627
  Ewald     -71.23219   -71.23219   704.71315    -0.00000    -0.00004    -0.00000
  Hartree   350.93692   350.93692   707.30346    -0.00000    -0.00002    -0.00000
  E(xc)     -77.66981   -77.66981   -73.96130     0.00000    -0.00000    -0.00000
  Local    -511.89413  -511.89413 -1572.69173    -0.00000     0.00006     0.00000
  n-local   -48.49383   -48.49383   -54.17639    -0.00000     0.00000     0.00000
  augment    13.55633    13.55633    10.76549     0.00000     0.00000     0.00000
  Kinetic   344.57639   344.57639   279.00361     0.00000     0.00000     0.00000
  Fock        0.00000     0.00000     0.00000     0.00000     0.00000     0.00000
  -------------------------------------------------------------------------------------
  Total      -0.10405    -0.10405     1.07255     0.00000    -0.00000    -0.00000
  in kB      -0.01812    -0.01812     0.18678     0.00000    -0.00000    -0.00000
  external pressure =        0.05 kB  Pullay stress =        0.00 kB


 VOLUME and BASIS-vectors are now :
 -----------------------------------------------------------------------------
  energy-cutoff  :      600.00
  volume of cell :     9200.00
      direct lattice vectors                 reciprocal lattice vectors
    20.000000000  0.000000000  0.000000000     0.050000000  0.000000000  0.000000000
     0.000000000 20.000000000  0.000000000     0.000000000  0.050000000  0.000000000
     0.000000000  0.000000000 23.000000000     0.000000000  0.000000000  0.043478261

  length of vectors
    20.000000000 20.000000000 23.000000000     0.050000000  0.050000000  0.043478261


 FORCES acting on ions:
    Electron-Ion                     Ewald-Force                    Non-Local-Force
 -----------------------------------------------------------------------------------------------
   -.137E-04 0.353E-04 0.333E+01   0.138E-04 -.354E-04 -.427E+01   -.446E-06 0.118E-05 0.438E-01
   0.374E-05 -.282E-04 0.278E+03   -.538E-05 0.368E-04 -.342E+03   0.184E-05 -.905E-05 0.639E+02
   0.617E-05 0.267E-05 -.281E+03   -.841E-05 -.135E-05 0.347E+03   0.241E-05 -.179E-05 -.645E+02
 -----------------------------------------------------------------------------------------------
   -.381E-05 0.975E-05 0.616E+00   0.167E-16 0.841E-17 0.000E+00   0.381E-05 -.966E-05 -.616E+00


 POSITION                                       TOTAL-FORCE (eV/Angst)
 -----------------------------------------------------------------------------------
     10.00000     10.00000     11.50000        -0.000000      0.000001     -0.890210
     10.00000     10.00000     10.32113         0.000000     -0.000001     -0.067824
     10.00000     10.00000     12.66887         0.000000     -0.000001      0.958034
 -----------------------------------------------------------------------------------
    total drift:                               -0.000000      0.000000      0.000426


--------------------------------------------------------------------------------------------------------



  FREE ENERGIE OF THE ION-ELECTRON SYSTEM (eV)
  ---------------------------------------------------
  free  energy   TOTEN  =       -17.14371467 eV

  energy  without entropy=      -17.14371467  energy(sigma->0) =      -17.14371467

 d Force =-0.6972729E-03[-0.192E-01, 0.178E-01]  d Energy =-0.2448544E-03-0.452E-03
 d Force =-0.6830599E+01[-0.693E+01,-0.673E+01]  d Ewald  =-0.6829817E+01-0.782E-03


--------------------------------------------------------------------------------------------------------


    POTLOK:  cpu time      1.7380: real time      1.7382


--------------------------------------------------------------------------------------------------------


 Finite differences progress:
  Degree of freedom:   9/  9
  Displacement:        2/  2
  Total:              18/ 18

 SECOND DERIVATIVES (NOT SYMMETRIZED)
 ------------------------------------
               1X          1Y          1Z          2X          2Y          2Z          3X          3Y          3Z 
  1X   -12.436288    0.000000    0.000004    6.217720   -0.000000    0.000069    6.218568    0.000000   -0.000073
  1Y    -0.003704  -12.433643   -0.000018    0.001853    6.216397    0.000729    0.001851    6.217246   -0.000712
  1Z     0.000000   -0.002079 -171.655338    0.000002    0.001238   85.832070   -0.000002    0.000840   85.823268
  2X     6.203300    0.000000   -0.002650   -3.085149   -0.000000    0.002952   -3.118150    0.000000   -0.000302
  2Y     0.000018    6.204770    0.000657   -0.000001   -3.090441    0.000048   -0.000017   -3.114328   -0.000706
  2Z     0.000001   -0.000768   85.852085   -0.000002    0.004533  -92.337885    0.000000   -0.003765    6.485800
  3X     6.205228   -0.000000    0.004390   -3.116485   -0.000000   -0.001130   -3.088743    0.000001   -0.003261
  3Y     0.000010    6.205605   -0.000668   -0.000024   -3.114330    0.000702    0.000014   -3.091274   -0.000035
  3Z    -0.000002    0.001587   85.861523   -0.000000    0.000579    6.455527    0.000002   -0.002167  -92.317051


 Eigenvectors and eigenvalues of the dynamical matrix
 ----------------------------------------------------


   1 f  =   69.313136 THz   435.507275 2PiTHz 2312.037333 cm-1   286.655966 meV
             X         Y         Z           dx          dy          dz
     10.000000 10.000000 11.499996     0.000000    0.000005    0.852657  
     10.000000 10.000000 10.321133     0.000006   -0.000000   -0.369460  
     10.000000 10.000000 12.678871    -0.000009   -0.000004   -0.369426  

   2 f  =   38.847681 THz   244.087181 2PiTHz 1295.819167 cm-1   160.661028 meV
             X         Y         Z           dx          dy          dz
     10.000000 10.000000 11.499996    -0.000001   -0.000006   -0.000068  
     10.000000 10.000000 10.321133     0.000012    0.000018   -0.707153  
     10.000000 10.000000 12.678871     0.000008   -0.000002    0.707061  

   3 f  =   18.650658 THz   117.185538 2PiTHz  622.118971 cm-1    77.132887 meV
             X         Y         Z           dx          dy          dz
     10.000000 10.000000 11.499996    -0.730109   -0.441001   -0.000003  
     10.000000 10.000000 10.321133     0.315888    0.190808    0.000001  
     10.000000 10.000000 12.678871     0.315989    0.190834   -0.000018  

   4 f  =   18.648367 THz   117.171148 2PiTHz  622.042580 cm-1    77.123416 meV
             X         Y         Z           dx          dy          dz
     10.000000 10.000000 11.499996     0.440993   -0.730055   -0.000007  
     10.000000 10.000000 10.321133    -0.190799    0.315979   -0.000010  
     10.000000 10.000000 12.678871    -0.190860    0.316022   -0.000016  

   5 f  =    0.061572 THz     0.386868 2PiTHz    2.053818 cm-1     0.254641 meV
             X         Y         Z           dx          dy          dz
     10.000000 10.000000 11.499996    -0.000057   -0.001120    0.519730  
     10.000000 10.000000 10.321133    -0.000025   -0.073600    0.599690  
     10.000000 10.000000 12.678871    -0.000106    0.071063    0.599821  

   6 f  =    0.018955 THz     0.119099 2PiTHz    0.632276 cm-1     0.078392 meV
             X         Y         Z           dx          dy          dz
     10.000000 10.000000 11.499996     0.521467   -0.016775    0.000026  
     10.000000 10.000000 10.321133     0.580652   -0.019365    0.000034  
     10.000000 10.000000 12.678871     0.624406   -0.019394    0.000018  

   7 f/i=    0.007905 THz     0.049668 2PiTHz    0.263680 cm-1     0.032692 meV
             X         Y         Z           dx          dy          dz
     10.000000 10.000000 11.499996    -0.016711   -0.521781   -0.001109  
     10.000000 10.000000 10.321133    -0.018795   -0.602745   -0.001284  
     10.000000 10.000000 12.678871    -0.020001   -0.602833   -0.001275  

   8 f/i=    0.601964 THz     3.782251 2PiTHz   20.079357 cm-1     2.489522 meV
             X         Y         Z           dx          dy          dz
     10.000000 10.000000 11.499996     0.000049    0.000112   -0.053443  
     10.000000 10.000000 10.321133     0.001527   -0.703317   -0.061678  
     10.000000 10.000000 12.678871    -0.001413    0.703475   -0.061671  

   9 f/i=    0.681445 THz     4.281647 2PiTHz   22.730570 cm-1     2.818230 meV
             X         Y         Z           dx          dy          dz
     10.000000 10.000000 11.499996    -0.016085    0.000074   -0.000074  
     10.000000 10.000000 10.321133    -0.725465   -0.001382   -0.000102  
     10.000000 10.000000 12.678871     0.688068    0.001553   -0.000098  

 Finite differences POTIM=   1.0000000000000000E-002
     LOOP+:  cpu time     59.8108: real time     59.9546
    4ORBIT:  cpu time      0.0000: real time      0.0000

 total amount of memory used by VASP MPI-rank0    82681. kBytes
=======================================================================

   base      :      30000. kBytes
   nonl-proj :       3379. kBytes
   fftplans  :      16846. kBytes
   grid      :      31534. kBytes
   one-center:          1. kBytes
   wavefun   :        921. kBytes

  
  
 General timing and accounting informations for this job:
 ========================================================
  
                  Total CPU time used (sec):     1228.617
                            User time (sec):     1215.630
                          System time (sec):       12.987
                         Elapsed time (sec):     1245.223
  
                   Maximum memory used (kb):      333628.
                   Average memory used (kb):          N/A
  
                          Minor page faults:      1328522
                          Major page faults:            0
                 Voluntary context switches:        23006
