 vasp.6.3.0 20Jan22 (build Aug 21 2024 11:13:42) complex                         
 executed on        HPECrayEX_GCC date 2024.11.27  01:46:18
 running  512 mpi-ranks, with    1 threads/rank
 distrk:  each k-point on  512 cores,    1 groups
 distr:  one band on NCORE=  16 cores,   32 groups


--------------------------------------------------------------------------------------------------------


 INCAR:
   SYSTEM = TiO2
   ISMEAR = 0
   SIGMA = 0.05
   EDIFF = 1E-4
   ALGO = ALL
   ISTART = 0
   IBRION = -1
   NSW = 0
   ISYM = 0
   ISIF = 2
   EDIFFG = -0.01
   DIPOL = 0.5 0.5 0.5
   IDIPOL = 3
   LDIPOL = .TRUE.
   METAGGA = R2SCAN
   LUSE_VDW = .TRUE.
   BPARAM = 11.95
   CPARAM = 0.0093
   LASPH = .TRUE.
   ENCUT = 600
   PREC = Accurate
   LASPH = .TRUE.
   LREAL = .FALSE.
   ISPIN = 1
   NELM = 200
   NELMIN = 8
   NCORE = 16
   KPAR = 1
   LWAVE = .FALSE.
   LCHARG = .FALSE.

 POTCAR:    PAW_PBE C 08Apr2002                   
 POTCAR:    PAW_PBE O 08Apr2002                   
 POTCAR:    PAW_PBE H 15Jun2001                   
 POTCAR:    PAW_PBE Ti_pv 07Sep2000               
 POTCAR:    PAW_PBE O 08Apr2002                   
 -----------------------------------------------------------------------------
|                                                                             |
|               ----> ADVICE to this user running VASP <----                  |
|                                                                             |
|     You have switched on vdW-DFT.                                           |
|     This routine was written and supplied by Jiri Klimes. We recommend      |
|     that you carefully read and cite the following publications:            |
|       J. Klimes, D.R. Bowler, A. Michelides                                 |
|          J. Phys.: Cond Matt. 22 022201 (2010)                              |
|       J. Klimes, D.R. Bowler, A. Michelides                                 |
|          Phys. Rev. B. 83, 195131 (2011)                                    |
|     and references therein.                                                 |
|                                                                             |
 -----------------------------------------------------------------------------

 POTCAR:    PAW_PBE C 08Apr2002                   
   SHA256 =  253f7b50bb8d59471dbedb8285d89021f4a42ed1a2c5d38a03a736e69125dd95 C/POTCAR              
   COPYR  = (c) Copyright 08Apr2002 Georg Kresse                                                    
   COPYR  = This file is part of the software VASP. Any use, copying, and all other rights are regul
   COPYR  = If you do not have a valid VASP license, you may not use, copy or distribute this file. 
   VRHFIN =C: s2p2                                                                                  
   LEXCH  = PE                                                                                      
   EATOM  =   147.1560 eV,   10.8157 Ry                                                             
                                                                                                    
   TITEL  = PAW_PBE C 08Apr2002                                                                     
   LULTRA =        F    use ultrasoft PP ?                                                          
   IUNSCR =        1    unscreen: 0-lin 1-nonlin 2-no                                               
   RPACOR =    1.200    partial core radius                                                         
   POMASS =   12.011; ZVAL   =    4.000    mass and valenz                                          
   RCORE  =    1.500    outmost cutoff radius                                                       
   RWIGS  =    1.630; RWIGS  =    0.863    wigner-seitz radius (au A)                               
   ENMAX  =  400.000; ENMIN  =  300.000 eV                                                          
   ICORE  =        2    local potential                                                             
   LCOR   =        T    correct aug charges                                                         
   LPAW   =        T    paw PP                                                                      
   EAUG   =  644.873                                                                                
   DEXC   =    0.000                                                                                
   RMAX   =    1.529    core radius for proj-oper                                                   
   RAUG   =    1.300    factor for augmentation sphere                                              
   RDEP   =    1.501    radius for radial grids                                                     
   RDEPT  =    1.300    core radius for aug-charge                                                  
                                                                                                    
   Atomic configuration                                                                             
    4 entries                                                                                       
     n  l   j            E        occ.                                                              
     1  0  0.50      -273.3789   2.0000                                                             
     2  0  0.50       -13.7508   2.0000                                                             
     2  1  0.50        -5.2854   2.0000                                                             
     3  2  1.50        -5.4423   0.0000                                                             
   Description                                                                                      
     l       E           TYP  RCUT    TYP  RCUT                                                     
     0    -13.7508458     23  1.200                                                                 
     0     -8.2022199     23  1.200                                                                 
     1     -5.2854383     23  1.500                                                                 
     1     34.0145650     23  1.500                                                                 
     2     -5.4423304      7  1.500                                                                 
  local pseudopotential read in
  partial core-charges read in
  partial kinetic energy density read in
  atomic valenz-charges read in
  non local Contribution for L=           0  read in
    real space projection operators read in
  non local Contribution for L=           0  read in
    real space projection operators read in
  non local Contribution for L=           1  read in
    real space projection operators read in
  non local Contribution for L=           1  read in
    real space projection operators read in
    PAW grid and wavefunctions read in

   number of l-projection  operators is LMAX  =           4
   number of lm-projection operators is LMMAX =           8

 POTCAR:    PAW_PBE O 08Apr2002                   
   SHA256 =  818f92134a0a090dccd8ba1447fa70422a3b330e708bb4f08108d8ae51209ddf O/POTCAR              
   COPYR  = (c) Copyright 08Apr2002 Georg Kresse                                                    
   COPYR  = This file is part of the software VASP. Any use, copying, and all other rights are regul
   COPYR  = If you do not have a valid VASP license, you may not use, copy or distribute this file. 
   VRHFIN =O: s2p4                                                                                  
   LEXCH  = PE                                                                                      
   EATOM  =   432.3788 eV,   31.7789 Ry                                                             
                                                                                                    
   TITEL  = PAW_PBE O 08Apr2002                                                                     
   LULTRA =        F    use ultrasoft PP ?                                                          
   IUNSCR =        1    unscreen: 0-lin 1-nonlin 2-no                                               
   RPACOR =    1.200    partial core radius                                                         
   POMASS =   16.000; ZVAL   =    6.000    mass and valenz                                          
   RCORE  =    1.520    outmost cutoff radius                                                       
   RWIGS  =    1.550; RWIGS  =    0.820    wigner-seitz radius (au A)                               
   ENMAX  =  400.000; ENMIN  =  300.000 eV                                                          
   ICORE  =        2    local potential                                                             
   LCOR   =        T    correct aug charges                                                         
   LPAW   =        T    paw PP                                                                      
   EAUG   =  605.392                                                                                
   DEXC   =    0.000                                                                                
   RMAX   =    1.553    core radius for proj-oper                                                   
   RAUG   =    1.300    factor for augmentation sphere                                              
   RDEP   =    1.550    radius for radial grids                                                     
   RDEPT  =    1.329    core radius for aug-charge                                                  
                                                                                                    
   Atomic configuration                                                                             
    4 entries                                                                                       
     n  l   j            E        occ.                                                              
     1  0  0.50      -514.6923   2.0000                                                             
     2  0  0.50       -23.9615   2.0000                                                             
     2  1  0.50        -9.0305   4.0000                                                             
     3  2  1.50        -9.5241   0.0000                                                             
   Description                                                                                      
     l       E           TYP  RCUT    TYP  RCUT                                                     
     0    -23.9615318     23  1.200                                                                 
     0     -9.5240782     23  1.200                                                                 
     1     -9.0304911     23  1.520                                                                 
     1      8.1634956     23  1.520                                                                 
     2     -9.5240782      7  1.500                                                                 
  local pseudopotential read in
  partial core-charges read in
  partial kinetic energy density read in
  kinetic energy density of atom read in
  atomic valenz-charges read in
  non local Contribution for L=           0  read in
    real space projection operators read in
  non local Contribution for L=           0  read in
    real space projection operators read in
  non local Contribution for L=           1  read in
    real space projection operators read in
  non local Contribution for L=           1  read in
    real space projection operators read in
    PAW grid and wavefunctions read in

   number of l-projection  operators is LMAX  =           4
   number of lm-projection operators is LMMAX =           8

 POTCAR:    PAW_PBE H 15Jun2001                   
   SHA256 =  030f79b5d3ab3cf0e668861823c8fb652ff669f3e15e46930bd03bfd63a607b6 H/POTCAR              
   COPYR  = (c) Copyright 15Jun2001 Georg Kresse                                                    
   COPYR  = This file is part of the software VASP. Any use, copying, and all other rights are regul
   COPYR  = If you do not have a valid VASP license, you may not use, copy or distribute this file. 
   VRHFIN =H: ultrasoft test                                                                        
   LEXCH  = PE                                                                                      
   EATOM  =    12.4884 eV,    0.9179 Ry                                                             
                                                                                                    
   TITEL  = PAW_PBE H 15Jun2001                                                                     
   LULTRA =        F    use ultrasoft PP ?                                                          
   IUNSCR =        0    unscreen: 0-lin 1-nonlin 2-no                                               
   RPACOR =    0.000    partial core radius                                                         
   POMASS =    1.000; ZVAL   =    1.000    mass and valenz                                          
   RCORE  =    1.100    outmost cutoff radius                                                       
   RWIGS  =    0.700; RWIGS  =    0.370    wigner-seitz radius (au A)                               
   ENMAX  =  250.000; ENMIN  =  200.000 eV                                                          
   RCLOC  =    0.701    cutoff for local pot                                                        
   LCOR   =        T    correct aug charges                                                         
   LPAW   =        T    paw PP                                                                      
   EAUG   =  400.000                                                                                
   RMAX   =    1.123    core radius for proj-oper                                                   
   RAUG   =    1.200    factor for augmentation sphere                                              
   RDEP   =    1.112    radius for radial grids                                                     
   RDEPT  =    0.926    core radius for aug-charge                                                  
                                                                                                    
   Atomic configuration                                                                             
    2 entries                                                                                       
     n  l   j            E        occ.                                                              
     1  0  0.50        -6.4927   1.0000                                                             
     2  1  0.50        -3.4015   0.0000                                                             
   Description                                                                                      
     l       E           TYP  RCUT    TYP  RCUT                                                     
     0     -6.4927494     23  1.100                                                                 
     0      6.8029130     23  1.100                                                                 
     1     -4.0817478     23  1.100                                                                 
  local pseudopotential read in
  atomic valenz-charges read in
  non local Contribution for L=           0  read in
    real space projection operators read in
  non local Contribution for L=           0  read in
    real space projection operators read in
  non local Contribution for L=           1  read in
    real space projection operators read in
    PAW grid and wavefunctions read in

   number of l-projection  operators is LMAX  =           3
   number of lm-projection operators is LMMAX =           5

 POTCAR:    PAW_PBE Ti_pv 07Sep2000               
   SHA256 =  f757a1b2c6d082f4c628fa3d987464a8763bf92e53844ac0500b0e2ddc9ce5c0 Ti_pv/POTCAR          
   COPYR  = (c) Copyright 07Sep2000 Georg Kresse                                                    
   COPYR  = This file is part of the software VASP. Any use, copying, and all other rights are regul
   COPYR  = If you do not have a valid VASP license, you may not use, copy or distribute this file. 
   VRHFIN =Ti: d3 s1                                                                                
   LEXCH  = PE                                                                                      
   EATOM  =  1042.5995 eV,   76.6289 Ry                                                             
                                                                                                    
   TITEL  = PAW_PBE Ti_pv 07Sep2000                                                                 
   LULTRA =        F    use ultrasoft PP ?                                                          
   IUNSCR =        1    unscreen: 0-lin 1-nonlin 2-no                                               
   RPACOR =    2.200    partial core radius                                                         
   POMASS =   47.880; ZVAL   =   10.000    mass and valenz                                          
   RCORE  =    2.500    outmost cutoff radius                                                       
   RWIGS  =    2.500; RWIGS  =    1.323    wigner-seitz radius (au A)                               
   ENMAX  =  222.335; ENMIN  =  166.751 eV                                                          
   RCLOC  =    1.701    cutoff for local pot                                                        
   LCOR   =        T    correct aug charges                                                         
   LPAW   =        T    paw PP                                                                      
   EAUG   =  482.848                                                                                
   DEXC   =    0.000                                                                                
   RMAX   =    2.564    core radius for proj-oper                                                   
   RAUG   =    1.300    factor for augmentation sphere                                              
   RDEP   =    2.538    radius for radial grids                                                     
   RDEPT  =    1.952    core radius for aug-charge                                                  
                                                                                                    
   Atomic configuration                                                                             
    8 entries                                                                                       
     n  l   j            E        occ.                                                              
     1  0  0.50     -4865.3608   2.0000                                                             
     2  0  0.50      -533.1368   2.0000                                                             
     2  1  1.50      -440.5031   6.0000                                                             
     3  0  0.50       -59.3186   2.0000                                                             
     3  1  1.50       -35.7012   6.0000                                                             
     3  2  2.50        -1.9157   3.0000                                                             
     4  0  0.50        -3.7291   1.0000                                                             
     4  3  2.50        -1.3606   0.0000                                                             
   Description                                                                                      
     l       E           TYP  RCUT    TYP  RCUT                                                     
     1    -35.7012140     23  2.300                                                                 
     1     -1.3605826     23  2.300                                                                 
     2     -1.9156996     23  2.500                                                                 
     2     -0.4063033     23  2.500                                                                 
     0     -3.7290856     23  2.500                                                                 
     0     20.4087390     23  2.500                                                                 
  local pseudopotential read in
  partial core-charges read in
  partial kinetic energy density read in
  atomic valenz-charges read in
  non local Contribution for L=           1  read in
    real space projection operators read in
  non local Contribution for L=           1  read in
    real space projection operators read in
  non local Contribution for L=           2  read in
    real space projection operators read in
  non local Contribution for L=           2  read in
    real space projection operators read in
  non local Contribution for L=           0  read in
    real space projection operators read in
  non local Contribution for L=           0  read in
    real space projection operators read in
    PAW grid and wavefunctions read in

   number of l-projection  operators is LMAX  =           6
   number of lm-projection operators is LMMAX =          18

 POTCAR:    PAW_PBE O 08Apr2002                   
   SHA256 =  818f92134a0a090dccd8ba1447fa70422a3b330e708bb4f08108d8ae51209ddf O/POTCAR              
   COPYR  = (c) Copyright 08Apr2002 Georg Kresse                                                    
   COPYR  = This file is part of the software VASP. Any use, copying, and all other rights are regul
   COPYR  = If you do not have a valid VASP license, you may not use, copy or distribute this file. 
   VRHFIN =O: s2p4                                                                                  
   LEXCH  = PE                                                                                      
   EATOM  =   432.3788 eV,   31.7789 Ry                                                             
                                                                                                    
   TITEL  = PAW_PBE O 08Apr2002                                                                     
   LULTRA =        F    use ultrasoft PP ?                                                          
   IUNSCR =        1    unscreen: 0-lin 1-nonlin 2-no                                               
   RPACOR =    1.200    partial core radius                                                         
   POMASS =   16.000; ZVAL   =    6.000    mass and valenz                                          
   RCORE  =    1.520    outmost cutoff radius                                                       
   RWIGS  =    1.550; RWIGS  =    0.820    wigner-seitz radius (au A)                               
   ENMAX  =  400.000; ENMIN  =  300.000 eV                                                          
   ICORE  =        2    local potential                                                             
   LCOR   =        T    correct aug charges                                                         
   LPAW   =        T    paw PP                                                                      
   EAUG   =  605.392                                                                                
   DEXC   =    0.000                                                                                
   RMAX   =    1.553    core radius for proj-oper                                                   
   RAUG   =    1.300    factor for augmentation sphere                                              
   RDEP   =    1.550    radius for radial grids                                                     
   RDEPT  =    1.329    core radius for aug-charge                                                  
                                                                                                    
   Atomic configuration                                                                             
    4 entries                                                                                       
     n  l   j            E        occ.                                                              
     1  0  0.50      -514.6923   2.0000                                                             
     2  0  0.50       -23.9615   2.0000                                                             
     2  1  0.50        -9.0305   4.0000                                                             
     3  2  1.50        -9.5241   0.0000                                                             
   Description                                                                                      
     l       E           TYP  RCUT    TYP  RCUT                                                     
     0    -23.9615318     23  1.200                                                                 
     0     -9.5240782     23  1.200                                                                 
     1     -9.0304911     23  1.520                                                                 
     1      8.1634956     23  1.520                                                                 
     2     -9.5240782      7  1.500                                                                 
  local pseudopotential read in
  partial core-charges read in
  partial kinetic energy density read in
  kinetic energy density of atom read in
  atomic valenz-charges read in
  non local Contribution for L=           0  read in
    real space projection operators read in
  non local Contribution for L=           0  read in
    real space projection operators read in
  non local Contribution for L=           1  read in
    real space projection operators read in
  non local Contribution for L=           1  read in
    real space projection operators read in
    PAW grid and wavefunctions read in

   number of l-projection  operators is LMAX  =           4
   number of lm-projection operators is LMMAX =           8

 -----------------------------------------------------------------------------
|                                                                             |
|               ----> ADVICE to this user running VASP <----                  |
|                                                                             |
|     You have a (more or less) 'large supercell' and for larger cells it     |
|     might be more efficient to use real-space projection operators.         |
|     Therefore, try LREAL= Auto in the INCAR file.                           |
|     Mind: For very accurate calculation, you might also keep the            |
|     reciprocal projection scheme (i.e. LREAL=.FALSE.).                      |
|                                                                             |
 -----------------------------------------------------------------------------

  PAW_PBE C 08Apr2002                   :
 energy of atom  1       EATOM= -147.1560
 kinetic energy error for atom=    0.0057 (will be added to EATOM!!)
  PAW_PBE O 08Apr2002                   :
 energy of atom  2       EATOM= -432.3788
 kinetic energy error for atom=    0.0168 (will be added to EATOM!!)
  PAW_PBE H 15Jun2001                   :
 energy of atom  3       EATOM=  -12.4884
 kinetic energy error for atom=    0.0004 (will be added to EATOM!!)
  PAW_PBE Ti_pv 07Sep2000               :
 energy of atom  4       EATOM=-1042.5995
 kinetic energy error for atom=    0.0007 (will be added to EATOM!!)
  PAW_PBE O 08Apr2002                   :
 energy of atom  5       EATOM= -432.3788
 kinetic energy error for atom=    0.0168 (will be added to EATOM!!)


 POSCAR:  C  O  H Ti  O
  positions in direct lattice
  No initial velocities read in

 METAGGA = R2SCA    LMAXTAU =  6    LMIXTAU =  F

 exchange correlation table for  LEXCH =        8
   RHO(1)=    0.500       N(1)  =     2000
   RHO(2)=  100.500       N(2)  =     4000



--------------------------------------------------------------------------------------------------------


 ion  position               nearest neighbor table
   1  0.509  0.589  0.844-   3 1.09   5 1.09   6 1.09   2 1.43
   2  0.538  0.500  0.811-   4 0.99   1 1.43  86 2.13
   3  0.425  0.598  0.842-   1 1.09
   4  0.615  0.493  0.810-   2 0.99
   5  0.532  0.566  0.881-   1 1.09
   6  0.547  0.669  0.834-   1 1.09
   7  0.750  0.625  0.265-  87 1.94  88 1.94 147 1.94 148 1.94 169 1.96  90 1.96  17 2.94  37 2.94

   8  0.000  0.750  0.265-  90 1.94 110 1.94 109 1.94  89 1.94  91 1.96  38 2.94  18 2.94
   9  0.000  0.625  0.382-  91 1.94  92 1.94 151 1.94 152 1.94  93 1.96  94 1.96  19 2.94  39 2.94

  10  0.750  0.750  0.382- 174 1.94 194 1.94  93 1.94 113 1.94  95 1.96  88 1.96  20 2.94  40 2.94

  11  0.750  0.625  0.500-  95 1.94  96 1.94 155 1.94 156 1.94 177 1.96  98 1.96  21 2.94  41 2.94

  12  0.000  0.750  0.500-  98 1.94 118 1.94 117 1.94  97 1.94  92 1.96  99 1.98  22 2.94  42 2.94

  13  0.000  0.625  0.616-  99 1.89 159 1.89 102 1.93 101 1.94 100 2.00 160 2.00  23 2.94  43 2.94

  14  0.750  0.750  0.622- 103 1.87 182 1.95 202 1.95 101 1.96 121 1.96  96 2.07  24 2.94  44 2.94

  15  0.751  0.626  0.742- 104 1.83 164 1.86 185 1.99 106 2.01 103 2.05 163 2.06  25 2.93  45 2.97

  16  1.000  0.750  0.731- 100 1.81 125 1.92 126 1.93 105 1.93 106 1.94  26 2.94  46 2.94
  17  0.750  0.875  0.265-  87 1.94  88 1.94 107 1.94 108 1.94 189 1.96 110 1.96   7 2.94  27 2.94

  18  0.000  0.000  0.265- 110 1.94 130 1.94 129 1.94 109 1.94 111 1.96  28 2.94   8 2.94
  19  0.000  0.875  0.382-  91 1.94  92 1.94 111 1.94 112 1.94 113 1.96 114 1.96   9 2.94  29 2.94

  20  0.750  0.000  0.382- 194 1.94 214 1.94 113 1.94 133 1.94 115 1.96 108 1.96  10 2.94  30 2.94

  21  0.750  0.875  0.500-  95 1.94  96 1.94 115 1.94 116 1.94 197 1.96 118 1.96  11 2.94  31 2.94

  22  0.000  0.000  0.500- 118 1.94 138 1.94 137 1.94 117 1.94 112 1.96 119 1.98  12 2.94  32 2.94

  23  0.000  0.875  0.616-  99 1.89 119 1.89 122 1.93 121 1.94 120 2.00 100 2.00  33 2.94  13 2.94

  24  0.750  0.000  0.622- 123 1.87 222 1.95 202 1.95 121 1.96 141 1.96 116 2.09  34 2.94  14 2.94

  25  0.750  0.875  0.743- 124 1.83 104 1.84 205 2.01 126 2.02 123 2.07 103 2.07  15 2.93  35 2.93

  26  0.000  1.000  0.731- 120 1.81 145 1.93 146 1.93 126 1.93 125 1.93  16 2.94  36 2.94
  27  0.750  0.125  0.265- 107 1.94 108 1.94 127 1.94 128 1.94 209 1.96 130 1.96  17 2.94  37 2.94

  28  0.000  0.250  0.265- 130 1.94 150 1.94 149 1.94 129 1.94 131 1.96  38 2.94  18 2.94
  29  0.000  0.125  0.382- 111 1.94 112 1.94 131 1.94 132 1.94 133 1.96 134 1.96  19 2.94  39 2.94

  30  0.750  0.250  0.382- 214 1.94 234 1.94 133 1.94 153 1.94 135 1.96 128 1.96  20 2.94  40 2.94

  31  0.750  0.125  0.500- 115 1.94 116 1.94 135 1.94 136 1.94 217 1.96 138 1.96  21 2.94  41 2.94

  32  0.000  0.250  0.500- 138 1.94 158 1.94 157 1.94 137 1.94 132 1.96 139 1.98  22 2.94  42 2.94

  33  0.000  0.125  0.616- 139 1.89 119 1.89 142 1.93 141 1.94 120 2.00 140 2.00  23 2.94  43 2.94

  34  0.750  0.250  0.622- 143 1.88 222 1.95 242 1.95 161 1.96 141 1.96 136 2.07  24 2.94  44 2.94

  35  0.750  0.124  0.743- 124 1.83 144 1.84 225 2.01 146 2.02 123 2.06 143 2.08  45 2.93  25 2.93

  36  1.000  0.250  0.731- 140 1.81 145 1.92 146 1.93 165 1.93 166 1.94  26 2.94  46 2.94
  37  0.750  0.375  0.265- 127 1.94 128 1.94 147 1.94 148 1.94 229 1.96 150 1.96   7 2.94  27 2.94

  38  0.000  0.500  0.265-  90 1.94 150 1.94 149 1.94  89 1.94 151 1.96  28 2.94   8 2.94
  39  0.000  0.375  0.382- 131 1.94 132 1.94 151 1.94 152 1.94 153 1.96 154 1.96   9 2.94  29 2.94

  40  0.750  0.500  0.382- 174 1.94 234 1.94  93 1.94 153 1.94 148 1.96 155 1.96  10 2.94  30 2.94

  41  0.750  0.375  0.500- 135 1.94 136 1.94 155 1.94 156 1.94 237 1.96 158 1.96  11 2.94  31 2.94

  42  0.000  0.500  0.500-  98 1.94 158 1.94 157 1.94  97 1.94 152 1.96 159 1.98  12 2.94  32 2.94

  43  0.000  0.375  0.616- 159 1.89 139 1.89 162 1.93 161 1.94 140 2.00 160 2.00  33 2.94  13 2.94

  44  0.751  0.500  0.622- 163 1.86 101 1.96 161 1.96 242 1.96 182 1.96 156 2.08  34 2.94  14 2.94

  45  0.751  0.373  0.742- 144 1.82 164 1.86 166 2.00 245 2.00 143 2.04 163 2.07  35 2.93  15 2.97

  46  0.001  0.500  0.731- 160 1.81 165 1.93 105 1.93 106 1.93 166 1.93  16 2.94  36 2.94
  47  0.250  0.625  0.265- 167 1.94 168 1.94 227 1.94 228 1.94  89 1.96 170 1.96  57 2.94  77 2.94

  48  0.500  0.750  0.265- 170 1.94 190 1.94 189 1.94 169 1.94 171 1.96  78 2.94  58 2.94
  49  0.500  0.625  0.382- 171 1.94 172 1.94 231 1.94 232 1.94 173 1.96 174 1.96  59 2.94  79 2.94

  50  0.250  0.750  0.382-  94 1.94 114 1.94 173 1.94 193 1.94 175 1.96 168 1.96  60 2.94  80 2.94

  51  0.250  0.625  0.500- 175 1.94 176 1.94 235 1.94 236 1.94  97 1.96 178 1.96  61 2.94  81 2.94

  52  0.500  0.750  0.500- 178 1.94 198 1.94 197 1.94 177 1.94 172 1.96 179 1.98  62 2.94  82 2.94

  53  0.500  0.623  0.617- 239 1.89 179 1.93 182 1.94 181 1.95 240 1.96 180 1.99  83 2.88  63 2.96

  54  0.250  0.750  0.622- 183 1.87 181 1.95 201 1.95 102 1.96 122 1.96 176 2.08  84 2.94  64 2.94

  55  0.250  0.625  0.743- 184 1.83 244 1.83 105 2.02 186 2.03 183 2.07 243 2.07  65 2.94  85 2.94

  56  0.500  0.750  0.730- 180 1.81 185 1.90 186 1.93 205 1.93 206 1.94  66 2.94  86 2.95
  57  0.250  0.875  0.265- 167 1.94 168 1.94 187 1.94 188 1.94 109 1.96 190 1.96  47 2.94  67 2.94

  58  0.500  0.000  0.265- 190 1.94 210 1.94 209 1.94 189 1.94 191 1.96  68 2.94  48 2.94
  59  0.500  0.875  0.382- 171 1.94 172 1.94 191 1.94 192 1.94 193 1.96 194 1.96  49 2.94  69 2.94

  60  0.250  0.000  0.382- 114 1.94 134 1.94 193 1.94 213 1.94 195 1.96 188 1.96  50 2.94  70 2.94

  61  0.250  0.875  0.500- 175 1.94 176 1.94 195 1.94 196 1.94 117 1.96 198 1.96  51 2.94  71 2.94

  62  0.500  0.000  0.500- 198 1.94 218 1.94 217 1.94 197 1.94 192 1.96 199 1.97  52 2.94  72 2.94

  63  0.500  0.874  0.614- 179 1.88 199 1.89 201 1.94 202 1.95 180 1.98 200 2.01  53 2.96  73 2.96

  64  0.250  1.000  0.622- 203 1.87 201 1.95 221 1.95 142 1.96 122 1.96 196 2.09  54 2.94  74 2.94

  65  0.251  0.875  0.743- 204 1.83 184 1.83 206 2.00 125 2.02 203 2.07 183 2.07  75 2.94  55 2.94

  66  0.500  1.000  0.730- 200 1.81 206 1.92 226 1.93 225 1.93 205 1.94  76 2.94  56 2.94
  67  0.250  0.125  0.265- 187 1.94 188 1.94 207 1.94 208 1.94 129 1.96 210 1.96  57 2.94  77 2.94

  68  0.500  0.250  0.265- 210 1.94 230 1.94 229 1.94 209 1.94 211 1.96  78 2.94  58 2.94
  69  0.500  0.125  0.382- 191 1.94 192 1.94 211 1.94 212 1.94 213 1.96 214 1.96  59 2.94  79 2.94

  70  0.250  0.250  0.382- 134 1.94 154 1.94 213 1.94 233 1.94 215 1.96 208 1.96  60 2.94  80 2.94

  71  0.250  0.125  0.500- 195 1.94 196 1.94 215 1.94 216 1.94 137 1.96 218 1.96  61 2.94  81 2.94

  72  0.500  0.250  0.500- 218 1.94 238 1.94 237 1.94 217 1.94 212 1.96 219 1.98  62 2.94  82 2.94

  73  0.500  0.126  0.615- 219 1.88 199 1.89 221 1.94 222 1.95 220 1.98 200 2.01  83 2.96  63 2.96

  74  0.250  0.250  0.622- 223 1.87 241 1.95 221 1.95 162 1.96 142 1.96 216 2.09  84 2.94  64 2.94

  75  0.250  0.125  0.743- 204 1.83 224 1.83 226 2.01 145 2.02 203 2.07 223 2.07  65 2.94  85 2.94

  76  0.500  0.250  0.730- 220 1.81 245 1.91 246 1.92 225 1.93 226 1.94  66 2.94  86 2.95
  77  0.250  0.375  0.265- 207 1.94 208 1.94 227 1.94 228 1.94 149 1.96 230 1.96  47 2.94  67 2.94

  78  0.500  0.500  0.265- 170 1.94 230 1.94 229 1.94 169 1.94 231 1.96  68 2.94  48 2.94
  79  0.500  0.375  0.382- 211 1.94 212 1.94 231 1.94 232 1.94 233 1.96 234 1.96  49 2.94  69 2.94

  80  0.250  0.500  0.382-  94 1.94 154 1.94 173 1.94 233 1.94 228 1.96 235 1.96  50 2.94  70 2.94

  81  0.250  0.375  0.500- 215 1.94 216 1.94 235 1.94 236 1.94 157 1.96 238 1.96  51 2.94  71 2.94

  82  0.500  0.500  0.500- 178 1.94 238 1.94 237 1.94 177 1.94 232 1.96 239 1.99  52 2.94  72 2.94

  83  0.500  0.377  0.617- 239 1.89 219 1.93 242 1.94 241 1.95 240 1.96 220 1.99  53 2.88  73 2.96

  84  0.250  0.500  0.622- 243 1.87 181 1.95 241 1.95 162 1.96 102 1.96 236 2.09  54 2.94  74 2.94

  85  0.250  0.375  0.743- 224 1.83 244 1.83 246 2.01 165 2.02 223 2.07 243 2.07  75 2.94  55 2.94

  86  0.502  0.500  0.736- 240 1.92 246 1.93 186 1.93 245 1.94 185 1.96   2 2.13  76 2.95  56 2.95

  87  0.750  0.750  0.219-   7 1.94  17 1.94
  88  0.750  0.750  0.311-   7 1.94  17 1.94  10 1.96
  89  0.098  0.625  0.265-   8 1.94  38 1.94  47 1.96
  90  0.902  0.625  0.265-   8 1.94  38 1.94   7 1.96
  91  0.000  0.750  0.336-   9 1.94  19 1.94   8 1.96
  92  0.000  0.750  0.428-   9 1.94  19 1.94  12 1.96
  93  0.848  0.625  0.382-  10 1.94  40 1.94   9 1.96
  94  0.152  0.625  0.382-  50 1.94  80 1.94   9 1.96
  95  0.750  0.750  0.454-  11 1.94  21 1.94  10 1.96
  96  0.750  0.750  0.546-  11 1.94  21 1.94  14 2.07
  97  0.098  0.625  0.500-  12 1.94  42 1.94  51 1.96
  98  0.902  0.625  0.500-  12 1.94  42 1.94  11 1.96
  99  0.000  0.750  0.572-  23 1.89  13 1.89  12 1.98
 100  0.999  0.750  0.665-  16 1.81  13 2.00  23 2.00
 101  0.850  0.625  0.618-  13 1.94  14 1.96  44 1.96
 102  0.150  0.625  0.619-  13 1.93  54 1.96  84 1.96
 103  0.754  0.751  0.690-  14 1.87  15 2.05  25 2.07
 104  0.748  0.749  0.783-  15 1.83  25 1.84
 105  0.094  0.625  0.743-  46 1.93  16 1.93  55 2.02
 106  0.906  0.624  0.744-  46 1.93  16 1.94  15 2.01
 107  0.750  0.000  0.219-  17 1.94  27 1.94
 108  0.750  0.000  0.311-  17 1.94  27 1.94  20 1.96
 109  0.098  0.875  0.265-   8 1.94  18 1.94  57 1.96
 110  0.902  0.875  0.265-   8 1.94  18 1.94  17 1.96
 111  0.000  0.000  0.336-  19 1.94  29 1.94  18 1.96
 112  0.000  0.000  0.428-  19 1.94  29 1.94  22 1.96
 113  0.848  0.875  0.382-  10 1.94  20 1.94  19 1.96
 114  0.152  0.875  0.382-  50 1.94  60 1.94  19 1.96
 115  0.750  0.000  0.454-  21 1.94  31 1.94  20 1.96
 116  0.750  0.000  0.546-  21 1.94  31 1.94  24 2.09
 117  0.098  0.875  0.500-  12 1.94  22 1.94  61 1.96
 118  0.902  0.875  0.500-  12 1.94  22 1.94  21 1.96
 119  0.000  0.000  0.572-  33 1.89  23 1.89  22 1.98
 120  1.000  1.000  0.665-  26 1.81  23 2.00  33 2.00
 121  0.850  0.876  0.618-  23 1.94  24 1.96  14 1.96
 122  0.150  0.875  0.619-  23 1.93  64 1.96  54 1.96
 123  0.750  1.000  0.690-  24 1.87  35 2.06  25 2.07
 124  0.750  1.000  0.783-  35 1.83  25 1.83
 125  0.094  0.875  0.743-  16 1.92  26 1.93  65 2.02
 126  0.906  0.875  0.743-  16 1.93  26 1.93  25 2.02
 127  0.750  0.250  0.219-  27 1.94  37 1.94
 128  0.750  0.250  0.311-  27 1.94  37 1.94  30 1.96
 129  0.098  0.125  0.265-  18 1.94  28 1.94  67 1.96
 130  0.902  0.125  0.265-  18 1.94  28 1.94  27 1.96
 131  0.000  0.250  0.336-  29 1.94  39 1.94  28 1.96
 132  0.000  0.250  0.428-  29 1.94  39 1.94  32 1.96
 133  0.848  0.125  0.382-  20 1.94  30 1.94  29 1.96
 134  0.152  0.125  0.382-  60 1.94  70 1.94  29 1.96
 135  0.750  0.250  0.454-  31 1.94  41 1.94  30 1.96
 136  0.750  0.250  0.546-  31 1.94  41 1.94  34 2.07
 137  0.098  0.125  0.500-  22 1.94  32 1.94  71 1.96
 138  0.902  0.125  0.500-  22 1.94  32 1.94  31 1.96
 139  0.000  0.250  0.572-  33 1.89  43 1.89  32 1.98
 140  0.999  0.250  0.665-  36 1.81  43 2.00  33 2.00
 141  0.850  0.125  0.618-  33 1.94  24 1.96  34 1.96
 142  0.150  0.125  0.619-  33 1.93  64 1.96  74 1.96
 143  0.753  0.249  0.690-  34 1.88  45 2.04  35 2.08
 144  0.749  0.251  0.783-  45 1.82  35 1.84
 145  0.094  0.125  0.743-  36 1.92  26 1.93  75 2.02
 146  0.906  0.125  0.743-  36 1.93  26 1.93  35 2.02
 147  0.750  0.500  0.219-   7 1.94  37 1.94
 148  0.750  0.500  0.311-   7 1.94  37 1.94  40 1.96
 149  0.098  0.375  0.265-  28 1.94  38 1.94  77 1.96
 150  0.902  0.375  0.265-  28 1.94  38 1.94  37 1.96
 151  0.000  0.500  0.336-   9 1.94  39 1.94  38 1.96
 152  0.000  0.500  0.428-   9 1.94  39 1.94  42 1.96
 153  0.848  0.375  0.382-  30 1.94  40 1.94  39 1.96
 154  0.152  0.375  0.382-  70 1.94  80 1.94  39 1.96
 155  0.750  0.500  0.454-  11 1.94  41 1.94  40 1.96
 156  0.750  0.500  0.546-  11 1.94  41 1.94  44 2.08
 157  0.098  0.375  0.500-  32 1.94  42 1.94  81 1.96
 158  0.902  0.375  0.500-  32 1.94  42 1.94  41 1.96
 159  0.000  0.500  0.572-  43 1.89  13 1.89  42 1.98
 160  1.000  0.500  0.665-  46 1.81  13 2.00  43 2.00
 161  0.850  0.375  0.618-  43 1.94  44 1.96  34 1.96
 162  0.150  0.375  0.619-  43 1.93  74 1.96  84 1.96
 163  0.755  0.500  0.690-  44 1.86  15 2.06  45 2.07
 164  0.739  0.500  0.783-  15 1.86  45 1.86
 165  0.094  0.375  0.743-  46 1.93  36 1.93  85 2.02
 166  0.906  0.376  0.744-  46 1.93  36 1.94  45 2.00
 167  0.250  0.750  0.219-  47 1.94  57 1.94
 168  0.250  0.750  0.311-  47 1.94  57 1.94  50 1.96
 169  0.598  0.625  0.265-  48 1.94  78 1.94   7 1.96
 170  0.402  0.625  0.265-  48 1.94  78 1.94  47 1.96
 171  0.500  0.750  0.336-  49 1.94  59 1.94  48 1.96
 172  0.500  0.750  0.428-  49 1.94  59 1.94  52 1.96
 173  0.348  0.625  0.382-  50 1.94  80 1.94  49 1.96
 174  0.652  0.625  0.382-  10 1.94  40 1.94  49 1.96
 175  0.250  0.750  0.454-  51 1.94  61 1.94  50 1.96
 176  0.250  0.750  0.546-  51 1.94  61 1.94  54 2.08
 177  0.598  0.625  0.500-  52 1.94  82 1.94  11 1.96
 178  0.402  0.625  0.500-  52 1.94  82 1.94  51 1.96
 179  0.500  0.749  0.572-  63 1.88  53 1.93  52 1.98
 180  0.498  0.752  0.664-  56 1.81  63 1.98  53 1.99
 181  0.349  0.625  0.618-  53 1.95  84 1.95  54 1.95
 182  0.651  0.625  0.619-  53 1.94  14 1.95  44 1.96
 183  0.251  0.750  0.690-  54 1.87  55 2.07  65 2.07
 184  0.251  0.750  0.783-  55 1.83  65 1.83
 185  0.597  0.630  0.736-  56 1.90  86 1.96  15 1.99
 186  0.407  0.626  0.743-  56 1.93  86 1.93  55 2.03
 187  0.250  0.000  0.219-  57 1.94  67 1.94
 188  0.250  0.000  0.311-  57 1.94  67 1.94  60 1.96
 189  0.598  0.875  0.265-  48 1.94  58 1.94  17 1.96
 190  0.402  0.875  0.265-  48 1.94  58 1.94  57 1.96
 191  0.500  0.000  0.336-  59 1.94  69 1.94  58 1.96
 192  0.500  0.000  0.428-  59 1.94  69 1.94  62 1.96
 193  0.348  0.875  0.382-  50 1.94  60 1.94  59 1.96
 194  0.652  0.875  0.382-  10 1.94  20 1.94  59 1.96
 195  0.250  0.000  0.454-  61 1.94  71 1.94  60 1.96
 196  0.250  0.000  0.546-  61 1.94  71 1.94  64 2.09
 197  0.598  0.875  0.500-  52 1.94  62 1.94  21 1.96
 198  0.402  0.875  0.500-  52 1.94  62 1.94  61 1.96
 199  0.500  0.000  0.572-  63 1.89  73 1.89  62 1.97
 200  0.500  1.000  0.664-  66 1.81  73 2.01  63 2.01
 201  0.349  0.875  0.618-  63 1.94  64 1.95  54 1.95
 202  0.650  0.875  0.618-  63 1.95  14 1.95  24 1.95
 203  0.250  1.000  0.690-  64 1.87  65 2.07  75 2.07
 204  0.249  1.000  0.783-  65 1.83  75 1.83
 205  0.594  0.875  0.742-  56 1.93  66 1.94  25 2.01
 206  0.406  0.876  0.742-  66 1.92  56 1.94  65 2.00
 207  0.250  0.250  0.219-  67 1.94  77 1.94
 208  0.250  0.250  0.311-  67 1.94  77 1.94  70 1.96
 209  0.598  0.125  0.265-  58 1.94  68 1.94  27 1.96
 210  0.402  0.125  0.265-  58 1.94  68 1.94  67 1.96
 211  0.500  0.250  0.336-  69 1.94  79 1.94  68 1.96
 212  0.500  0.250  0.428-  69 1.94  79 1.94  72 1.96
 213  0.348  0.125  0.382-  60 1.94  70 1.94  69 1.96
 214  0.652  0.125  0.382-  20 1.94  30 1.94  69 1.96
 215  0.250  0.250  0.454-  71 1.94  81 1.94  70 1.96
 216  0.250  0.250  0.546-  71 1.94  81 1.94  74 2.09
 217  0.598  0.125  0.500-  62 1.94  72 1.94  31 1.96
 218  0.402  0.125  0.500-  62 1.94  72 1.94  71 1.96
 219  0.500  0.252  0.572-  73 1.88  83 1.93  72 1.98
 220  0.499  0.248  0.664-  76 1.81  73 1.98  83 1.99
 221  0.349  0.125  0.618-  73 1.94  64 1.95  74 1.95
 222  0.650  0.125  0.618-  73 1.95  34 1.95  24 1.95
 223  0.250  0.250  0.690-  74 1.87  85 2.07  75 2.07
 224  0.250  0.250  0.783-  85 1.83  75 1.83
 225  0.594  0.125  0.742-  76 1.93  66 1.93  35 2.01
 226  0.406  0.124  0.742-  66 1.93  76 1.94  75 2.01
 227  0.250  0.500  0.219-  47 1.94  77 1.94
 228  0.250  0.500  0.311-  47 1.94  77 1.94  80 1.96
 229  0.598  0.375  0.265-  68 1.94  78 1.94  37 1.96
 230  0.402  0.375  0.265-  68 1.94  78 1.94  77 1.96
 231  0.500  0.500  0.336-  49 1.94  79 1.94  78 1.96
 232  0.500  0.500  0.428-  49 1.94  79 1.94  82 1.96
 233  0.348  0.375  0.382-  70 1.94  80 1.94  79 1.96
 234  0.652  0.375  0.382-  30 1.94  40 1.94  79 1.96
 235  0.250  0.500  0.454-  51 1.94  81 1.94  80 1.96
 236  0.250  0.500  0.546-  51 1.94  81 1.94  84 2.09
 237  0.598  0.375  0.500-  72 1.94  82 1.94  41 1.96
 238  0.402  0.375  0.500-  72 1.94  82 1.94  81 1.96
 239  0.500  0.500  0.573-  53 1.89  83 1.89  82 1.99
 240  0.499  0.500  0.666-  86 1.92  53 1.96  83 1.96
 241  0.349  0.375  0.619-  83 1.95  74 1.95  84 1.95
 242  0.651  0.375  0.619-  83 1.94  34 1.95  44 1.96
 243  0.249  0.500  0.690-  84 1.87  55 2.07  85 2.07
 244  0.252  0.500  0.783-  55 1.83  85 1.83
 245  0.596  0.371  0.738-  76 1.91  86 1.94  45 2.00
 246  0.406  0.374  0.742-  76 1.92  86 1.93  85 2.01


IMPORTANT INFORMATION: All symmetrisations will be switched off!
NOSYMM: (Re-)initialisation of all symmetry stuff for point group C_1.


----------------------------------------------------------------------------------------

                                     Primitive cell                                     

  volume of cell :    4157.1448

  direct lattice vectors                    reciprocal lattice vectors
    12.893495846  0.000000000  0.000000000     0.077558485  0.000000000  0.000000000
     0.000000000 11.761907618  0.000000000     0.000000000  0.085020222  0.000000000
     0.000000000  0.000000000 27.412377441     0.000000000  0.000000000  0.036479871

  length of vectors
    12.893495846 11.761907618 27.412377441     0.077558485  0.085020222  0.036479871

  position of ions in fractional coordinates (direct lattice)
     0.509027775  0.589067994  0.843865579
     0.538444254  0.499590277  0.811358094
     0.425238696  0.598191900  0.841865591
     0.615038446  0.493487990  0.810157546
     0.532078335  0.566361265  0.880841685
     0.547250826  0.668614091  0.833621934
     0.750000000  0.625000000  0.264823466
     0.000000000  0.750000000  0.264823466
     0.000000000  0.625000000  0.382411733
     0.750000000  0.750000000  0.382411733
     0.750000000  0.625000000  0.500000000
     0.000000000  0.750000000  0.500000000
     0.000304465  0.625070266  0.615606865
     0.750353063  0.750159723  0.621603665
     0.750765594  0.625919416  0.741989870
     0.999687943  0.750176404  0.731161418
     0.750000000  0.875000000  0.264823466
     0.000000000  0.000000000  0.264823466
     0.000000000  0.875000000  0.382411733
     0.750000000  0.000000000  0.382411733
     0.750000000  0.875000000  0.500000000
     0.000000000  0.000000000  0.500000000
     0.000089277  0.875045794  0.615705770
     0.749717307  0.000014340  0.622021512
     0.749557384  0.875022924  0.743354232
     0.000027649  0.999910797  0.731148500
     0.750000000  0.125000000  0.264823466
     0.000000000  0.250000000  0.264823466
     0.000000000  0.125000000  0.382411733
     0.750000000  0.250000000  0.382411733
     0.750000000  0.125000000  0.500000000
     0.000000000  0.250000000  0.500000000
     0.000079199  0.124942872  0.615710704
     0.750124479  0.249840259  0.621573653
     0.749514052  0.124408572  0.743370559
     0.999882900  0.249721784  0.731163762
     0.750000000  0.375000000  0.264823466
     0.000000000  0.500000000  0.264823466
     0.000000000  0.375000000  0.382411733
     0.750000000  0.500000000  0.382411733
     0.750000000  0.375000000  0.500000000
     0.000000000  0.500000000  0.500000000
     0.000238998  0.374950173  0.615605808
     0.750831018  0.499973620  0.621781720
     0.751230769  0.373380421  0.742120693
     0.000827188  0.500027722  0.731063232
     0.250000000  0.625000000  0.264823466
     0.500000000  0.750000000  0.264823466
     0.500000000  0.625000000  0.382411733
     0.250000000  0.750000000  0.382411733
     0.250000000  0.625000000  0.500000000
     0.500000000  0.750000000  0.500000000
     0.500323334  0.622546437  0.617078705
     0.250368305  0.749947859  0.621962278
     0.250302118  0.625146994  0.743224012
     0.499813019  0.750365502  0.729592281
     0.250000000  0.875000000  0.264823466
     0.500000000  0.000000000  0.264823466
     0.500000000  0.875000000  0.382411733
     0.250000000  0.000000000  0.382411733
     0.250000000  0.875000000  0.500000000
     0.500000000  0.000000000  0.500000000
     0.499755824  0.874067857  0.614385662
     0.249843462  0.999973856  0.622096906
     0.250588347  0.875066211  0.743448405
     0.499868365  0.999948590  0.729873186
     0.250000000  0.125000000  0.264823466
     0.500000000  0.250000000  0.264823466
     0.500000000  0.125000000  0.382411733
     0.250000000  0.250000000  0.382411733
     0.250000000  0.125000000  0.500000000
     0.500000000  0.250000000  0.500000000
     0.499624898  0.126138252  0.614590702
     0.250124509  0.250073582  0.622067093
     0.250411138  0.124900170  0.743428402
     0.499721401  0.249505951  0.730106254
     0.250000000  0.375000000  0.264823466
     0.500000000  0.500000000  0.264823466
     0.500000000  0.375000000  0.382411733
     0.250000000  0.500000000  0.382411733
     0.250000000  0.375000000  0.500000000
     0.500000000  0.500000000  0.500000000
     0.500151053  0.377360539  0.617282054
     0.250158499  0.500037015  0.622111611
     0.250380617  0.374914971  0.743382468
     0.501565621  0.499565335  0.735669802
     0.750000000  0.750000000  0.218879228
     0.750000000  0.750000000  0.310767704
     0.097680320  0.625000000  0.264823466
     0.902319680  0.625000000  0.264823466
     0.000000000  0.750000000  0.336467495
     0.000000000  0.750000000  0.428355971
     0.847680320  0.625000000  0.382411733
     0.152319680  0.625000000  0.382411733
     0.750000000  0.750000000  0.454055762
     0.750000000  0.750000000  0.545944238
     0.097680320  0.625000000  0.500000000
     0.902319680  0.625000000  0.500000000
     0.000184042  0.750182241  0.572372861
     0.999315478  0.749824008  0.665040669
     0.850190505  0.625285719  0.617884778
     0.149980749  0.625193438  0.618578145
     0.753598923  0.750814427  0.689914586
     0.748102461  0.748749662  0.782789615
     0.093924344  0.625180038  0.742817129
     0.906359707  0.624185674  0.743779914
     0.750000000  0.000000000  0.218879228
     0.750000000  0.000000000  0.310767704
     0.097680320  0.875000000  0.264823466
     0.902319680  0.875000000  0.264823466
     0.000000000  0.000000000  0.336467495
     0.000000000  0.000000000  0.428355971
     0.847680320  0.875000000  0.382411733
     0.152319680  0.875000000  0.382411733
     0.750000000  0.000000000  0.454055762
     0.750000000  0.000000000  0.545944238
     0.097680320  0.875000000  0.500000000
     0.902319680  0.875000000  0.500000000
     0.000171568  0.000012369  0.572401079
     0.999692345  0.999955610  0.665026751
     0.849938129  0.875512014  0.618277737
     0.149905110  0.874832340  0.618688725
     0.750129831  0.999864696  0.690313092
     0.749804231  0.999743637  0.783204151
     0.093680227  0.874504586  0.742560740
     0.906243057  0.874983438  0.743248569
     0.750000000  0.250000000  0.218879228
     0.750000000  0.250000000  0.310767704
     0.097680320  0.125000000  0.264823466
     0.902319680  0.125000000  0.264823466
     0.000000000  0.250000000  0.336467495
     0.000000000  0.250000000  0.428355971
     0.847680320  0.125000000  0.382411733
     0.152319680  0.125000000  0.382411733
     0.750000000  0.250000000  0.454055762
     0.750000000  0.250000000  0.545944238
     0.097680320  0.125000000  0.500000000
     0.902319680  0.125000000  0.500000000
     0.000145629  0.249810184  0.572381408
     0.999462607  0.250178013  0.665053279
     0.849883062  0.124624571  0.618394383
     0.149849972  0.125040098  0.618624097
     0.752652200  0.249497055  0.689984032
     0.749149940  0.250674168  0.782769802
     0.093577297  0.125241261  0.742690463
     0.906217985  0.124876374  0.743003781
     0.750000000  0.500000000  0.218879228
     0.750000000  0.500000000  0.310767704
     0.097680320  0.375000000  0.264823466
     0.902319680  0.375000000  0.264823466
     0.000000000  0.500000000  0.336467495
     0.000000000  0.500000000  0.428355971
     0.847680320  0.375000000  0.382411733
     0.152319680  0.375000000  0.382411733
     0.750000000  0.500000000  0.454055762
     0.750000000  0.500000000  0.545944238
     0.097680320  0.375000000  0.500000000
     0.902319680  0.375000000  0.500000000
     0.000278849  0.499999201  0.572347409
     0.999617744  0.500013341  0.664955233
     0.850170392  0.374609700  0.617917653
     0.149958522  0.374940931  0.618554229
     0.755386386  0.499800375  0.689741102
     0.739039106  0.499873103  0.782708051
     0.093889781  0.374921736  0.742794157
     0.906443930  0.375703080  0.743785811
     0.250000000  0.750000000  0.218879228
     0.250000000  0.750000000  0.310767704
     0.597680320  0.625000000  0.264823466
     0.402319680  0.625000000  0.264823466
     0.500000000  0.750000000  0.336467495
     0.500000000  0.750000000  0.428355971
     0.347680320  0.625000000  0.382411733
     0.652319680  0.625000000  0.382411733
     0.250000000  0.750000000  0.454055762
     0.250000000  0.750000000  0.545944238
     0.597680320  0.625000000  0.500000000
     0.402319680  0.625000000  0.500000000
     0.500310238  0.748530342  0.572173005
     0.497681299  0.751627869  0.663749676
     0.349292060  0.624876376  0.618491405
     0.650821343  0.625147966  0.619126660
     0.250529488  0.749826345  0.690146810
     0.250753979  0.749780205  0.783142403
     0.596553716  0.629597416  0.736374418
     0.407372377  0.625621873  0.742993352
     0.250000000  0.000000000  0.218879228
     0.250000000  0.000000000  0.310767704
     0.597680320  0.875000000  0.264823466
     0.402319680  0.875000000  0.264823466
     0.500000000  0.000000000  0.336467495
     0.500000000  0.000000000  0.428355971
     0.347680320  0.875000000  0.382411733
     0.652319680  0.875000000  0.382411733
     0.250000000  0.000000000  0.454055762
     0.250000000  0.000000000  0.545944238
     0.597680320  0.875000000  0.500000000
     0.402319680  0.875000000  0.500000000
     0.500047634  0.000209445  0.571782359
     0.500003697  0.999915818  0.663971676
     0.349319706  0.875312455  0.618064335
     0.650421947  0.874779810  0.618468649
     0.249521907  0.999933739  0.690145694
     0.249414978  0.999937644  0.783140277
     0.593836836  0.874810005  0.742038925
     0.406045184  0.876063128  0.742215039
     0.250000000  0.250000000  0.218879228
     0.250000000  0.250000000  0.310767704
     0.597680320  0.125000000  0.264823466
     0.402319680  0.125000000  0.264823466
     0.500000000  0.250000000  0.336467495
     0.500000000  0.250000000  0.428355971
     0.347680320  0.125000000  0.382411733
     0.652319680  0.125000000  0.382411733
     0.250000000  0.250000000  0.454055762
     0.250000000  0.250000000  0.545944238
     0.597680320  0.125000000  0.500000000
     0.402319680  0.125000000  0.500000000
     0.500194783  0.251511034  0.572305080
     0.498718510  0.248456321  0.664143499
     0.349369254  0.124836972  0.618239364
     0.650466336  0.125155976  0.618442615
     0.249647646  0.249913998  0.690138167
     0.250469558  0.250101337  0.783069967
     0.593908964  0.124754293  0.742094760
     0.405977210  0.124049778  0.742140892
     0.250000000  0.500000000  0.218879228
     0.250000000  0.500000000  0.310767704
     0.597680320  0.375000000  0.264823466
     0.402319680  0.375000000  0.264823466
     0.500000000  0.500000000  0.336467495
     0.500000000  0.500000000  0.428355971
     0.347680320  0.375000000  0.382411733
     0.652319680  0.375000000  0.382411733
     0.250000000  0.500000000  0.454055762
     0.250000000  0.500000000  0.545944238
     0.597680320  0.375000000  0.500000000
     0.402319680  0.375000000  0.500000000
     0.500256384  0.499839431  0.572590603
     0.499344310  0.500172587  0.665638014
     0.349300095  0.375007941  0.618679817
     0.650800897  0.374969107  0.619094960
     0.249229851  0.500238244  0.690195753
     0.251837424  0.500192086  0.783078613
     0.596066485  0.371341033  0.737971974
     0.406490679  0.373990830  0.741670574

  ion indices of the primitive-cell ions
   primitive index   ion index
                 1           1
                 2           2
                 3           3
                 4           4
                 5           5
                 6           6
                 7           7
                 8           8
                 9           9
                10          10
                11          11
                12          12
                13          13
                14          14
                15          15
                16          16
                17          17
                18          18
                19          19
                20          20
                21          21
                22          22
                23          23
                24          24
                25          25
                26          26
                27          27
                28          28
                29          29
                30          30
                31          31
                32          32
                33          33
                34          34
                35          35
                36          36
                37          37
                38          38
                39          39
                40          40
                41          41
                42          42
                43          43
                44          44
                45          45
                46          46
                47          47
                48          48
                49          49
                50          50
                51          51
                52          52
                53          53
                54          54
                55          55
                56          56
                57          57
                58          58
                59          59
                60          60
                61          61
                62          62
                63          63
                64          64
                65          65
                66          66
                67          67
                68          68
                69          69
                70          70
                71          71
                72          72
                73          73
                74          74
                75          75
                76          76
                77          77
                78          78
                79          79
                80          80
                81          81
                82          82
                83          83
                84          84
                85          85
                86          86
                87          87
                88          88
                89          89
                90          90
                91          91
                92          92
                93          93
                94          94
                95          95
                96          96
                97          97
                98          98
                99          99
               100         100
               101         101
               102         102
               103         103
               104         104
               105         105
               106         106
               107         107
               108         108
               109         109
               110         110
               111         111
               112         112
               113         113
               114         114
               115         115
               116         116
               117         117
               118         118
               119         119
               120         120
               121         121
               122         122
               123         123
               124         124
               125         125
               126         126
               127         127
               128         128
               129         129
               130         130
               131         131
               132         132
               133         133
               134         134
               135         135
               136         136
               137         137
               138         138
               139         139
               140         140
               141         141
               142         142
               143         143
               144         144
               145         145
               146         146
               147         147
               148         148
               149         149
               150         150
               151         151
               152         152
               153         153
               154         154
               155         155
               156         156
               157         157
               158         158
               159         159
               160         160
               161         161
               162         162
               163         163
               164         164
               165         165
               166         166
               167         167
               168         168
               169         169
               170         170
               171         171
               172         172
               173         173
               174         174
               175         175
               176         176
               177         177
               178         178
               179         179
               180         180
               181         181
               182         182
               183         183
               184         184
               185         185
               186         186
               187         187
               188         188
               189         189
               190         190
               191         191
               192         192
               193         193
               194         194
               195         195
               196         196
               197         197
               198         198
               199         199
               200         200
               201         201
               202         202
               203         203
               204         204
               205         205
               206         206
               207         207
               208         208
               209         209
               210         210
               211         211
               212         212
               213         213
               214         214
               215         215
               216         216
               217         217
               218         218
               219         219
               220         220
               221         221
               222         222
               223         223
               224         224
               225         225
               226         226
               227         227
               228         228
               229         229
               230         230
               231         231
               232         232
               233         233
               234         234
               235         235
               236         236
               237         237
               238         238
               239         239
               240         240
               241         241
               242         242
               243         243
               244         244
               245         245
               246         246

----------------------------------------------------------------------------------------



 KPOINTS: pymatgen v2020.8.13 with grid density = 

Automatic generation of k-mesh.
 Grid dimensions read from file:
 generate k-points for:    2    2    1

 Generating k-lattice:

  Cartesian coordinates                     Fractional coordinates (reciprocal lattice)
     0.038779242  0.000000000  0.000000000     0.500000000  0.000000000  0.000000000
     0.000000000  0.042510111  0.000000000     0.000000000  0.500000000  0.000000000
     0.000000000  0.000000000  0.036479871     0.000000000  0.000000000  1.000000000

  Length of vectors
     0.038779242  0.042510111  0.036479871

  Shift w.r.t. Gamma in fractional coordinates (k-lattice)
     0.000000000  0.000000000  0.000000000

 
 Subroutine IBZKPT returns following result:
 ===========================================
 
 Found      4 irreducible k-points:
 
 Following reciprocal coordinates:
            Coordinates               Weight
  0.000000  0.000000  0.000000      1.000000
  0.500000  0.000000  0.000000      1.000000
  0.000000  0.500000  0.000000      1.000000
  0.500000  0.500000  0.000000      1.000000
 
 Following cartesian coordinates:
            Coordinates               Weight
  0.000000  0.000000  0.000000      1.000000
  0.038779  0.000000  0.000000      1.000000
  0.000000  0.042510  0.000000      1.000000
  0.038779  0.042510  0.000000      1.000000
 


--------------------------------------------------------------------------------------------------------




 Dimension of arrays:
   k-points           NKPTS =      4   k-points in BZ     NKDIM =      4   number of bands    NBANDS=   1088
   number of dos      NEDOS =    301   number of ions     NIONS =    246
   non local maximal  LDIM  =      6   non local SUM 2l+1 LMDIM =     18
   total plane-waves  NPLWV = ******
   max r-space proj   IRMAX =      1   max aug-charges    IRDMAX=  21887
   dimension x,y,z NGX =   108 NGY =   96 NGZ =  224
   dimension x,y,z NGXF=   216 NGYF=  192 NGZF=  448
   support grid    NGXF=   216 NGYF=  192 NGZF=  448
   ions per type =               1   1   4  80 160
   NGX,Y,Z   is equivalent  to a cutoff of  13.93, 13.57, 13.58 a.u.
   NGXF,Y,Z  is equivalent  to a cutoff of  27.85, 27.14, 27.17 a.u.

 SYSTEM =  TiO2                                    
 POSCAR =   C  O  H Ti  O                          

--------------------------------------------------------------------------------------------------------


  energy-cutoff  :      600.00
  volume of cell :     4157.14
      direct lattice vectors                 reciprocal lattice vectors
    12.893495846  0.000000000  0.000000000     0.077558485  0.000000000  0.000000000
     0.000000000 11.761907618  0.000000000     0.000000000  0.085020222  0.000000000
     0.000000000  0.000000000 27.412377441     0.000000000  0.000000000  0.036479871

  length of vectors
    12.893495846 11.761907618 27.412377441     0.077558485  0.085020222  0.036479871



 k-points in units of 2pi/SCALE and weight: pymatgen v2020.8.13 with grid density = 
   0.00000000  0.00000000  0.00000000       0.250
   0.03877924  0.00000000  0.00000000       0.250
   0.00000000  0.04251011  0.00000000       0.250
   0.03877924  0.04251011  0.00000000       0.250

 k-points in reciprocal lattice and weights: pymatgen v2020.8.13 with grid density = 
   0.00000000  0.00000000  0.00000000       0.250
   0.50000000  0.00000000  0.00000000       0.250
   0.00000000  0.50000000  0.00000000       0.250
   0.50000000  0.50000000  0.00000000       0.250

 position of ions in fractional coordinates (direct lattice) 
   0.50902777  0.58906799  0.84386558
   0.53844425  0.49959028  0.81135809
   0.42523870  0.59819190  0.84186559
   0.61503845  0.49348799  0.81015755
   0.53207834  0.56636127  0.88084168
   0.54725083  0.66861409  0.83362193
   0.75000000  0.62500000  0.26482347
   0.00000000  0.75000000  0.26482347
   0.00000000  0.62500000  0.38241173
   0.75000000  0.75000000  0.38241173
   0.75000000  0.62500000  0.50000000
   0.00000000  0.75000000  0.50000000
   0.00030446  0.62507027  0.61560687
   0.75035306  0.75015972  0.62160366
   0.75076559  0.62591942  0.74198987
   0.99968794  0.75017640  0.73116142
   0.75000000  0.87500000  0.26482347
   0.00000000  0.00000000  0.26482347
   0.00000000  0.87500000  0.38241173
   0.75000000  0.00000000  0.38241173
   0.75000000  0.87500000  0.50000000
   0.00000000  0.00000000  0.50000000
   0.00008928  0.87504579  0.61570577
   0.74971731  0.00001434  0.62202151
   0.74955738  0.87502292  0.74335423
   0.00002765  0.99991080  0.73114850
   0.75000000  0.12500000  0.26482347
   0.00000000  0.25000000  0.26482347
   0.00000000  0.12500000  0.38241173
   0.75000000  0.25000000  0.38241173
   0.75000000  0.12500000  0.50000000
   0.00000000  0.25000000  0.50000000
   0.00007920  0.12494287  0.61571070
   0.75012448  0.24984026  0.62157365
   0.74951405  0.12440857  0.74337056
   0.99988290  0.24972178  0.73116376
   0.75000000  0.37500000  0.26482347
   0.00000000  0.50000000  0.26482347
   0.00000000  0.37500000  0.38241173
   0.75000000  0.50000000  0.38241173
   0.75000000  0.37500000  0.50000000
   0.00000000  0.50000000  0.50000000
   0.00023900  0.37495017  0.61560581
   0.75083102  0.49997362  0.62178172
   0.75123077  0.37338042  0.74212069
   0.00082719  0.50002772  0.73106323
   0.25000000  0.62500000  0.26482347
   0.50000000  0.75000000  0.26482347
   0.50000000  0.62500000  0.38241173
   0.25000000  0.75000000  0.38241173
   0.25000000  0.62500000  0.50000000
   0.50000000  0.75000000  0.50000000
   0.50032333  0.62254644  0.61707870
   0.25036831  0.74994786  0.62196228
   0.25030212  0.62514699  0.74322401
   0.49981302  0.75036550  0.72959228
   0.25000000  0.87500000  0.26482347
   0.50000000  0.00000000  0.26482347
   0.50000000  0.87500000  0.38241173
   0.25000000  0.00000000  0.38241173
   0.25000000  0.87500000  0.50000000
   0.50000000  0.00000000  0.50000000
   0.49975582  0.87406786  0.61438566
   0.24984346  0.99997386  0.62209691
   0.25058835  0.87506621  0.74344840
   0.49986837  0.99994859  0.72987319
   0.25000000  0.12500000  0.26482347
   0.50000000  0.25000000  0.26482347
   0.50000000  0.12500000  0.38241173
   0.25000000  0.25000000  0.38241173
   0.25000000  0.12500000  0.50000000
   0.50000000  0.25000000  0.50000000
   0.49962490  0.12613825  0.61459070
   0.25012451  0.25007358  0.62206709
   0.25041114  0.12490017  0.74342840
   0.49972140  0.24950595  0.73010625
   0.25000000  0.37500000  0.26482347
   0.50000000  0.50000000  0.26482347
   0.50000000  0.37500000  0.38241173
   0.25000000  0.50000000  0.38241173
   0.25000000  0.37500000  0.50000000
   0.50000000  0.50000000  0.50000000
   0.50015105  0.37736054  0.61728205
   0.25015850  0.50003701  0.62211161
   0.25038062  0.37491497  0.74338247
   0.50156562  0.49956534  0.73566980
   0.75000000  0.75000000  0.21887923
   0.75000000  0.75000000  0.31076770
   0.09768032  0.62500000  0.26482347
   0.90231968  0.62500000  0.26482347
   0.00000000  0.75000000  0.33646749
   0.00000000  0.75000000  0.42835597
   0.84768032  0.62500000  0.38241173
   0.15231968  0.62500000  0.38241173
   0.75000000  0.75000000  0.45405576
   0.75000000  0.75000000  0.54594424
   0.09768032  0.62500000  0.50000000
   0.90231968  0.62500000  0.50000000
   0.00018404  0.75018224  0.57237286
   0.99931548  0.74982401  0.66504067
   0.85019051  0.62528572  0.61788478
   0.14998075  0.62519344  0.61857814
   0.75359892  0.75081443  0.68991459
   0.74810246  0.74874966  0.78278961
   0.09392434  0.62518004  0.74281713
   0.90635971  0.62418567  0.74377991
   0.75000000  0.00000000  0.21887923
   0.75000000  0.00000000  0.31076770
   0.09768032  0.87500000  0.26482347
   0.90231968  0.87500000  0.26482347
   0.00000000  0.00000000  0.33646749
   0.00000000  0.00000000  0.42835597
   0.84768032  0.87500000  0.38241173
   0.15231968  0.87500000  0.38241173
   0.75000000  0.00000000  0.45405576
   0.75000000  0.00000000  0.54594424
   0.09768032  0.87500000  0.50000000
   0.90231968  0.87500000  0.50000000
   0.00017157  0.00001237  0.57240108
   0.99969234  0.99995561  0.66502675
   0.84993813  0.87551201  0.61827774
   0.14990511  0.87483234  0.61868873
   0.75012983  0.99986470  0.69031309
   0.74980423  0.99974364  0.78320415
   0.09368023  0.87450459  0.74256074
   0.90624306  0.87498344  0.74324857
   0.75000000  0.25000000  0.21887923
   0.75000000  0.25000000  0.31076770
   0.09768032  0.12500000  0.26482347
   0.90231968  0.12500000  0.26482347
   0.00000000  0.25000000  0.33646749
   0.00000000  0.25000000  0.42835597
   0.84768032  0.12500000  0.38241173
   0.15231968  0.12500000  0.38241173
   0.75000000  0.25000000  0.45405576
   0.75000000  0.25000000  0.54594424
   0.09768032  0.12500000  0.50000000
   0.90231968  0.12500000  0.50000000
   0.00014563  0.24981018  0.57238141
   0.99946261  0.25017801  0.66505328
   0.84988306  0.12462457  0.61839438
   0.14984997  0.12504010  0.61862410
   0.75265220  0.24949706  0.68998403
   0.74914994  0.25067417  0.78276980
   0.09357730  0.12524126  0.74269046
   0.90621798  0.12487637  0.74300378
   0.75000000  0.50000000  0.21887923
   0.75000000  0.50000000  0.31076770
   0.09768032  0.37500000  0.26482347
   0.90231968  0.37500000  0.26482347
   0.00000000  0.50000000  0.33646749
   0.00000000  0.50000000  0.42835597
   0.84768032  0.37500000  0.38241173
   0.15231968  0.37500000  0.38241173
   0.75000000  0.50000000  0.45405576
   0.75000000  0.50000000  0.54594424
   0.09768032  0.37500000  0.50000000
   0.90231968  0.37500000  0.50000000
   0.00027885  0.49999920  0.57234741
   0.99961774  0.50001334  0.66495523
   0.85017039  0.37460970  0.61791765
   0.14995852  0.37494093  0.61855423
   0.75538639  0.49980037  0.68974110
   0.73903911  0.49987310  0.78270805
   0.09388978  0.37492174  0.74279416
   0.90644393  0.37570308  0.74378581
   0.25000000  0.75000000  0.21887923
   0.25000000  0.75000000  0.31076770
   0.59768032  0.62500000  0.26482347
   0.40231968  0.62500000  0.26482347
   0.50000000  0.75000000  0.33646749
   0.50000000  0.75000000  0.42835597
   0.34768032  0.62500000  0.38241173
   0.65231968  0.62500000  0.38241173
   0.25000000  0.75000000  0.45405576
   0.25000000  0.75000000  0.54594424
   0.59768032  0.62500000  0.50000000
   0.40231968  0.62500000  0.50000000
   0.50031024  0.74853034  0.57217301
   0.49768130  0.75162787  0.66374968
   0.34929206  0.62487638  0.61849141
   0.65082134  0.62514797  0.61912666
   0.25052949  0.74982635  0.69014681
   0.25075398  0.74978020  0.78314240
   0.59655372  0.62959742  0.73637442
   0.40737238  0.62562187  0.74299335
   0.25000000  0.00000000  0.21887923
   0.25000000  0.00000000  0.31076770
   0.59768032  0.87500000  0.26482347
   0.40231968  0.87500000  0.26482347
   0.50000000  0.00000000  0.33646749
   0.50000000  0.00000000  0.42835597
   0.34768032  0.87500000  0.38241173
   0.65231968  0.87500000  0.38241173
   0.25000000  0.00000000  0.45405576
   0.25000000  0.00000000  0.54594424
   0.59768032  0.87500000  0.50000000
   0.40231968  0.87500000  0.50000000
   0.50004763  0.00020945  0.57178236
   0.50000370  0.99991582  0.66397168
   0.34931971  0.87531245  0.61806433
   0.65042195  0.87477981  0.61846865
   0.24952191  0.99993374  0.69014569
   0.24941498  0.99993764  0.78314028
   0.59383684  0.87481001  0.74203892
   0.40604518  0.87606313  0.74221504
   0.25000000  0.25000000  0.21887923
   0.25000000  0.25000000  0.31076770
   0.59768032  0.12500000  0.26482347
   0.40231968  0.12500000  0.26482347
   0.50000000  0.25000000  0.33646749
   0.50000000  0.25000000  0.42835597
   0.34768032  0.12500000  0.38241173
   0.65231968  0.12500000  0.38241173
   0.25000000  0.25000000  0.45405576
   0.25000000  0.25000000  0.54594424
   0.59768032  0.12500000  0.50000000
   0.40231968  0.12500000  0.50000000
   0.50019478  0.25151103  0.57230508
   0.49871851  0.24845632  0.66414350
   0.34936925  0.12483697  0.61823936
   0.65046634  0.12515598  0.61844261
   0.24964765  0.24991400  0.69013817
   0.25046956  0.25010134  0.78306997
   0.59390896  0.12475429  0.74209476
   0.40597721  0.12404978  0.74214089
   0.25000000  0.50000000  0.21887923
   0.25000000  0.50000000  0.31076770
   0.59768032  0.37500000  0.26482347
   0.40231968  0.37500000  0.26482347
   0.50000000  0.50000000  0.33646749
   0.50000000  0.50000000  0.42835597
   0.34768032  0.37500000  0.38241173
   0.65231968  0.37500000  0.38241173
   0.25000000  0.50000000  0.45405576
   0.25000000  0.50000000  0.54594424
   0.59768032  0.37500000  0.50000000
   0.40231968  0.37500000  0.50000000
   0.50025638  0.49983943  0.57259060
   0.49934431  0.50017259  0.66563801
   0.34930010  0.37500794  0.61867982
   0.65080090  0.37496911  0.61909496
   0.24922985  0.50023824  0.69019575
   0.25183742  0.50019209  0.78307861
   0.59606648  0.37134103  0.73797197
   0.40649068  0.37399083  0.74167057

 position of ions in cartesian coordinates  (Angst):
   6.56314750  6.92856333 23.13236175
   6.94242875  5.87613468 22.24125431
   5.48281336  7.03587787 23.07753732
   7.92999564  5.80436015 22.20834443
   6.86034981  6.66148888 24.14596473
   7.05597625  7.86417718 22.85155909
   9.67012188  7.35119226  7.25944080
   0.00000000  8.82143071  7.25944080
   0.00000000  7.35119226 10.48281476
   9.67012188  8.82143071 10.48281476
   9.67012188  7.35119226 13.70618872
   0.00000000  8.82143071 13.70618872
   0.00392561  7.35201873 16.87524775
   9.67467410  8.82330936 17.03963427
   9.67999306  7.36200635 20.33970637
  12.88947234  8.82350557 20.04287277
   9.67012188 10.29166917  7.25944080
   0.00000000  0.00000000  7.25944080
   0.00000000 10.29166917 10.48281476
   9.67012188  0.00000000 10.48281476
   9.67012188 10.29166917 13.70618872
   0.00000000  0.00000000 13.70618872
   0.00115110 10.29220779 16.87795896
   9.66647698  0.00016867 17.05108846
   9.66441501 10.29193879 20.37710679
   0.00035649 11.76085842 20.04251865
   9.67012188  1.47023845  7.25944080
   0.00000000  2.94047690  7.25944080
   0.00000000  1.47023845 10.48281476
   9.67012188  2.94047690 10.48281476
   9.67012188  1.47023845 13.70618872
   0.00000000  2.94047690 13.70618872
   0.00102115  1.46956652 16.87809422
   9.67172686  2.93859805 17.03881159
   9.66385632  1.46328213 20.37755434
  12.89198601  2.93720455 20.04293701
   9.67012188  4.41071536  7.25944080
   0.00000000  5.88095381  7.25944080
   0.00000000  4.41071536 10.48281476
   9.67012188  5.88095381 10.48281476
   9.67012188  4.41071536 13.70618872
   0.00000000  5.88095381 13.70618872
   0.00308151  4.41012930 16.87521877
   9.68083661  5.88064353 17.04451520
   9.68599080  4.39166602 20.34329253
   0.01066535  5.88127987 20.04018125
   3.22337396  7.35119226  7.25944080
   6.44674792  8.82143071  7.25944080
   6.44674792  7.35119226 10.48281476
   3.22337396  8.82143071 10.48281476
   3.22337396  7.35119226 13.70618872
   6.44674792  8.82143071 13.70618872
   6.45091683  7.32233368 16.91559436
   3.22812271  8.82081744 17.04946471
   3.22726932  7.35292119 20.37353715
   6.44433709  8.82572971 19.99985898
   3.22337396 10.29166917  7.25944080
   6.44674792  0.00000000  7.25944080
   6.44674792 10.29166917 10.48281476
   3.22337396  0.00000000 10.48281476
   3.22337396 10.29166917 13.70618872
   6.44674792  0.00000000 13.70618872
   6.44359964 10.28070539 16.84177167
   3.22135564 11.76160011 17.05315518
   3.23095982 10.29244793 20.37968828
   6.44505069 11.76130294 20.00755926
   3.22337396  1.47023845  7.25944080
   6.44674792  2.94047690  7.25944080
   6.44674792  1.47023845 10.48281476
   3.22337396  2.94047690 10.48281476
   3.22337396  1.47023845 13.70618872
   6.44674792  2.94047690 13.70618872
   6.44191155  1.48362647 16.84739229
   3.22497932  2.94134237 17.05233795
   3.22867496  1.46906426 20.37913996
   6.44315581  2.93466594 20.01394821
[...]
      9.66386      1.46328     20.37755        -0.002067     -0.006728      0.255152
     12.89199      2.93720     20.04294         0.003532      0.000540      0.000289
      9.67012      4.41072      7.25944        -0.002492     -0.001410     -3.844175
      0.00000      5.88095      7.25944         0.001719     -0.000474      2.774356
      0.00000      4.41072     10.48281         0.007049      0.000060      0.549238
      9.67012      5.88095     10.48281        -0.008477      0.000268     -0.798729
      9.67012      4.41072     13.70619        -0.046213      0.020587      0.603747
      0.00000      5.88095     13.70619         0.019749     -0.000388     -0.679834
      0.00308      4.41013     16.87522        -0.003801      0.001633     -0.011555
      9.68084      5.88064     17.04452        -0.002665      0.000182     -0.057222
      9.68599      4.39167     20.34329         0.005950     -0.050465      0.212322
      0.01067      5.88128     20.04018         0.006930     -0.001952     -0.002064
      3.22337      7.35119      7.25944         0.001893     -0.000019     -3.841985
      6.44675      8.82143      7.25944        -0.001926      0.001149      2.782673
      6.44675      7.35119     10.48281        -0.006885      0.009357      0.575730
      3.22337      8.82143     10.48281         0.008261      0.000274     -0.778489
      3.22337      7.35119     13.70619         0.043529     -0.016033      0.672085
      6.44675      8.82143     13.70619        -0.014145     -0.055504     -0.540839
      6.45092      7.32233     16.91559        -0.009248      0.023715      0.000045
      3.22812      8.82082     17.04946        -0.000880     -0.003955     -0.057070
      3.22727      7.35292     20.37354         0.015340      0.004548      0.245387
      6.44434      8.82573     19.99986        -0.001793     -0.015662     -0.003340
      3.22337     10.29167      7.25944         0.002151      0.001273     -3.842806
      6.44675      0.00000      7.25944        -0.001922      0.000542      2.781456
      6.44675     10.29167     10.48281        -0.006527     -0.000193      0.576909
      3.22337      0.00000     10.48281         0.008397      0.000221     -0.778183
      3.22337     10.29167     13.70619         0.026187      0.013477      0.670209
      6.44675      0.00000     13.70619        -0.012858      0.003860     -0.766402
      6.44360     10.28071     16.84177         0.001459      0.008807      0.015289
      3.22136     11.76160     17.05316        -0.002875      0.000786     -0.057120
      3.23096     10.29245     20.37969         0.001661      0.008559      0.253117
      6.44505     11.76130     20.00756         0.001621      0.000760     -0.014029
      3.22337      1.47024      7.25944         0.002147     -0.000145     -3.843110
      6.44675      2.94048      7.25944        -0.001979     -0.001087      2.781303
      6.44675      1.47024     10.48281        -0.006823     -0.002175      0.575564
      3.22337      2.94048     10.48281         0.008021     -0.000254     -0.776302
      3.22337      1.47024     13.70619         0.027117      0.000121      0.679989
      6.44675      2.94048     13.70619        -0.017136      0.054881     -0.520418
      6.44191      1.48363     16.84739         0.003351     -0.011999      0.014766
      3.22498      2.94134     17.05234        -0.001806      0.004085     -0.057563
      3.22867      1.46906     20.37914         0.000336     -0.000824      0.254117
      6.44316      2.93467     20.01395        -0.008461      0.015244     -0.016011
      3.22337      4.41072      7.25944         0.002044     -0.001242     -3.842337
      6.44675      5.88095      7.25944        -0.002034     -0.000575      2.783263
      6.44675      4.41072     10.48281        -0.007201     -0.007015      0.574390
      3.22337      5.88095     10.48281         0.007852     -0.000217     -0.776000
      3.22337      4.41072     13.70619         0.044042      0.002407      0.681181
      6.44675      5.88095     13.70619        -0.018885     -0.002982     -0.564812
      6.44870      4.43848     16.92117        -0.006475     -0.022535     -0.000894
      3.22542      5.88139     17.05356         0.001892     -0.001444     -0.063315
      3.22828      4.40972     20.37788         0.016384     -0.012659      0.243193
      6.46693      5.87584     20.16646        -0.009894     -0.002620      0.045830
      9.67012      8.82143      6.00000        -0.000011     -0.000835      1.802471
      9.67012      8.82143      8.51888         0.001004     -0.000484      2.016104
      1.25944      7.35119      7.25944        -1.803992     -0.000098     -0.801458
     11.63406      7.35119      7.25944         1.801138     -0.000161     -0.801359
      0.00000      8.82143      9.22337        -0.001112     -0.000007     -1.604933
      0.00000      8.82143     11.74226        -0.001881      0.000281      0.051936
     10.92956      7.35119     10.48281         0.629456     -0.000297      0.063232
      1.96393      7.35119     10.48281        -0.636995      0.000294      0.060482
      9.67012      8.82143     12.44675         0.005345     -0.004105     -0.239041
      9.67012      8.82143     14.96563         0.006843      0.001484      0.381701
      1.25944      7.35119     13.70619        -0.306240      0.003349      0.093080
     11.63406      7.35119     13.70619         0.278732      0.001796      0.101690
      0.00237      8.82357     15.69010         0.000950     -0.000743     -0.116019
     12.88467      8.81936     18.23035        -0.002959     -0.001178      0.158404
     10.96193      7.35455     16.93769         0.058000     -0.001873     -0.017518
      1.93378      7.35347     16.95670        -0.057406      0.000458     -0.012946
      9.71652      8.83101     18.91220         0.007272      0.006433     -0.027443
      9.64566      8.80672     21.45812         0.004006     -0.004217      0.032709
      1.21101      7.35331     20.36238         0.106299     -0.000908      0.010443
     11.68615      7.34161     20.38878        -0.102355     -0.005962      0.024611
      9.67012      0.00000      6.00000         0.000125     -0.000361      1.803951
      9.67012      0.00000      8.51888         0.001120     -0.000100      2.016002
      1.25944     10.29167      7.25944        -1.804050     -0.000300     -0.801154
     11.63406     10.29167      7.25944         1.801299     -0.000304     -0.801162
      0.00000      0.00000      9.22337        -0.001099     -0.000047     -1.604661
      0.00000      0.00000     11.74226        -0.002066     -0.000035      0.053448
     10.92956     10.29167     10.48281         0.629657     -0.000204      0.063200
      1.96393     10.29167     10.48281        -0.636930     -0.000189      0.060616
      9.67012      0.00000     12.44675         0.005478      0.001358     -0.241998
      9.67012      0.00000     14.96563        -0.007165      0.001973      0.365996
      1.25944     10.29167     13.70619        -0.303796      0.001154      0.091317
     11.63406     10.29167     13.70619         0.280421     -0.000874      0.098494
      0.00221      0.00015     15.69087         0.001750     -0.000070     -0.118978
     12.88953     11.76139     18.22996        -0.001773     -0.000517      0.160962
     10.95867     10.29769     16.94846         0.060308      0.002062     -0.018217
      1.93280     10.28970     16.95973        -0.056064     -0.000376     -0.013531
      9.67180     11.76032     18.92312         0.005922      0.000040     -0.029674
      9.66760     11.75889     21.46949         0.002771      0.002152      0.011405
      1.20787     10.28584     20.35536         0.107795     -0.001832      0.012509
     11.68464     10.29147     20.37421        -0.102923     -0.000546      0.019249
      9.67012      2.94048      6.00000         0.000159      0.000801      1.803560
      9.67012      2.94048      8.51888         0.000971      0.000459      2.016653
      1.25944      1.47024      7.25944        -1.804209      0.000102     -0.801045
     11.63406      1.47024      7.25944         1.801441      0.000115     -0.801029
      0.00000      2.94048      9.22337        -0.001116     -0.000003     -1.604823
      0.00000      2.94048     11.74226        -0.002209     -0.000326      0.052372
     10.92956      1.47024     10.48281         0.629542      0.000380      0.063224
      1.96393      1.47024     10.48281        -0.637095     -0.000204      0.060509
      9.67012      2.94048     12.44675         0.005542      0.004067     -0.237210
      9.67012      2.94048     14.96563         0.004053     -0.000518      0.391271
      1.25944      1.47024     13.70619        -0.306838     -0.001271      0.090441
     11.63406      1.47024     13.70619         0.278808      0.001222      0.098905
      0.00188      2.93824     15.69034         0.000620      0.000113     -0.115783
     12.88657      2.94257     18.23069        -0.002630      0.000976      0.157446
     10.95796      1.46582     16.95166         0.060718     -0.001678     -0.016320
      1.93209      1.47071     16.95796        -0.055440     -0.000359     -0.014582
      9.70432      2.93456     18.91410         0.003119     -0.005967     -0.027153
      9.65916      2.94841     21.45758         0.001349      0.005618      0.026791
      1.20654      1.47308     20.35891         0.104895     -0.000297      0.012729
     11.68432      1.46878     20.36750        -0.105282     -0.000061      0.017315
      9.67012      5.88095      6.00000         0.000022      0.000266      1.801975
      9.67012      5.88095      8.51888         0.000986      0.000110      2.016162
      1.25944      4.41072      7.25944        -1.804091      0.000286     -0.801389
     11.63406      4.41072      7.25944         1.801286      0.000281     -0.801225
      0.00000      5.88095      9.22337        -0.001137      0.000028     -1.605089
      0.00000      5.88095     11.74226        -0.002020      0.000047      0.050859
     10.92956      4.41072     10.48281         0.629313      0.000090      0.063292
      1.96393      4.41072     10.48281        -0.637149      0.000063      0.060385
      9.67012      5.88095     12.44675         0.007847     -0.001229     -0.237093
      9.67012      5.88095     14.96563        -0.001547     -0.001513      0.373600
      1.25944      4.41072     13.70619        -0.309348     -0.003204      0.092824
     11.63406      4.41072     13.70619         0.277350     -0.002065      0.102106
      0.00360      5.88094     15.68940         0.001138     -0.000061     -0.112732
     12.88857      5.88111     18.22800        -0.002946     -0.000168      0.160477
     10.96167      4.40612     16.93859         0.058124      0.001065     -0.017004
      1.93349      4.41002     16.95604        -0.057119     -0.000225     -0.013370
      9.73957      5.87861     18.90744         0.009130     -0.002062     -0.009406
      9.52880      5.87946     21.45589        -0.020526      0.002844      0.116325
      1.21057      4.40979     20.36175         0.106465      0.001924      0.011179
     11.68723      4.41898     20.38894        -0.102985      0.006288      0.024114
      3.22337      8.82143      6.00000        -0.000270     -0.000583      1.801988
      3.22337      8.82143      8.51888        -0.001350     -0.000276      2.011249
      7.70619      7.35119      7.25944        -1.799186     -0.000235     -0.802827
      5.18731      7.35119      7.25944         1.801361     -0.000231     -0.803083
      6.44675      8.82143      9.22337         0.000752     -0.001384     -1.620345
      6.44675      8.82143     11.74226         0.002350     -0.003037     -0.005777
      4.48281      7.35119     10.48281         0.624187     -0.000174      0.058831
      8.41068      7.35119     10.48281        -0.617075     -0.000821      0.061379
      3.22337      8.82143     12.44675        -0.005918      0.001281     -0.267482
      3.22337      8.82143     14.96563        -0.018975     -0.000471      0.369242
      7.70619      7.35119     13.70619        -0.231435     -0.029176      0.068576
      5.18731      7.35119     13.70619         0.265744     -0.028242      0.071428
      6.45075      8.80414     15.68462         0.001064     -0.002562     -0.125807
      6.41685      8.84058     18.19496        -0.005339      0.003420      0.178093
      4.50360      7.34974     16.95432         0.070606      0.003594     -0.016727
      8.39136      7.35293     16.97173        -0.067499      0.001353     -0.004502
      3.23020      8.81939     18.91856         0.001076      0.003945     -0.020298
      3.23310      8.81885     21.46780        -0.001866      0.001303      0.025930
      7.69166      7.40527     20.18577         0.114951      0.032944     -0.005059
      5.25245      7.35851     20.36721        -0.097024      0.025349      0.034546
      3.22337      0.00000      6.00000        -0.000655     -0.000460      1.803328
      3.22337      0.00000      8.51888        -0.001330     -0.000268      2.011200
      7.70619     10.29167      7.25944        -1.799297     -0.000497     -0.802400
      5.18731     10.29167      7.25944         1.801378     -0.000481     -0.802532
      6.44675      0.00000      9.22337         0.000777      0.000291     -1.619910
      6.44675      0.00000     11.74226         0.001667      0.000814     -0.005833
      4.48281     10.29167     10.48281         0.622833     -0.000132      0.058897
      8.41068     10.29167     10.48281        -0.616035     -0.000102      0.061352
      3.22337      0.00000     12.44675        -0.004828     -0.002686     -0.269520
      3.22337      0.00000     14.96563        -0.032823      0.000541      0.350132
      7.70619     10.29167     13.70619        -0.236335      0.000344      0.085698
      5.18731     10.29167     13.70619         0.262645     -0.002026      0.088584
      6.44736      0.00246     15.67391         0.001369      0.000954     -0.109299
      6.44680     11.76092     18.20104        -0.001767     -0.000472      0.164876
      4.50395     10.29534     16.94261         0.072856      0.002950     -0.019457
      8.38621     10.28908     16.95370        -0.072760      0.000276     -0.013875
      3.21721     11.76113     18.91853         0.000497     -0.000713     -0.022917
      3.21583     11.76117     21.46774         0.002464     -0.001668      0.014160
      7.65663     10.28943     20.34105         0.100240      0.003883      0.007216
      5.23534     10.30417     20.34588        -0.098090      0.004426      0.014576
      3.22337      2.94048      6.00000        -0.000404      0.000590      1.803007
      3.22337      2.94048      8.51888        -0.001374      0.000306      2.010887
      7.70619      1.47024      7.25944        -1.799327      0.000283     -0.802187
      5.18731      1.47024      7.25944         1.801523      0.000211     -0.802290
      6.44675      2.94048      9.22337         0.000770      0.001383     -1.619161
      6.44675      2.94048     11.74226         0.002237      0.003080      0.003091
      4.48281      1.47024     10.48281         0.623340     -0.000139      0.058832
      8.41068      1.47024     10.48281        -0.616285      0.000384      0.061458
      3.22337      2.94048     12.44675        -0.006311     -0.001004     -0.271995
      3.22337      2.94048     14.96563        -0.018659      0.000295      0.366364
      7.70619      1.47024     13.70619        -0.236430      0.007659      0.085078
      5.18731      1.47024     13.70619         0.265293      0.007236      0.085433
      6.44926      2.95825     15.68824         0.000840      0.002565     -0.127197
      6.43023      2.92232     18.20575        -0.001591     -0.003692      0.172259
      4.50459      1.46832     16.94741         0.070978     -0.002520     -0.017641
      8.38679      1.47207     16.95298        -0.073816     -0.001589     -0.013758
      3.21883      2.93947     18.91833        -0.000496     -0.002890     -0.020696
      3.22943      2.94167     21.46581        -0.002043      0.000644      0.018051
      7.65756      1.46735     20.34258         0.099915     -0.002589      0.010335
      5.23447      1.45906     20.34385        -0.096181     -0.003190      0.014243
      3.22337      5.88095      6.00000        -0.000193      0.000501      1.801686
      3.22337      5.88095      8.51888        -0.001359      0.000218      2.010658
      7.70619      4.41072      7.25944        -1.799230      0.000440     -0.802591
      5.18731      4.41072      7.25944         1.801486      0.000386     -0.802626
      6.44675      5.88095      9.22337         0.000758     -0.000278     -1.618566
      6.44675      5.88095     11.74226         0.002418     -0.000689      0.032916
      4.48281      4.41072     10.48281         0.624626      0.000417      0.058832
      8.41068      4.41072     10.48281        -0.617294      0.000515      0.061554
      3.22337      5.88095     12.44675        -0.007901      0.002416     -0.271170
      3.22337      5.88095     14.96563        -0.019424     -0.000218      0.372159
      7.70619      4.41072     13.70619        -0.231803      0.022382      0.068652
      5.18731      4.41072     13.70619         0.268754      0.024211      0.069416
      6.45005      5.87907     15.69607         0.001833     -0.000238     -0.130514
      6.43829      5.88298     18.24672        -0.005643      0.001982      0.093336
      4.50370      4.41081     16.95948         0.069456     -0.004428     -0.014316
      8.39110      4.41035     16.97086        -0.067696     -0.000087     -0.006017
      3.21344      5.88376     18.91991         0.003407     -0.000413     -0.019776
      3.24706      5.88321     21.46605        -0.001021     -0.001131      0.036663
      7.68538      4.36768     20.22957         0.115120     -0.029302     -0.000060
      5.24109      4.39885     20.33095        -0.106152     -0.035011      0.016238
 -----------------------------------------------------------------------------------
    total drift:                                0.041959      0.001840     -0.306830


--------------------------------------------------------------------------------------------------------



  FREE ENERGIE OF THE ION-ELECTRON SYSTEM (eV)
  ---------------------------------------------------
  free  energy   TOTEN  =     -2743.20839671 eV

  energy  without entropy=    -2743.20839671  energy(sigma->0) =    -2743.20839671



--------------------------------------------------------------------------------------------------------


    POTLOK:  cpu time      1.6540: real time      1.6546


--------------------------------------------------------------------------------------------------------


     LOOP+:  cpu time   1441.1092: real time   1442.0368
    4ORBIT:  cpu time      0.0000: real time      0.0000

 total amount of memory used by VASP MPI-rank0   173224. kBytes
=======================================================================

   base      :      30000. kBytes
   nonl-proj :      59326. kBytes
   fftplans  :       7134. kBytes
   grid      :      18445. kBytes
   one-center:        248. kBytes
   wavefun   :      58071. kBytes

  
  
 General timing and accounting informations for this job:
 ========================================================
  
                  Total CPU time used (sec):     1518.900
                            User time (sec):     1508.158
                          System time (sec):       10.742
                         Elapsed time (sec):     1533.679
  
                   Maximum memory used (kb):      597900.
                   Average memory used (kb):          N/A
  
                          Minor page faults:      1014710
                          Major page faults:          673
                 Voluntary context switches:        10792
