 vasp.6.3.0 20Jan22 (build Apr  1 2022 16:44:48) complex                         
 executed on        HPECrayEX_GCC date 2023.01.26  18:42:59
 running  512 mpi-ranks, with    1 threads/rank
 distrk:  each k-point on  512 cores,    1 groups
 distr:  one band on NCORE=   8 cores,   64 groups


--------------------------------------------------------------------------------------------------------


 INCAR:
   SYSTEM = MgO-rocksalt
   ISMEAR = 0
   SIGMA = 0.05
   EDIFF = 1E-6
   ALGO = ALL
   ISTART = 0
   IBRION = -1
   NSW = 0
   ISYM = 0
   DIPOL = 0.5 0.5 0.5
   IDIPOL = 3
   LDIPOL = .TRUE.
   GGA = PE
   IVDW = 1
   VDW_C6 = 1.23 0.70 0.63 0.70
   VDW_R0 = 1.397 1.342 1.243 1.342
   ENCUT = 600
   PREC = Accurate
   LASPH = .TRUE.
   LREAL = .FALSE.
   ISPIN = 1
   NELM = 200
   NELMIN = 8
   NCORE = 8
   KPAR = 1
   LWAVE = .FALSE.
   LCHARG = .FALSE.

 POTCAR:    PAW_PBE N 08Apr2002                   
 POTCAR:    PAW_PBE O 08Apr2002                   
 POTCAR:    PAW_PBE Mg_pv 13Apr2007               
 POTCAR:    PAW_PBE O 08Apr2002                   
 POTCAR:    PAW_PBE N 08Apr2002                   
   SHA256 =  e053789ff3a61a86a1b75d8a110fcc91f86041011e7b0817c7c99e4e8a6349d7 N/POTCAR              
   COPYR  = (c) Copyright 08Apr2002 Georg Kresse                                                    
   COPYR  = This file is part of the software VASP. Any use, copying, and all other rights are regul
   COPYR  = If you do not have a valid VASP license, you may not use, copy or distribute this file. 
   VRHFIN =N: s2p3                                                                                  
   LEXCH  = PE                                                                                      
   EATOM  =   264.5486 eV,   19.4438 Ry                                                             
                                                                                                    
   TITEL  = PAW_PBE N 08Apr2002                                                                     
   LULTRA =        F    use ultrasoft PP ?                                                          
   IUNSCR =        1    unscreen: 0-lin 1-nonlin 2-no                                               
   RPACOR =    1.200    partial core radius                                                         
   POMASS =   14.001; ZVAL   =    5.000    mass and valenz                                          
   RCORE  =    1.500    outmost cutoff radius                                                       
   RWIGS  =    1.400; RWIGS  =    0.741    wigner-seitz radius (au A)                               
   ENMAX  =  400.000; ENMIN  =  300.000 eV                                                          
   ICORE  =        2    local potential                                                             
   LCOR   =        T    correct aug charges                                                         
   LPAW   =        T    paw PP                                                                      
   EAUG   =  627.112                                                                                
   DEXC   =    0.000                                                                                
   RMAX   =    1.529    core radius for proj-oper                                                   
   RAUG   =    1.300    factor for augmentation sphere                                              
   RDEP   =    1.514    radius for radial grids                                                     
   RDEPT  =    1.338    core radius for aug-charge                                                  
                                                                                                    
   Atomic configuration                                                                             
    4 entries                                                                                       
     n  l   j            E        occ.                                                              
     1  0  0.50      -384.7179   2.0000                                                             
     2  0  0.50       -18.5828   2.0000                                                             
     2  1  0.50        -7.0898   3.0000                                                             
     3  2  1.50        -6.8029   0.0000                                                             
   Description                                                                                      
     l       E           TYP  RCUT    TYP  RCUT                                                     
     0    -18.5828119     23  1.200                                                                 
     0    -13.5018863     23  1.200                                                                 
     1     -7.0897853     23  1.500                                                                 
     1      9.5240782     23  1.500                                                                 
     2     -6.8029130      7  1.500                                                                 
  local pseudopotential read in
  partial core-charges read in
  partial kinetic energy density read in
  atomic valenz-charges read in
  non local Contribution for L=           0  read in
    real space projection operators read in
  non local Contribution for L=           0  read in
    real space projection operators read in
  non local Contribution for L=           1  read in
    real space projection operators read in
  non local Contribution for L=           1  read in
    real space projection operators read in
    PAW grid and wavefunctions read in

   number of l-projection  operators is LMAX  =           4
   number of lm-projection operators is LMMAX =           8

 POTCAR:    PAW_PBE O 08Apr2002                   
   SHA256 =  818f92134a0a090dccd8ba1447fa70422a3b330e708bb4f08108d8ae51209ddf O/POTCAR              
   COPYR  = (c) Copyright 08Apr2002 Georg Kresse                                                    
   COPYR  = This file is part of the software VASP. Any use, copying, and all other rights are regul
   COPYR  = If you do not have a valid VASP license, you may not use, copy or distribute this file. 
   VRHFIN =O: s2p4                                                                                  
   LEXCH  = PE                                                                                      
   EATOM  =   432.3788 eV,   31.7789 Ry                                                             
                                                                                                    
   TITEL  = PAW_PBE O 08Apr2002                                                                     
   LULTRA =        F    use ultrasoft PP ?                                                          
   IUNSCR =        1    unscreen: 0-lin 1-nonlin 2-no                                               
   RPACOR =    1.200    partial core radius                                                         
   POMASS =   16.000; ZVAL   =    6.000    mass and valenz                                          
   RCORE  =    1.520    outmost cutoff radius                                                       
   RWIGS  =    1.550; RWIGS  =    0.820    wigner-seitz radius (au A)                               
   ENMAX  =  400.000; ENMIN  =  300.000 eV                                                          
   ICORE  =        2    local potential                                                             
   LCOR   =        T    correct aug charges                                                         
   LPAW   =        T    paw PP                                                                      
   EAUG   =  605.392                                                                                
   DEXC   =    0.000                                                                                
   RMAX   =    1.553    core radius for proj-oper                                                   
   RAUG   =    1.300    factor for augmentation sphere                                              
   RDEP   =    1.550    radius for radial grids                                                     
   RDEPT  =    1.329    core radius for aug-charge                                                  
                                                                                                    
   Atomic configuration                                                                             
    4 entries                                                                                       
     n  l   j            E        occ.                                                              
     1  0  0.50      -514.6923   2.0000                                                             
     2  0  0.50       -23.9615   2.0000                                                             
     2  1  0.50        -9.0305   4.0000                                                             
     3  2  1.50        -9.5241   0.0000                                                             
   Description                                                                                      
     l       E           TYP  RCUT    TYP  RCUT                                                     
     0    -23.9615318     23  1.200                                                                 
     0     -9.5240782     23  1.200                                                                 
     1     -9.0304911     23  1.520                                                                 
     1      8.1634956     23  1.520                                                                 
     2     -9.5240782      7  1.500                                                                 
  local pseudopotential read in
  partial core-charges read in
  partial kinetic energy density read in
  kinetic energy density of atom read in
  atomic valenz-charges read in
  non local Contribution for L=           0  read in
    real space projection operators read in
  non local Contribution for L=           0  read in
    real space projection operators read in
  non local Contribution for L=           1  read in
    real space projection operators read in
  non local Contribution for L=           1  read in
    real space projection operators read in
    PAW grid and wavefunctions read in

   number of l-projection  operators is LMAX  =           4
   number of lm-projection operators is LMMAX =           8

 POTCAR:    PAW_PBE Mg_pv 13Apr2007               
   SHA256 =  f474ac0dd33840b9ae76c01d57fea79fdf77cdfbb07d5ade72c65f83c709b62b Mg_pv/POTCAR          
   COPYR  = (c) Copyright 13Apr2007 Georg Kresse                                                    
   COPYR  = This file is part of the software VASP. Any use, copying, and all other rights are regul
   COPYR  = If you do not have a valid VASP license, you may not use, copy or distribute this file. 
   VRHFIN =Mg: p6s2                                                                                 
   LEXCH  = PE                                                                                      
   EATOM  =  1056.7344 eV,   77.6678 Ry                                                             
                                                                                                    
   TITEL  = PAW_PBE Mg_pv 13Apr2007                                                                 
   LULTRA =        F    use ultrasoft PP ?                                                          
   IUNSCR =        1    unscreen: 0-lin 1-nonlin 2-no                                               
   RPACOR =    1.500    partial core radius                                                         
   POMASS =   24.305; ZVAL   =    8.000    mass and valenz                                          
   RCORE  =    2.000    outmost cutoff radius                                                       
   RWIGS  =    2.000; RWIGS  =    1.058    wigner-seitz radius (au A)                               
   ENMAX  =  403.929; ENMIN  =  302.947 eV                                                          
   RCLOC  =    1.506    cutoff for local pot                                                        
   LCOR   =        T    correct aug charges                                                         
   LPAW   =        T    paw PP                                                                      
   EAUG   =  758.780                                                                                
   DEXC   =    0.000                                                                                
   RMAX   =    2.045    core radius for proj-oper                                                   
   RAUG   =    1.300    factor for augmentation sphere                                              
   RDEP   =    2.025    radius for radial grids                                                     
   RDEPT  =    1.557    core radius for aug-charge                                                  
                                                                                                    
   Atomic configuration                                                                             
    5 entries                                                                                       
     n  l   j            E        occ.                                                              
     1  0  0.50     -1259.6230   2.0000                                                             
     2  0  0.50       -79.8442   2.0000                                                             
     2  1  1.50       -46.6121   6.0000                                                             
     3  0  0.50        -4.7055   2.0000                                                             
     3  2  1.50        -1.3606   0.0000                                                             
   Description                                                                                      
     l       E           TYP  RCUT    TYP  RCUT                                                     
     1    -46.6121073     23  1.600                                                                 
     1      2.7211652     23  1.600                                                                 
     0     -4.7054661     23  2.000                                                                 
     0     61.2262170     23  2.000                                                                 
     2     -1.3605826     23  2.000                                                                 
  local pseudopotential read in
  partial core-charges read in
  partial kinetic energy density read in
  atomic valenz-charges read in
  non local Contribution for L=           1  read in
    real space projection operators read in
  non local Contribution for L=           1  read in
    real space projection operators read in
  non local Contribution for L=           0  read in
    real space projection operators read in
  non local Contribution for L=           0  read in
    real space projection operators read in
  non local Contribution for L=           2  read in
    real space projection operators read in
    PAW grid and wavefunctions read in

   number of l-projection  operators is LMAX  =           5
   number of lm-projection operators is LMMAX =          13

 POTCAR:    PAW_PBE O 08Apr2002                   
   SHA256 =  818f92134a0a090dccd8ba1447fa70422a3b330e708bb4f08108d8ae51209ddf O/POTCAR              
   COPYR  = (c) Copyright 08Apr2002 Georg Kresse                                                    
   COPYR  = This file is part of the software VASP. Any use, copying, and all other rights are regul
   COPYR  = If you do not have a valid VASP license, you may not use, copy or distribute this file. 
   VRHFIN =O: s2p4                                                                                  
   LEXCH  = PE                                                                                      
   EATOM  =   432.3788 eV,   31.7789 Ry                                                             
                                                                                                    
   TITEL  = PAW_PBE O 08Apr2002                                                                     
   LULTRA =        F    use ultrasoft PP ?                                                          
   IUNSCR =        1    unscreen: 0-lin 1-nonlin 2-no                                               
   RPACOR =    1.200    partial core radius                                                         
   POMASS =   16.000; ZVAL   =    6.000    mass and valenz                                          
   RCORE  =    1.520    outmost cutoff radius                                                       
   RWIGS  =    1.550; RWIGS  =    0.820    wigner-seitz radius (au A)                               
   ENMAX  =  400.000; ENMIN  =  300.000 eV                                                          
   ICORE  =        2    local potential                                                             
   LCOR   =        T    correct aug charges                                                         
   LPAW   =        T    paw PP                                                                      
   EAUG   =  605.392                                                                                
   DEXC   =    0.000                                                                                
   RMAX   =    1.553    core radius for proj-oper                                                   
   RAUG   =    1.300    factor for augmentation sphere                                              
   RDEP   =    1.550    radius for radial grids                                                     
   RDEPT  =    1.329    core radius for aug-charge                                                  
                                                                                                    
   Atomic configuration                                                                             
    4 entries                                                                                       
     n  l   j            E        occ.                                                              
     1  0  0.50      -514.6923   2.0000                                                             
     2  0  0.50       -23.9615   2.0000                                                             
     2  1  0.50        -9.0305   4.0000                                                             
     3  2  1.50        -9.5241   0.0000                                                             
   Description                                                                                      
     l       E           TYP  RCUT    TYP  RCUT                                                     
     0    -23.9615318     23  1.200                                                                 
     0     -9.5240782     23  1.200                                                                 
     1     -9.0304911     23  1.520                                                                 
     1      8.1634956     23  1.520                                                                 
     2     -9.5240782      7  1.500                                                                 
  local pseudopotential read in
  partial core-charges read in
  partial kinetic energy density read in
  kinetic energy density of atom read in
  atomic valenz-charges read in
  non local Contribution for L=           0  read in
    real space projection operators read in
  non local Contribution for L=           0  read in
    real space projection operators read in
  non local Contribution for L=           1  read in
    real space projection operators read in
  non local Contribution for L=           1  read in
    real space projection operators read in
    PAW grid and wavefunctions read in

   number of l-projection  operators is LMAX  =           4
   number of lm-projection operators is LMMAX =           8

 -----------------------------------------------------------------------------
|                                                                             |
|               ----> ADVICE to this user running VASP <----                  |
|                                                                             |
|     You have a (more or less) 'large supercell' and for larger cells it     |
|     might be more efficient to use real-space projection operators.         |
|     Therefore, try LREAL= Auto in the INCAR file.                           |
|     Mind: For very accurate calculation, you might also keep the            |
|     reciprocal projection scheme (i.e. LREAL=.FALSE.).                      |
|                                                                             |
 -----------------------------------------------------------------------------

  PAW_PBE N 08Apr2002                   :
 energy of atom  1       EATOM= -264.5486
 kinetic energy error for atom=    0.0103 (will be added to EATOM!!)
  PAW_PBE O 08Apr2002                   :
 energy of atom  2       EATOM= -432.3788
 kinetic energy error for atom=    0.0168 (will be added to EATOM!!)
  PAW_PBE Mg_pv 13Apr2007               :
 energy of atom  3       EATOM=-1056.7344
 kinetic energy error for atom=    0.0221 (will be added to EATOM!!)
  PAW_PBE O 08Apr2002                   :
 energy of atom  4       EATOM= -432.3788
 kinetic energy error for atom=    0.0168 (will be added to EATOM!!)


 POSCAR:  N  O Mg  O
  positions in direct lattice
  No initial velocities read in
 exchange correlation table for  LEXCH =        8
   RHO(1)=    0.500       N(1)  =     2000
   RHO(2)=  100.500       N(2)  =     4000



--------------------------------------------------------------------------------------------------------


 ion  position               nearest neighbor table
   1  0.546  0.546  0.757-   3 1.18
   2  0.707  0.707  0.756-   4 1.18
   3  0.520  0.520  0.810-   1 1.18
   4  0.734  0.734  0.809-   2 1.18
   5  0.000  0.750  0.350-  37 2.14  39 2.14  40 2.14  47 2.14  56 2.14
   6  0.250  0.000  0.350-  38 2.14  39 2.14  40 2.14  48 2.14  55 2.14
   7  0.000  0.000  0.450-  39 2.14  38 2.14  37 2.14  45 2.14  54 2.14  43 2.14
   8  0.250  0.750  0.450-  40 2.14  38 2.14  37 2.14  46 2.14  53 2.14  44 2.14
   9  1.000  0.750  0.550-  60 2.14  51 2.14  43 2.14  44 2.14  37 2.15  41 2.15
  10  0.250  0.000  0.550-  59 2.14  43 2.14  44 2.14  52 2.14  38 2.14  42 2.16
  11  0.001  0.001  0.649-  43 2.13  42 2.13  49 2.13  58 2.14  41 2.14
  12  0.249  0.751  0.649-  41 2.11  44 2.12  57 2.13  42 2.14  50 2.14
  13  0.000  0.250  0.350-  45 2.14  39 2.14  47 2.14  48 2.14  64 2.14
  14  0.250  0.500  0.350-  46 2.14  40 2.14  47 2.14  48 2.14  63 2.14
  15  0.000  0.500  0.450-  47 2.14  45 2.14  46 2.14  37 2.14  62 2.14  51 2.14
  16  0.250  0.250  0.450-  48 2.14  45 2.14  46 2.14  38 2.14  61 2.14  52 2.14
  17  0.000  0.250  0.550-  51 2.14  43 2.14  68 2.14  52 2.14  45 2.14  49 2.16
  18  0.251  0.500  0.550-  67 2.14  44 2.14  52 2.14  51 2.14  46 2.15  50 2.15
  19  0.002  0.500  0.649-  50 2.11  51 2.12  66 2.13  49 2.14  41 2.14
  20  0.250  0.250  0.649-  52 2.13  42 2.13  49 2.13  50 2.14  65 2.14
  21  0.500  0.750  0.350-  53 2.14  40 2.14  55 2.14  56 2.14  63 2.14
  22  0.750  0.000  0.350-  54 2.14  39 2.14  55 2.14  56 2.14  64 2.14
  23  0.500  0.000  0.450-  55 2.14  53 2.14  54 2.14  38 2.14  61 2.14  59 2.14
  24  0.750  0.750  0.450-  56 2.14  53 2.14  54 2.14  37 2.14  62 2.14  60 2.15
  25  0.501  0.750  0.550-  67 2.13  60 2.13  44 2.14  59 2.14  53 2.15  57 2.17
  26  0.750  1.000  0.550-  60 2.14  59 2.14  43 2.14  68 2.14  54 2.15  58 2.15
  27  0.500  0.002  0.649-  65 2.11  59 2.12  57 2.13  42 2.14  58 2.14
  28  0.753  0.753  0.652-  58 2.13  41 2.13  60 2.17  57 2.17  66 2.17
  29  0.500  0.250  0.350-  61 2.14  55 2.14  48 2.14  63 2.14  64 2.14
  30  0.750  0.500  0.350-  62 2.14  56 2.14  47 2.14  63 2.14  64 2.14
  31  0.500  0.500  0.450-  63 2.14  53 2.14  61 2.14  62 2.14  46 2.14  67 2.15
  32  0.750  0.250  0.450-  64 2.14  54 2.14  61 2.14  62 2.14  45 2.14  68 2.14
  33  0.500  0.251  0.550-  67 2.14  68 2.14  52 2.14  59 2.14  61 2.15  65 2.15
  34  0.750  0.501  0.550-  67 2.13  60 2.13  68 2.14  51 2.14  62 2.15  66 2.17
  35  0.498  0.498  0.652-  65 2.13  50 2.13  67 2.17  66 2.17  57 2.17
  36  0.751  0.249  0.649-  58 2.11  68 2.12  66 2.13  49 2.14  65 2.14
  37  0.000  0.750  0.450-   5 2.14   7 2.14   8 2.14  15 2.14  24 2.14   9 2.15
  38  0.250  0.000  0.450-   6 2.14   7 2.14   8 2.14  16 2.14  23 2.14  10 2.14
  39  0.000  0.000  0.350-   7 2.14   6 2.14   5 2.14  13 2.14  22 2.14
  40  0.250  0.750  0.350-   8 2.14   6 2.14   5 2.14  14 2.14  21 2.14
  41  0.001  0.750  0.651-  12 2.11  28 2.13  11 2.14  19 2.14   9 2.15
  42  0.250  0.000  0.651-  11 2.13  20 2.13  27 2.14  12 2.14  10 2.16
  43  0.000  0.000  0.550-  11 2.13  10 2.14  17 2.14   7 2.14   9 2.14  26 2.14
  44  0.250  0.750  0.550-  12 2.12  18 2.14  10 2.14  25 2.14   8 2.14   9 2.14
  45  0.000  0.250  0.450-  13 2.14   7 2.14  15 2.14  16 2.14  32 2.14  17 2.14
  46  0.250  0.500  0.450-  14 2.14   8 2.14  15 2.14  16 2.14  31 2.14  18 2.15
  47  0.000  0.500  0.350-  15 2.14  13 2.14  14 2.14   5 2.14  30 2.14
  48  0.250  0.250  0.350-  16 2.14  13 2.14  14 2.14   6 2.14  29 2.14
  49  0.000  0.250  0.651-  11 2.13  20 2.13  19 2.14  36 2.14  17 2.16
  50  0.249  0.500  0.651-  19 2.11  35 2.13  20 2.14  12 2.14  18 2.15
  51  1.000  0.500  0.550-  19 2.12  17 2.14   9 2.14  34 2.14  15 2.14  18 2.14
  52  0.250  0.250  0.550-  20 2.13  33 2.14  18 2.14  10 2.14  17 2.14  16 2.14
  53  0.500  0.750  0.450-  21 2.14   8 2.14  23 2.14  24 2.14  31 2.14  25 2.15
  54  0.750  0.000  0.450-  22 2.14   7 2.14  23 2.14  24 2.14  32 2.14  26 2.15
  55  0.500  0.000  0.350-  23 2.14  21 2.14  22 2.14   6 2.14  29 2.14
  56  0.750  0.750  0.350-  24 2.14  21 2.14  22 2.14   5 2.14  30 2.14
  57  0.498  0.752  0.652-  27 2.13  12 2.13  25 2.17  35 2.17  28 2.17
  58  0.750  0.001  0.651-  36 2.11  28 2.13  11 2.14  27 2.14  26 2.15
  59  0.500  1.000  0.550-  27 2.12  10 2.14  26 2.14  25 2.14  23 2.14  33 2.14
  60  0.750  0.750  0.551-  34 2.13  25 2.13  26 2.14   9 2.14  24 2.15  28 2.17
  61  0.500  0.250  0.450-  29 2.14  23 2.14  16 2.14  31 2.14  32 2.14  33 2.15
  62  0.750  0.500  0.450-  30 2.14  24 2.14  15 2.14  31 2.14  32 2.14  34 2.15
  63  0.500  0.500  0.350-  31 2.14  21 2.14  29 2.14  30 2.14  14 2.14
  64  0.750  0.250  0.350-  32 2.14  22 2.14  29 2.14  30 2.14  13 2.14
  65  0.500  0.249  0.651-  27 2.11  35 2.13  20 2.14  36 2.14  33 2.15
  66  0.752  0.498  0.652-  19 2.13  36 2.13  34 2.17  35 2.17  28 2.17
  67  0.500  0.500  0.551-  34 2.13  25 2.13  33 2.14  18 2.14  31 2.15  35 2.17
  68  0.750  0.250  0.550-  36 2.12  33 2.14  17 2.14  34 2.14  32 2.14  26 2.14


IMPORTANT INFORMATION: All symmetrisations will be switched off!
NOSYMM: (Re-)initialisation of all symmetry stuff for point group C_1.


----------------------------------------------------------------------------------------

                                     Primitive cell                                     

  volume of cell :    1563.6717

  direct lattice vectors                    reciprocal lattice vectors
     8.546113626  0.000000000  0.000000000     0.117012252  0.000000000  0.000000000
     0.000000000  8.546113626  0.000000000     0.000000000  0.117012252  0.000000000
     0.000000000  0.000000000 21.409585219     0.000000000  0.000000000  0.046708051

  length of vectors
     8.546113626  8.546113626 21.409585219     0.117012252  0.117012252  0.046708051

  position of ions in fractional coordinates (direct lattice)
     0.546243915  0.546243915  0.756787421
     0.706614210  0.706614222  0.756306563
     0.519932206  0.519932223  0.810024028
     0.734028198  0.734028240  0.809367406
     0.000000000  0.750000000  0.350310383
     0.250000000  0.000000000  0.350310383
     0.000000000  0.000000000  0.450103461
     0.250000000  0.750000000  0.450103461
     0.999674252  0.750051947  0.550437484
     0.250084252  0.000063431  0.550220237
     0.000610343  0.000610344  0.649381764
     0.248533863  0.750610463  0.649234544
     0.000000000  0.250000000  0.350310383
     0.250000000  0.500000000  0.350310383
     0.000000000  0.500000000  0.450103461
     0.250000000  0.250000000  0.450103461
     0.000063429  0.250084255  0.550220236
     0.250544462  0.500073023  0.550469990
     0.001705900  0.499619075  0.649233676
     0.249650879  0.249650881  0.649419949
     0.500000000  0.750000000  0.350310383
     0.750000000  0.000000000  0.350310383
     0.500000000  0.000000000  0.450103461
     0.750000000  0.750000000  0.450103461
     0.500604685  0.749503550  0.550330800
     0.750051946  0.999674252  0.550437483
     0.499619072  0.001705907  0.649233675
     0.752516077  0.752516079  0.651819518
     0.500000000  0.250000000  0.350310383
     0.750000000  0.500000000  0.350310383
     0.500000000  0.500000000  0.450103461
     0.750000000  0.250000000  0.450103461
     0.500073021  0.250544464  0.550469990
     0.749503547  0.500604688  0.550330800
     0.497887102  0.497887100  0.652030816
     0.750610463  0.248533868  0.649234543
     0.000000000  0.750000000  0.450103461
     0.250000000  0.000000000  0.450103461
     0.000000000  0.000000000  0.350310383
     0.250000000  0.750000000  0.350310383
     0.001397713  0.750355047  0.650879985
     0.249826297  0.000411573  0.651167066
     0.000074825  0.000074824  0.549905667
     0.250479047  0.750048529  0.550004386
     0.000000000  0.250000000  0.450103461
     0.250000000  0.500000000  0.450103461
     0.000000000  0.500000000  0.350310383
     0.250000000  0.250000000  0.350310383
     0.000411568  0.249826300  0.651167065
     0.248925468  0.499890982  0.650964099
     0.999692605  0.500065754  0.550007403
     0.250083176  0.250083176  0.549928201
     0.500000000  0.750000000  0.450103461
     0.750000000  0.000000000  0.450103461
     0.500000000  0.000000000  0.350310383
     0.750000000  0.750000000  0.350310383
     0.498103301  0.752177901  0.651593367
     0.750355046  0.001397714  0.650879984
     0.500065751  0.999692607  0.550007403
     0.749781762  0.749781764  0.550618747
     0.500000000  0.250000000  0.450103461
     0.750000000  0.500000000  0.450103461
     0.500000000  0.500000000  0.350310383
     0.750000000  0.250000000  0.350310383
     0.499890982  0.248925470  0.650964098
     0.752177900  0.498103302  0.651593364
     0.500368842  0.500368844  0.550648800
     0.750048529  0.250479050  0.550004385

  ion indices of the primitive-cell ions
   primitive index   ion index
                 1           1
                 2           2
                 3           3
                 4           4
                 5           5
                 6           6
                 7           7
                 8           8
                 9           9
                10          10
                11          11
                12          12
                13          13
                14          14
                15          15
                16          16
                17          17
                18          18
                19          19
                20          20
                21          21
                22          22
                23          23
                24          24
                25          25
                26          26
                27          27
                28          28
                29          29
                30          30
                31          31
                32          32
                33          33
                34          34
                35          35
                36          36
                37          37
                38          38
                39          39
                40          40
                41          41
                42          42
                43          43
                44          44
                45          45
                46          46
                47          47
                48          48
                49          49
                50          50
                51          51
                52          52
                53          53
                54          54
                55          55
                56          56
                57          57
                58          58
                59          59
                60          60
                61          61
                62          62
                63          63
                64          64
                65          65
                66          66
                67          67
                68          68

----------------------------------------------------------------------------------------



 KPOINTS: pymatgen v2020.8.13 with grid density = 

Automatic generation of k-mesh.
 Grid dimensions read from file:
 generate k-points for:    2    2    1

 Generating k-lattice:

  Cartesian coordinates                     Fractional coordinates (reciprocal lattice)
     0.058506126  0.000000000  0.000000000     0.500000000  0.000000000  0.000000000
     0.000000000  0.058506126  0.000000000     0.000000000  0.500000000  0.000000000
     0.000000000  0.000000000  0.046708051     0.000000000  0.000000000  1.000000000

  Length of vectors
     0.058506126  0.058506126  0.046708051

  Shift w.r.t. Gamma in fractional coordinates (k-lattice)
     0.000000000  0.000000000  0.000000000

 
 Subroutine IBZKPT returns following result:
 ===========================================
 
 Found      4 irreducible k-points:
 
 Following reciprocal coordinates:
            Coordinates               Weight
  0.000000  0.000000  0.000000      1.000000
  0.500000  0.000000  0.000000      1.000000
  0.000000  0.500000  0.000000      1.000000
  0.500000  0.500000  0.000000      1.000000
 
 Following cartesian coordinates:
            Coordinates               Weight
  0.000000  0.000000  0.000000      1.000000
  0.058506  0.000000  0.000000      1.000000
  0.000000  0.058506  0.000000      1.000000
  0.058506  0.058506  0.000000      1.000000
 


--------------------------------------------------------------------------------------------------------




 Dimension of arrays:
   k-points           NKPTS =      4   k-points in BZ     NKDIM =      4   number of bands    NBANDS=    320
   number of dos      NEDOS =    301   number of ions     NIONS =     68
   non local maximal  LDIM  =      5   non local SUM 2l+1 LMDIM =     13
   total plane-waves  NPLWV = 882000
   max r-space proj   IRMAX =      1   max aug-charges    IRDMAX=  11315
   dimension x,y,z NGX =    70 NGY =   70 NGZ =  180
   dimension x,y,z NGXF=   140 NGYF=  140 NGZF=  360
   support grid    NGXF=   140 NGYF=  140 NGZF=  360
   ions per type =               2   2  32  32
   NGX,Y,Z   is equivalent  to a cutoff of  13.62, 13.62, 13.98 a.u.
   NGXF,Y,Z  is equivalent  to a cutoff of  27.23, 27.23, 27.95 a.u.

 SYSTEM =  MgO-rocksalt                            
 POSCAR =   N  O Mg  O                             

--------------------------------------------------------------------------------------------------------


  energy-cutoff  :      600.00
  volume of cell :     1563.67
      direct lattice vectors                 reciprocal lattice vectors
     8.546113626  0.000000000  0.000000000     0.117012252  0.000000000  0.000000000
     0.000000000  8.546113626  0.000000000     0.000000000  0.117012252  0.000000000
     0.000000000  0.000000000 21.409585219     0.000000000  0.000000000  0.046708051

  length of vectors
     8.546113626  8.546113626 21.409585219     0.117012252  0.117012252  0.046708051



 k-points in units of 2pi/SCALE and weight: pymatgen v2020.8.13 with grid density = 
   0.00000000  0.00000000  0.00000000       0.250
   0.05850613  0.00000000  0.00000000       0.250
   0.00000000  0.05850613  0.00000000       0.250
   0.05850613  0.05850613  0.00000000       0.250

 k-points in reciprocal lattice and weights: pymatgen v2020.8.13 with grid density = 
   0.00000000  0.00000000  0.00000000       0.250
   0.50000000  0.00000000  0.00000000       0.250
   0.00000000  0.50000000  0.00000000       0.250
   0.50000000  0.50000000  0.00000000       0.250

 position of ions in fractional coordinates (direct lattice) 
   0.54624391  0.54624392  0.75678742
   0.70661421  0.70661422  0.75630656
   0.51993221  0.51993222  0.81002403
   0.73402820  0.73402824  0.80936741
   0.00000000  0.75000000  0.35031038
   0.25000000  0.00000000  0.35031038
   0.00000000  0.00000000  0.45010346
   0.25000000  0.75000000  0.45010346
   0.99967425  0.75005195  0.55043748
   0.25008425  0.00006343  0.55022024
   0.00061034  0.00061034  0.64938176
   0.24853386  0.75061046  0.64923454
   0.00000000  0.25000000  0.35031038
   0.25000000  0.50000000  0.35031038
   0.00000000  0.50000000  0.45010346
   0.25000000  0.25000000  0.45010346
   0.00006343  0.25008426  0.55022024
   0.25054446  0.50007302  0.55046999
   0.00170590  0.49961907  0.64923368
   0.24965088  0.24965088  0.64941995
   0.50000000  0.75000000  0.35031038
   0.75000000  0.00000000  0.35031038
   0.50000000  0.00000000  0.45010346
   0.75000000  0.75000000  0.45010346
   0.50060469  0.74950355  0.55033080
   0.75005195  0.99967425  0.55043748
   0.49961907  0.00170591  0.64923368
   0.75251608  0.75251608  0.65181952
   0.50000000  0.25000000  0.35031038
   0.75000000  0.50000000  0.35031038
   0.50000000  0.50000000  0.45010346
   0.75000000  0.25000000  0.45010346
   0.50007302  0.25054446  0.55046999
   0.74950355  0.50060469  0.55033080
   0.49788710  0.49788710  0.65203082
   0.75061046  0.24853387  0.64923454
   0.00000000  0.75000000  0.45010346
   0.25000000  0.00000000  0.45010346
   0.00000000  0.00000000  0.35031038
   0.25000000  0.75000000  0.35031038
   0.00139771  0.75035505  0.65087999
   0.24982630  0.00041157  0.65116707
   0.00007482  0.00007482  0.54990567
   0.25047905  0.75004853  0.55000439
   0.00000000  0.25000000  0.45010346
   0.25000000  0.50000000  0.45010346
   0.00000000  0.50000000  0.35031038
   0.25000000  0.25000000  0.35031038
   0.00041157  0.24982630  0.65116707
   0.24892547  0.49989098  0.65096410
   0.99969260  0.50006575  0.55000740
   0.25008318  0.25008318  0.54992820
   0.50000000  0.75000000  0.45010346
   0.75000000  0.00000000  0.45010346
   0.50000000  0.00000000  0.35031038
   0.75000000  0.75000000  0.35031038
   0.49810330  0.75217790  0.65159337
   0.75035505  0.00139771  0.65087998
   0.50006575  0.99969261  0.55000740
   0.74978176  0.74978176  0.55061875
   0.50000000  0.25000000  0.45010346
   0.75000000  0.50000000  0.45010346
   0.50000000  0.50000000  0.35031038
   0.75000000  0.25000000  0.35031038
   0.49989098  0.24892547  0.65096410
   0.75217790  0.49810330  0.65159336
   0.50036884  0.50036884  0.55064880
   0.75004853  0.25047905  0.55000439

 position of ions in cartesian coordinates  (Angst):
   4.66826256  4.66826257 16.20250479
   6.03880533  6.03880543 16.19220981
   4.44339971  4.44339986 17.34227846
   6.27308838  6.27308874 17.32822046
   0.00000000  6.40958522  7.50000000
   2.13652841  0.00000000  7.50000000
   0.00000000  0.00000000  9.63652841
   2.13652841  6.40958522  9.63652841
   8.54332974  6.41002917 11.78463822
   2.13724843  0.00054209 11.77998705
   0.00521606  0.00521607 13.90299422
   2.12399863  6.41480231 13.89984230
   0.00000000  2.13652841  7.50000000
   2.13652841  4.27305681  7.50000000
   0.00000000  4.27305681  9.63652841
   2.13652841  2.13652841  9.63652841
   0.00054207  2.13724846 11.77998704
   2.14118144  4.27368088 11.78533416
   0.01457882  4.26980138 13.89982372
   2.13354478  2.13354479 13.90381174
   4.27305681  6.40958522  7.50000000
   6.40958522  0.00000000  7.50000000
   4.27305681  0.00000000  9.63652841
   6.40958522  6.40958522  9.63652841
   4.27822452  6.40534250 11.78235416
   6.41002916  8.54332975 11.78463820
   4.26980136  0.01457888 13.89982370
   6.43108790  6.43108792 13.95518553
   4.27305681  2.13652841  7.50000000
   6.40958522  4.27305681  7.50000000
   4.27305681  4.27305681  9.63652841
   6.40958522  2.13652841  9.63652841
   4.27368086  2.14118146 11.78533416
   6.40534248  4.27822454 11.78235416
   4.25499975  4.25499973 13.95970931
   6.41480230  2.12399868 13.89984227
   0.00000000  6.40958522  9.63652841
   2.13652841  0.00000000  9.63652841
   0.00000000  0.00000000  7.50000000
   2.13652841  6.40958522  7.50000000
   0.01194501  6.41261949 13.93507051
   2.13504392  0.00351735 13.94121678
   0.00063946  0.00063946 11.77325223
   2.14062239  6.40999995 11.77536578
   0.00000000  2.13652841  9.63652841
   2.13652841  4.27305681  9.63652841
   0.00000000  4.27305681  7.50000000
   2.13652841  2.13652841  7.50000000
   0.00351731  2.13504394 13.94121678
   2.12734533  4.27212513 13.93687135
   8.54348659  4.27361875 11.77543037
   2.13723924  2.13723924 11.77373469
   4.27305681  6.40958522  9.63652841
   6.40958522  0.00000000  9.63652841
   4.27305681  0.00000000  7.50000000
   6.40958522  6.40958522  7.50000000
   4.25684741  6.42819781 13.95034372
   6.41261948  0.01194503 13.93507049
   4.27361873  8.54348661 11.77543037
   6.40772014  6.40772015 11.78851899
   4.27305681  2.13652841  9.63652841
   6.40958522  4.27305681  9.63652841
   4.27305681  4.27305681  7.50000000
   6.40958522  2.13652841  7.50000000
   4.27212513  2.12734535 13.93687133
   6.42819780  4.25684742 13.95034365
   4.27620898  4.27620899 11.78916241
   6.40999995  2.14062242 11.77536576



--------------------------------------------------------------------------------------------------------

--------------------------------------- Iteration      FINAL  ---------------------------------------


--------------------OUTCAR has been truncated-------------------------


--------------------OUTCAR has been truncated-------------------------


--------------------OUTCAR has been truncated-------------------------


--------------------OUTCAR has been truncated-------------------------


--------------------OUTCAR has been truncated-------------------------


--------------------OUTCAR has been truncated-------------------------


--------------------OUTCAR has been truncated-------------------------


--------------------OUTCAR has been truncated-------------------------


--------------------OUTCAR has been truncated-------------------------


--------------------OUTCAR has been truncated-------------------------


  DFT-D2 method for vdW energy calculation
  -------------------------------------------------------------------

  Parameters of vdW forcefield:
         C6(Jnm^6/mol)     R0(A)
   -----------------------------
   N        1.230          1.397
   O        0.700          1.342
   Mg       0.630          1.243
   O        0.700          1.342

  vdW correction parametrized for the method pbe       

  IVDW =   1
  VDW_RADIUS =    50.000 A
  VDW_S6 =     0.750
  VDW_SR =     1.000
  VDW_D =    20.000
  LVDW_EWALD = F

  Number of pair interactions contributing to vdW energy:  794204
  Edisp (eV):   -3.61297
    FORVDW:  cpu time      0.1915: real time      0.1915

  FORCE on cell =-STRESS in cart. coord.  units (eV):
  Direction    XX          YY          ZZ          XY          YZ          ZX
  --------------------------------------------------------------------------------------
  Alpha Z   919.36582   919.36582   919.36582
  Ewald  150582.09791150582.09798************   318.41955     1.31565     1.31550
  Hartree161392.30530161392.30536************   240.76736    -0.06113    -0.06121
  E(xc)   -2553.69765 -2553.69765 -2556.37579     0.64036     0.00689     0.00689
  Local  ************************320203.48641  -574.88166    -0.94955    -0.94933
  n-local -2874.74170 -2874.74170 -2908.00053    -7.79831    -0.00774    -0.00777
  augment  1062.33324  1062.33324  1052.19647     2.06048    -0.01107    -0.01102
  Kinetic  7746.64961  7746.64963  7742.76893    20.38651    -0.40083    -0.40083
  Fock        0.00000     0.00000     0.00000     0.00000     0.00000     0.00000
  vdW        -5.05958    -5.05958    -4.29226     0.04900     0.00112     0.00112
  -------------------------------------------------------------------------------------
  Total     -44.26226   -44.26226   -15.85671    -0.35672    -0.10666    -0.10665
  in kB     -45.35222   -45.35222   -16.24719    -0.36551    -0.10928    -0.10927
  external pressure =      -35.65 kB  Pullay stress =        0.00 kB


 VOLUME and BASIS-vectors are now :
 -----------------------------------------------------------------------------
  energy-cutoff  :      600.00
  volume of cell :     1563.67
      direct lattice vectors                 reciprocal lattice vectors
     8.546113626  0.000000000  0.000000000     0.117012252  0.000000000  0.000000000
     0.000000000  8.546113626  0.000000000     0.000000000  0.117012252  0.000000000
     0.000000000  0.000000000 21.409585219     0.000000000  0.000000000  0.046708051

  length of vectors
     8.546113626  8.546113626 21.409585219     0.117012252  0.117012252  0.046708051


 FORCES acting on ions:
    Electron-Ion                     Ewald-Force                    Non-Local-Force
 -----------------------------------------------------------------------------------------------
   0.437E+02 0.437E+02 -.106E+04   -.406E+02 -.406E+02 0.102E+04   -.294E+01 -.294E+01 0.401E+02
   -.416E+02 -.416E+02 -.106E+04   0.382E+02 0.382E+02 0.102E+04   0.327E+01 0.327E+01 0.400E+02
   0.132E+03 0.132E+03 -.155E+04   -.144E+03 -.144E+03 0.160E+04   0.124E+02 0.124E+02 -.572E+02
   -.134E+03 -.134E+03 -.155E+04   0.147E+03 0.147E+03 0.160E+04   -.128E+02 -.128E+02 -.570E+02
   -.217E+00 -.182E+00 0.204E+04   0.218E+00 0.184E+00 -.203E+04   -.107E-02 -.100E-02 -.698E+01
   0.182E+00 -.203E+00 0.204E+04   -.183E+00 0.205E+00 -.203E+04   0.679E-03 -.120E-02 -.699E+01
   -.651E+00 -.651E+00 0.735E+03   0.657E+00 0.657E+00 -.735E+03   -.548E-02 -.548E-02 0.388E+00
   0.118E+01 -.572E+00 0.736E+03   -.117E+01 0.576E+00 -.737E+03   -.986E-02 -.324E-02 0.450E+00
   -.635E+01 -.379E+01 -.552E+03   0.622E+01 0.381E+01 0.553E+03   0.122E+00 -.150E-01 -.571E+00
   0.371E+01 -.392E+01 -.562E+03   -.373E+01 0.395E+01 0.563E+03   0.153E-01 -.208E-01 -.308E+00
   -.214E+02 -.214E+02 -.188E+04   0.215E+02 0.215E+02 0.187E+04   -.166E+00 -.166E+00 0.623E+01
   0.255E+02 -.223E+02 -.186E+04   -.260E+02 0.224E+02 0.185E+04   0.535E+00 -.151E+00 0.623E+01
   -.203E+00 0.182E+00 0.204E+04   0.205E+00 -.183E+00 -.203E+04   -.120E-02 0.677E-03 -.699E+01
   0.199E+00 0.204E+00 0.204E+04   -.199E+00 -.205E+00 -.203E+04   0.419E-03 0.104E-02 -.698E+01
   -.125E+01 0.670E+00 0.736E+03   0.125E+01 -.673E+00 -.736E+03   0.329E-02 0.256E-02 0.449E+00
   0.578E+00 0.578E+00 0.735E+03   -.576E+00 -.576E+00 -.735E+03   -.644E-03 -.638E-03 0.395E+00
   -.392E+01 0.371E+01 -.562E+03   0.395E+01 -.373E+01 0.563E+03   -.208E-01 0.152E-01 -.308E+00
   0.613E+01 0.400E+01 -.553E+03   -.598E+01 -.403E+01 0.554E+03   -.138E+00 0.202E-01 -.561E+00
   -.263E+02 0.229E+02 -.186E+04   0.268E+02 -.231E+02 0.185E+04   -.516E+00 0.158E+00 0.624E+01
   0.207E+02 0.207E+02 -.188E+04   -.208E+02 -.208E+02 0.188E+04   0.160E+00 0.160E+00 0.622E+01
   0.219E+00 -.200E+00 0.204E+04   -.219E+00 0.200E+00 -.203E+04   0.271E-03 -.204E-03 -.698E+01
   -.182E+00 -.217E+00 0.204E+04   0.184E+00 0.218E+00 -.203E+04   -.996E-03 -.108E-02 -.698E+01
   0.670E+00 -.125E+01 0.736E+03   -.673E+00 0.125E+01 -.736E+03   0.256E-02 0.329E-02 0.449E+00
   -.116E+01 -.116E+01 0.737E+03   0.117E+01 0.117E+01 -.737E+03   -.355E-03 -.352E-03 0.604E+00
   0.626E+01 -.604E+01 -.544E+03   -.613E+01 0.590E+01 0.544E+03   -.120E+00 0.136E+00 0.155E+00
   -.379E+01 -.635E+01 -.552E+03   0.381E+01 0.622E+01 0.553E+03   -.150E-01 0.122E+00 -.571E+00
   0.229E+02 -.263E+02 -.186E+04   -.231E+02 0.268E+02 0.185E+04   0.158E+00 -.516E+00 0.624E+01
   -.391E+02 -.391E+02 -.174E+04   0.399E+02 0.399E+02 0.174E+04   -.805E+00 -.805E+00 0.359E+01
   0.204E+00 0.199E+00 0.204E+04   -.205E+00 -.199E+00 -.203E+04   0.104E-02 0.424E-03 -.698E+01
   -.200E+00 0.219E+00 0.204E+04   0.200E+00 -.219E+00 -.203E+04   -.205E-03 0.274E-03 -.698E+01
   0.126E+01 0.126E+01 0.737E+03   -.127E+01 -.127E+01 -.737E+03   -.137E-02 -.137E-02 0.608E+00
   -.572E+00 0.118E+01 0.736E+03   0.576E+00 -.117E+01 -.737E+03   -.325E-02 -.986E-02 0.450E+00
   0.400E+01 0.613E+01 -.553E+03   -.403E+01 -.598E+01 0.554E+03   0.201E-01 -.138E+00 -.561E+00
   -.604E+01 0.626E+01 -.544E+03   0.590E+01 -.613E+01 0.544E+03   0.136E+00 -.120E+00 0.155E+00
   0.402E+02 0.402E+02 -.175E+04   -.410E+02 -.410E+02 0.174E+04   0.783E+00 0.783E+00 0.368E+01
   -.223E+02 0.255E+02 -.186E+04   0.224E+02 -.260E+02 0.185E+04   -.151E+00 0.535E+00 0.623E+01
   -.712E+00 -.512E+00 0.551E+03   0.736E+00 0.516E+00 -.551E+03   -.313E-01 -.727E-02 -.101E+00
   0.517E+00 -.576E+00 0.551E+03   -.529E+00 0.582E+00 -.551E+03   0.170E-01 -.818E-02 -.938E-01
   -.135E+00 -.135E+00 0.153E+04   0.136E+00 0.136E+00 -.153E+04   -.206E-02 -.207E-02 0.350E+01
   0.170E+00 -.120E+00 0.153E+04   -.171E+00 0.121E+00 -.153E+04   0.151E-02 -.153E-02 0.351E+01
   -.312E+02 -.117E+02 -.140E+04   0.310E+02 0.115E+02 0.140E+04   0.296E+00 0.121E+00 -.494E+01
   0.103E+02 -.107E+02 -.143E+04   -.102E+02 0.106E+02 0.144E+04   -.104E+00 0.992E-01 -.491E+01
   -.359E+01 -.359E+01 -.416E+03   0.358E+01 0.358E+01 0.415E+03   0.118E-01 0.118E-01 0.216E+00
   0.388E+01 -.349E+01 -.410E+03   -.390E+01 0.349E+01 0.410E+03   0.248E-01 0.483E-02 0.314E+00
   -.576E+00 0.517E+00 0.551E+03   0.582E+00 -.529E+00 -.551E+03   -.818E-02 0.170E-01 -.938E-01
   0.677E+00 0.593E+00 0.551E+03   -.710E+00 -.604E+00 -.551E+03   0.436E-01 0.160E-01 -.110E+00
   -.185E+00 0.135E+00 0.153E+04   0.186E+00 -.137E+00 -.153E+04   -.183E-02 0.254E-02 0.351E+01
   0.120E+00 0.120E+00 0.153E+04   -.121E+00 -.121E+00 -.153E+04   0.165E-02 0.165E-02 0.350E+01
   -.107E+02 0.103E+02 -.143E+04   0.106E+02 -.102E+02 0.144E+04   0.992E-01 -.104E+00 -.491E+01
   0.304E+02 0.120E+02 -.140E+04   -.301E+02 -.119E+02 0.141E+04   -.299E+00 -.120E+00 -.493E+01
   -.408E+01 0.365E+01 -.410E+03   0.410E+01 -.365E+01 0.410E+03   -.263E-01 -.854E-02 0.316E+00
   0.343E+01 0.343E+01 -.416E+03   -.342E+01 -.342E+01 0.416E+03   -.831E-02 -.831E-02 0.216E+00
   0.738E+00 -.675E+00 0.553E+03   -.781E+00 0.711E+00 -.553E+03   0.577E-01 -.483E-01 -.856E-01
   -.512E+00 -.712E+00 0.551E+03   0.516E+00 0.736E+00 -.551E+03   -.727E-02 -.313E-01 -.101E+00
   0.135E+00 -.185E+00 0.153E+04   -.137E+00 0.186E+00 -.153E+04   0.254E-02 -.183E-02 0.351E+01
   -.171E+00 -.171E+00 0.153E+04   0.171E+00 0.171E+00 -.153E+04   0.187E-04 0.212E-04 0.351E+01
   0.389E+02 -.382E+02 -.134E+04   -.385E+02 0.378E+02 0.135E+04   -.381E+00 0.367E+00 -.444E+01
   -.117E+02 -.312E+02 -.140E+04   0.115E+02 0.310E+02 0.140E+04   0.121E+00 0.296E+00 -.494E+01
   0.365E+01 -.408E+01 -.410E+03   -.365E+01 0.410E+01 0.410E+03   -.854E-02 -.263E-01 0.316E+00
   -.396E+01 -.396E+01 -.408E+03   0.399E+01 0.399E+01 0.408E+03   -.286E-01 -.286E-01 -.285E+00
   0.593E+00 0.677E+00 0.551E+03   -.604E+00 -.710E+00 -.551E+03   0.160E-01 0.436E-01 -.110E+00
   -.675E+00 0.738E+00 0.553E+03   0.711E+00 -.781E+00 -.553E+03   -.483E-01 0.577E-01 -.856E-01
   0.186E+00 0.186E+00 0.153E+04   -.187E+00 -.187E+00 -.153E+04   0.106E-02 0.106E-02 0.351E+01
   -.120E+00 0.170E+00 0.153E+04   0.121E+00 -.171E+00 -.153E+04   -.153E-02 0.151E-02 0.351E+01
   0.120E+02 0.304E+02 -.140E+04   -.119E+02 -.301E+02 0.141E+04   -.120E+00 -.299E+00 -.493E+01
   -.382E+02 0.389E+02 -.134E+04   0.378E+02 -.385E+02 0.135E+04   0.367E+00 -.381E+00 -.444E+01
   0.416E+01 0.416E+01 -.409E+03   -.419E+01 -.419E+01 0.410E+03   0.264E-01 0.264E-01 -.331E+00
   -.349E+01 0.388E+01 -.410E+03   0.349E+01 -.390E+01 0.410E+03   0.483E-02 0.248E-01 0.314E+00
 -----------------------------------------------------------------------------------------------
   0.155E+00 0.155E+00 0.542E+02   0.000E+00 0.483E-12 -.432E-11   -.155E+00 -.155E+00 -.542E+02


 POSITION                                       TOTAL-FORCE (eV/Angst)
 -----------------------------------------------------------------------------------
      4.66826      4.66826     16.20250         0.088689      0.088682      0.377487
      6.03881      6.03881     16.19221        -0.089828     -0.089834      0.389690
      4.44340      4.44340     17.34228         0.140905      0.140907     -0.490263
      6.27309      6.27309     17.32822        -0.151115     -0.151114     -0.491785
      0.00000      6.40959      7.50000         0.000595      0.000394      0.513056
      2.13653      0.00000      7.50000        -0.000319      0.000476      0.515557
      0.00000      0.00000      9.63653         0.001243      0.001246      0.016765
      2.13653      6.40959      9.63653         0.002561      0.000643      0.016469
      8.54333      6.41003     11.78464        -0.006458      0.003783      0.007838
      2.13725      0.00054     11.77999        -0.003155      0.003988      0.007533
      0.00522      0.00522     13.90299        -0.004118     -0.004104     -0.194731
      2.12400      6.41480     13.89984        -0.000766     -0.007175     -0.181352
      0.00000      2.13653      7.50000         0.000468     -0.000321      0.515562
      2.13653      4.27306      7.50000        -0.000390     -0.000443      0.513437
      0.00000      4.27306      9.63653         0.000445     -0.000002      0.017272
      2.13653      2.13653      9.63653         0.001392      0.001397      0.017898
      0.00054      2.13725     11.77999         0.003989     -0.003155      0.007535
      2.14118      4.27368     11.78533         0.006048     -0.004630      0.008038
      0.01458      4.26980     13.89982         0.000767      0.006779     -0.181482
      2.13354      2.13354     13.90381         0.003694      0.003693     -0.196024
      4.27306      6.40959      7.50000        -0.000294      0.000228      0.512777
      6.40959      0.00000      7.50000         0.000398      0.000598      0.513036
      4.27306      0.00000      9.63653         0.000000      0.000447      0.017270
      6.40959      6.40959      9.63653         0.002982      0.002982      0.021940
      4.27822      6.40534     11.78235         0.006719     -0.006806     -0.005640
      6.41003      8.54333     11.78464         0.003782     -0.006457      0.007839
      4.26980      0.01458     13.89982         0.006787      0.000769     -0.181485
      6.43109      6.43109     13.95519        -0.005603     -0.005603     -0.123129
      4.27306      2.13653      7.50000        -0.000442     -0.000387      0.513417
      6.40959      4.27306      7.50000         0.000229     -0.000293      0.512771
      4.27306      4.27306      9.63653        -0.001781     -0.001780      0.022772
      6.40959      2.13653      9.63653         0.000642      0.002555      0.016464
      4.27368      2.14118     11.78533        -0.004631      0.006050      0.008041
      6.40534      4.27822     11.78235        -0.006802      0.006716     -0.005659
      4.25500      4.25500     13.95971         0.003998      0.004001     -0.125727
      6.41480      2.12400     13.89984        -0.007169     -0.000769     -0.181354
      0.00000      6.40959      9.63653        -0.007806     -0.002978      0.046110
      2.13653      0.00000      9.63653         0.004927     -0.002769      0.025051
      0.00000      0.00000      7.50000        -0.000611     -0.000610     -0.360847
      2.13653      6.40959      7.50000         0.000418     -0.000445     -0.359591
      0.01195      6.41262     13.93507         0.008943      0.000748     -0.030725
      2.13504      0.00352     13.94122         0.000180     -0.001133     -0.032516
      0.00064      0.00064     11.77325         0.000633      0.000635      0.001657
      2.14062      6.41000     11.77537         0.003439      0.001123      0.004479
      0.00000      2.13653      9.63653        -0.002773      0.004930      0.025050
      2.13653      4.27306      9.63653         0.010665      0.005084      0.046699
      0.00000      4.27306      7.50000        -0.000500      0.000738     -0.359589
      2.13653      2.13653      7.50000         0.000495      0.000491     -0.361055
      0.00352      2.13504     13.94122        -0.001132      0.000182     -0.032520
      2.12735      4.27213     13.93687        -0.010309     -0.000718     -0.031444
      8.54349      4.27362     11.77543        -0.003982     -0.000648      0.004518
      2.13724      2.13724     11.77373        -0.001175     -0.001169      0.001134
      4.27306      6.40959      9.63653         0.014786     -0.012373      0.038540
      6.40959      0.00000      9.63653        -0.002987     -0.007807      0.046101
      4.27306      0.00000      7.50000         0.000745     -0.000502     -0.359585
      6.40959      6.40959      7.50000         0.000067      0.000070     -0.358396
      4.25685      6.42820     13.95034        -0.002529      0.002011      0.012410
      6.41262      0.01195     13.93507         0.000742      0.008940     -0.030720
      4.27362      8.54349     11.77543        -0.000639     -0.003977      0.004508
      6.40772      6.40772     11.78852        -0.001649     -0.001646     -0.001581
      4.27306      2.13653      9.63653         0.005077      0.010659      0.046679
      6.40959      4.27306      9.63653        -0.012363      0.014782      0.038544
      4.27306      4.27306      7.50000         0.000241      0.000241     -0.358664
      6.40959      2.13653      7.50000        -0.000450      0.000416     -0.359594
      4.27213      2.12735     13.93687        -0.000711     -0.010303     -0.031433
      6.42820      4.25685     13.95034         0.002016     -0.002525      0.012405
      4.27621      4.27621     11.78916         0.001650      0.001656     -0.001944
      6.41000      2.14062     11.77537         0.001126      0.003437      0.004484
 -----------------------------------------------------------------------------------
    total drift:                                0.000175      0.000173      0.013042


--------------------------------------------------------------------------------------------------------



  FREE ENERGIE OF THE ION-ELECTRON SYSTEM (eV)
  ---------------------------------------------------
  free  energy   TOTEN  =      -400.75599326 eV

  energy  without entropy=     -400.75599326  energy(sigma->0) =     -400.75599326



--------------------------------------------------------------------------------------------------------


    POTLOK:  cpu time      0.2776: real time      0.2776


--------------------------------------------------------------------------------------------------------


     LOOP+:  cpu time     97.1921: real time     97.6221
    4ORBIT:  cpu time      0.0000: real time      0.0000

 total amount of memory used by VASP MPI-rank0    67780. kBytes
=======================================================================

   base      :      30000. kBytes
   nonl-proj :      18141. kBytes
   fftplans  :       4926. kBytes
   grid      :       8190. kBytes
   one-center:         73. kBytes
   wavefun   :       6450. kBytes

  
  
 General timing and accounting informations for this job:
 ========================================================
  
                  Total CPU time used (sec):      134.815
                            User time (sec):      132.606
                          System time (sec):        2.209
                         Elapsed time (sec):      146.827
  
                   Maximum memory used (kb):      163544.
                   Average memory used (kb):          N/A
  
                          Minor page faults:        34039
                          Major page faults:           53
                 Voluntary context switches:        13073
