 vasp.6.3.0 20Jan22 (build Dec 25 2023 18:06:01) complex                         
 executed on        HPECrayEX_GCC date 2024.01.24  09:42:49
 running  768 mpi-ranks, with    1 threads/rank
 distrk:  each k-point on  768 cores,    1 groups
 distr:  one band on NCORE=   8 cores,   96 groups


--------------------------------------------------------------------------------------------------------


 INCAR:
   SYSTEM = MgO-rocksalt
   ISMEAR = 0
   SIGMA = 0.05
   EDIFF = 1E-8
   ALGO = ALL
   ISTART = 0
   IBRION = 5
   POTIM = 0.01
   NFREE = 2
   ISYM = 0
   DIPOL = 0.5 0.5 0.5
   IDIPOL = 4
   LDIPOL = .TRUE.
   GGA = RE
   AGGAC = 0.0
   LUSE_VDW = .TRUE.
   LASPH = .TRUE.
   ENCUT = 600
   PREC = Accurate
   LASPH = .TRUE.
   LREAL = .FALSE.
   ISPIN = 1
   NELM = 200
   NELMIN = 8
   NCORE = 8
   KPAR = 1
   LWAVE = .FALSE.
   LCHARG = .FALSE.

 POTCAR:    PAW_PBE C 08Apr2002                   
 POTCAR:    PAW_PBE O 08Apr2002                   
 POTCAR:    PAW_PBE H 15Jun2001                   
 -----------------------------------------------------------------------------
|                                                                             |
|               ----> ADVICE to this user running VASP <----                  |
|                                                                             |
|     You have switched on vdW-DFT.                                           |
|     This routine was written and supplied by Jiri Klimes. We recommend      |
|     that you carefully read and cite the following publications:            |
|       J. Klimes, D.R. Bowler, A. Michelides                                 |
|          J. Phys.: Cond Matt. 22 022201 (2010)                              |
|       J. Klimes, D.R. Bowler, A. Michelides                                 |
|          Phys. Rev. B. 83, 195131 (2011)                                    |
|     and references therein.                                                 |
|                                                                             |
 -----------------------------------------------------------------------------

 POTCAR:    PAW_PBE C 08Apr2002                   
   SHA256 =  253f7b50bb8d59471dbedb8285d89021f4a42ed1a2c5d38a03a736e69125dd95 C/POTCAR              
   COPYR  = (c) Copyright 08Apr2002 Georg Kresse                                                    
   COPYR  = This file is part of the software VASP. Any use, copying, and all other rights are regul
   COPYR  = If you do not have a valid VASP license, you may not use, copy or distribute this file. 
   VRHFIN =C: s2p2                                                                                  
   LEXCH  = PE                                                                                      
   EATOM  =   147.1560 eV,   10.8157 Ry                                                             
                                                                                                    
   TITEL  = PAW_PBE C 08Apr2002                                                                     
   LULTRA =        F    use ultrasoft PP ?                                                          
   IUNSCR =        1    unscreen: 0-lin 1-nonlin 2-no                                               
   RPACOR =    1.200    partial core radius                                                         
   POMASS =   12.011; ZVAL   =    4.000    mass and valenz                                          
   RCORE  =    1.500    outmost cutoff radius                                                       
   RWIGS  =    1.630; RWIGS  =    0.863    wigner-seitz radius (au A)                               
   ENMAX  =  400.000; ENMIN  =  300.000 eV                                                          
   ICORE  =        2    local potential                                                             
   LCOR   =        T    correct aug charges                                                         
   LPAW   =        T    paw PP                                                                      
   EAUG   =  644.873                                                                                
   DEXC   =    0.000                                                                                
   RMAX   =    1.529    core radius for proj-oper                                                   
   RAUG   =    1.300    factor for augmentation sphere                                              
   RDEP   =    1.501    radius for radial grids                                                     
   RDEPT  =    1.300    core radius for aug-charge                                                  
                                                                                                    
   Atomic configuration                                                                             
    4 entries                                                                                       
     n  l   j            E        occ.                                                              
     1  0  0.50      -273.3789   2.0000                                                             
     2  0  0.50       -13.7508   2.0000                                                             
     2  1  0.50        -5.2854   2.0000                                                             
     3  2  1.50        -5.4423   0.0000                                                             
   Description                                                                                      
     l       E           TYP  RCUT    TYP  RCUT                                                     
     0    -13.7508458     23  1.200                                                                 
     0     -8.2022199     23  1.200                                                                 
     1     -5.2854383     23  1.500                                                                 
     1     34.0145650     23  1.500                                                                 
     2     -5.4423304      7  1.500                                                                 
  local pseudopotential read in
  partial core-charges read in
  partial kinetic energy density read in
  atomic valenz-charges read in
  non local Contribution for L=           0  read in
    real space projection operators read in
  non local Contribution for L=           0  read in
    real space projection operators read in
  non local Contribution for L=           1  read in
    real space projection operators read in
  non local Contribution for L=           1  read in
    real space projection operators read in
    PAW grid and wavefunctions read in

   number of l-projection  operators is LMAX  =           4
   number of lm-projection operators is LMMAX =           8

 POTCAR:    PAW_PBE O 08Apr2002                   
   SHA256 =  818f92134a0a090dccd8ba1447fa70422a3b330e708bb4f08108d8ae51209ddf O/POTCAR              
   COPYR  = (c) Copyright 08Apr2002 Georg Kresse                                                    
   COPYR  = This file is part of the software VASP. Any use, copying, and all other rights are regul
   COPYR  = If you do not have a valid VASP license, you may not use, copy or distribute this file. 
   VRHFIN =O: s2p4                                                                                  
   LEXCH  = PE                                                                                      
   EATOM  =   432.3788 eV,   31.7789 Ry                                                             
                                                                                                    
   TITEL  = PAW_PBE O 08Apr2002                                                                     
   LULTRA =        F    use ultrasoft PP ?                                                          
   IUNSCR =        1    unscreen: 0-lin 1-nonlin 2-no                                               
   RPACOR =    1.200    partial core radius                                                         
   POMASS =   16.000; ZVAL   =    6.000    mass and valenz                                          
   RCORE  =    1.520    outmost cutoff radius                                                       
   RWIGS  =    1.550; RWIGS  =    0.820    wigner-seitz radius (au A)                               
   ENMAX  =  400.000; ENMIN  =  300.000 eV                                                          
   ICORE  =        2    local potential                                                             
   LCOR   =        T    correct aug charges                                                         
   LPAW   =        T    paw PP                                                                      
   EAUG   =  605.392                                                                                
   DEXC   =    0.000                                                                                
   RMAX   =    1.553    core radius for proj-oper                                                   
   RAUG   =    1.300    factor for augmentation sphere                                              
   RDEP   =    1.550    radius for radial grids                                                     
   RDEPT  =    1.329    core radius for aug-charge                                                  
                                                                                                    
   Atomic configuration                                                                             
    4 entries                                                                                       
     n  l   j            E        occ.                                                              
     1  0  0.50      -514.6923   2.0000                                                             
     2  0  0.50       -23.9615   2.0000                                                             
     2  1  0.50        -9.0305   4.0000                                                             
     3  2  1.50        -9.5241   0.0000                                                             
   Description                                                                                      
     l       E           TYP  RCUT    TYP  RCUT                                                     
     0    -23.9615318     23  1.200                                                                 
     0     -9.5240782     23  1.200                                                                 
     1     -9.0304911     23  1.520                                                                 
     1      8.1634956     23  1.520                                                                 
     2     -9.5240782      7  1.500                                                                 
  local pseudopotential read in
  partial core-charges read in
  partial kinetic energy density read in
  kinetic energy density of atom read in
  atomic valenz-charges read in
  non local Contribution for L=           0  read in
    real space projection operators read in
  non local Contribution for L=           0  read in
    real space projection operators read in
  non local Contribution for L=           1  read in
    real space projection operators read in
  non local Contribution for L=           1  read in
    real space projection operators read in
    PAW grid and wavefunctions read in

   number of l-projection  operators is LMAX  =           4
   number of lm-projection operators is LMMAX =           8

 POTCAR:    PAW_PBE H 15Jun2001                   
   SHA256 =  030f79b5d3ab3cf0e668861823c8fb652ff669f3e15e46930bd03bfd63a607b6 H/POTCAR              
   COPYR  = (c) Copyright 15Jun2001 Georg Kresse                                                    
   COPYR  = This file is part of the software VASP. Any use, copying, and all other rights are regul
   COPYR  = If you do not have a valid VASP license, you may not use, copy or distribute this file. 
   VRHFIN =H: ultrasoft test                                                                        
   LEXCH  = PE                                                                                      
   EATOM  =    12.4884 eV,    0.9179 Ry                                                             
                                                                                                    
   TITEL  = PAW_PBE H 15Jun2001                                                                     
   LULTRA =        F    use ultrasoft PP ?                                                          
   IUNSCR =        0    unscreen: 0-lin 1-nonlin 2-no                                               
   RPACOR =    0.000    partial core radius                                                         
   POMASS =    1.000; ZVAL   =    1.000    mass and valenz                                          
   RCORE  =    1.100    outmost cutoff radius                                                       
   RWIGS  =    0.700; RWIGS  =    0.370    wigner-seitz radius (au A)                               
   ENMAX  =  250.000; ENMIN  =  200.000 eV                                                          
   RCLOC  =    0.701    cutoff for local pot                                                        
   LCOR   =        T    correct aug charges                                                         
   LPAW   =        T    paw PP                                                                      
   EAUG   =  400.000                                                                                
   RMAX   =    1.123    core radius for proj-oper                                                   
   RAUG   =    1.200    factor for augmentation sphere                                              
   RDEP   =    1.112    radius for radial grids                                                     
   RDEPT  =    0.926    core radius for aug-charge                                                  
                                                                                                    
   Atomic configuration                                                                             
    2 entries                                                                                       
     n  l   j            E        occ.                                                              
     1  0  0.50        -6.4927   1.0000                                                             
     2  1  0.50        -3.4015   0.0000                                                             
   Description                                                                                      
     l       E           TYP  RCUT    TYP  RCUT                                                     
     0     -6.4927494     23  1.100                                                                 
     0      6.8029130     23  1.100                                                                 
     1     -4.0817478     23  1.100                                                                 
  local pseudopotential read in
  atomic valenz-charges read in
  non local Contribution for L=           0  read in
    real space projection operators read in
  non local Contribution for L=           0  read in
    real space projection operators read in
  non local Contribution for L=           1  read in
    real space projection operators read in
    PAW grid and wavefunctions read in

   number of l-projection  operators is LMAX  =           3
   number of lm-projection operators is LMMAX =           5

 -----------------------------------------------------------------------------
|                                                                             |
|               ----> ADVICE to this user running VASP <----                  |
|                                                                             |
|     You enforced a specific xc type in the INCAR file but a different       |
|     type was found in the POTCAR file.                                      |
|     I HOPE YOU KNOW WHAT YOU ARE DOING!                                     |
|                                                                             |
 -----------------------------------------------------------------------------

  PAW_PBE C 08Apr2002                   :
 energy of atom  1       EATOM= -147.1560
 kinetic energy error for atom=    0.0057 (will be added to EATOM!!)
  PAW_PBE O 08Apr2002                   :
 energy of atom  2       EATOM= -432.3788
 kinetic energy error for atom=    0.0168 (will be added to EATOM!!)
  PAW_PBE H 15Jun2001                   :
 energy of atom  3       EATOM=  -12.4884
 kinetic energy error for atom=    0.0004 (will be added to EATOM!!)


 POSCAR:  C  O  H
  positions in direct lattice
  No initial velocities read in
 exchange correlation table for  LEXCH =       40
   RHO(1)=    0.500       N(1)  =     2000
   RHO(2)=  100.500       N(2)  =     4000



--------------------------------------------------------------------------------------------------------


 ion  position               nearest neighbor table
   1  0.493  0.505  0.498-   3 1.09   5 1.10   6 1.10   2 1.45
   2  0.513  0.444  0.442-   4 0.97   1 1.45
   3  0.431  0.511  0.495-   1 1.09
   4  0.569  0.438  0.443-   2 0.97
   5  0.510  0.490  0.558-   1 1.10
   6  0.519  0.562  0.482-   1 1.10


IMPORTANT INFORMATION: All symmetrisations will be switched off!
NOSYMM: (Re-)initialisation of all symmetry stuff for point group C_1.


----------------------------------------------------------------------------------------

                                     Primitive cell                                     

  volume of cell :    5054.2795

  direct lattice vectors                    reciprocal lattice vectors
    17.452980646  0.000000000  0.000000000     0.057296803  0.000000000  0.000000000
     0.000000000 17.063102161  0.000000000     0.000000000  0.058605990  0.000000000
     0.000000000  0.000000000 16.971946747     0.000000000  0.000000000  0.058920760

  length of vectors
    17.452980646 17.063102161 16.971946747     0.057296803  0.058605990  0.058920760

  position of ions in fractional coordinates (direct lattice)
     0.493163204  0.505166692  0.497864028
     0.513474003  0.444136705  0.442378303
     0.430825908  0.510784106  0.495025473
     0.568771153  0.437674340  0.443448746
     0.509745127  0.489653141  0.558402723
     0.519221897  0.561691644  0.481996375

  ion indices of the primitive-cell ions
   primitive index   ion index
                 1           1
                 2           2
                 3           3
                 4           4
                 5           5
                 6           6

----------------------------------------------------------------------------------------



 KPOINTS: pymatgen v2020.8.13 with grid density = 

Automatic generation of k-mesh.
 Grid dimensions read from file:
 generate k-points for:    2    2    1

 Generating k-lattice:

  Cartesian coordinates                     Fractional coordinates (reciprocal lattice)
     0.028648402  0.000000000  0.000000000     0.500000000  0.000000000  0.000000000
     0.000000000  0.029302995  0.000000000     0.000000000  0.500000000  0.000000000
     0.000000000  0.000000000  0.058920760     0.000000000  0.000000000  1.000000000

  Length of vectors
     0.028648402  0.029302995  0.058920760

  Shift w.r.t. Gamma in fractional coordinates (k-lattice)
     0.000000000  0.000000000  0.000000000

 
 Subroutine IBZKPT returns following result:
 ===========================================
 
 Found      4 irreducible k-points:
 
 Following reciprocal coordinates:
            Coordinates               Weight
  0.000000  0.000000  0.000000      1.000000
  0.500000  0.000000  0.000000      1.000000
  0.000000  0.500000  0.000000      1.000000
  0.500000  0.500000  0.000000      1.000000
 
 Following cartesian coordinates:
            Coordinates               Weight
  0.000000  0.000000  0.000000      1.000000
  0.028648  0.000000  0.000000      1.000000
  0.000000  0.029303  0.000000      1.000000
  0.028648  0.029303  0.000000      1.000000
 
 
 Subroutine IBZKPT_HF returns following result:
 ==============================================
 
 Found      4 k-points in 1st BZ
 the following      4 k-points will be used (e.g. in the exchange kernel)
 Following reciprocal coordinates:   # in IRBZ
  0.000000  0.000000  0.000000    0.25000000   1 t-inv F
  0.500000  0.000000  0.000000    0.25000000   2 t-inv F
  0.000000  0.500000  0.000000    0.25000000   3 t-inv F
  0.500000  0.500000  0.000000    0.25000000   4 t-inv F


--------------------------------------------------------------------------------------------------------




 Dimension of arrays:
   k-points           NKPTS =      4   k-points in BZ     NKDIM =      4   number of bands    NBANDS=     96
   number of dos      NEDOS =    301   number of ions     NIONS =      6
   non local maximal  LDIM  =      4   non local SUM 2l+1 LMDIM =      8
   total plane-waves  NPLWV = ******
   max r-space proj   IRMAX =      1   max aug-charges    IRDMAX=   7242
   dimension x,y,z NGX =   140 NGY =  140 NGZ =  140
   dimension x,y,z NGXF=   280 NGYF=  280 NGZF=  280
   support grid    NGXF=   280 NGYF=  280 NGZF=  280
   ions per type =               1   1   4
   NGX,Y,Z   is equivalent  to a cutoff of  13.34, 13.64, 13.71 a.u.
   NGXF,Y,Z  is equivalent  to a cutoff of  26.67, 27.28, 27.43 a.u.

 SYSTEM =  MgO-rocksalt                            
 POSCAR =   C  O  H                                

--------------------------------------------------------------------------------------------------------


  energy-cutoff  :      600.00
  volume of cell :     5054.28
      direct lattice vectors                 reciprocal lattice vectors
    17.452980646  0.000000000  0.000000000     0.057296803  0.000000000  0.000000000
     0.000000000 17.063102161  0.000000000     0.000000000  0.058605990  0.000000000
     0.000000000  0.000000000 16.971946747     0.000000000  0.000000000  0.058920760

  length of vectors
    17.452980646 17.063102161 16.971946747     0.057296803  0.058605990  0.058920760



 k-points in units of 2pi/SCALE and weight: pymatgen v2020.8.13 with grid density = 
   0.00000000  0.00000000  0.00000000       0.250
   0.02864840  0.00000000  0.00000000       0.250
   0.00000000  0.02930300  0.00000000       0.250
   0.02864840  0.02930300  0.00000000       0.250

 k-points in reciprocal lattice and weights: pymatgen v2020.8.13 with grid density = 
   0.00000000  0.00000000  0.00000000       0.250
   0.50000000  0.00000000  0.00000000       0.250
   0.00000000  0.50000000  0.00000000       0.250
   0.50000000  0.50000000  0.00000000       0.250

 position of ions in fractional coordinates (direct lattice) 
   0.49316320  0.50516669  0.49786403
   0.51347400  0.44413670  0.44237830
   0.43082591  0.51078411  0.49502547
   0.56877115  0.43767434  0.44344875
   0.50974513  0.48965314  0.55840272
   0.51922190  0.56169164  0.48199638

 position of ions in cartesian coordinates  (Angst):
   8.60716785  8.61971087  8.44972176
   8.96165184  7.57834996  7.50802100
   7.51919624  8.71556139  8.40154597
   9.92675193  7.46808198  7.52618851
   8.89657183  8.35500156  9.47718127
   9.06196972  9.58420191  8.18041681



--------------------------------------------------------------------------------------------------------

--------------------------------------- Iteration      FINAL  ---------------------------------------


--------------------OUTCAR has been truncated-------------------------


--------------------OUTCAR has been truncated-------------------------


--------------------OUTCAR has been truncated-------------------------


--------------------OUTCAR has been truncated-------------------------


--------------------OUTCAR has been truncated-------------------------


--------------------OUTCAR has been truncated-------------------------


--------------------OUTCAR has been truncated-------------------------


--------------------OUTCAR has been truncated-------------------------


--------------------OUTCAR has been truncated-------------------------


--------------------OUTCAR has been truncated-------------------------


  FORCE on cell =-STRESS in cart. coord.  units (eV):
  Direction    XX          YY          ZZ          XY          YZ          ZX
  --------------------------------------------------------------------------------------
  Alpha Z     0.14803     0.14803     0.14803
  Ewald     135.75600   170.00847   141.38648   -69.31074   129.71790   -50.61149
  Hartree   290.98102   352.18016   335.93881   -36.04889    77.07647   -30.13887
  E(xc)     -58.73298   -59.29806   -59.30819    -0.07701     0.05798     0.00678
  Local    -555.83995  -669.20448  -626.51638    98.56096  -197.16100    78.01446
  n-local   -40.86189   -39.50331   -39.90929    -0.87682     1.75179    -0.75868
  augment     6.21600     7.26720     7.44924     0.49992    -0.85448     0.22181
  Kinetic   222.20677   238.27022   240.68309     7.23185   -10.52395     3.29682
  Fock        0.00000     0.00000     0.00000     0.00000     0.00000     0.00000
  -------------------------------------------------------------------------------------
  Total      -0.12700    -0.13177    -0.12821    -0.02072     0.06472     0.03082
  in kB      -0.04026    -0.04177    -0.04064    -0.00657     0.02052     0.00977
  external pressure =       -0.04 kB  Pullay stress =        0.00 kB


 VOLUME and BASIS-vectors are now :
 -----------------------------------------------------------------------------
  energy-cutoff  :      600.00
  volume of cell :     5054.28
      direct lattice vectors                 reciprocal lattice vectors
    17.452980646  0.000000000  0.000000000     0.057296803  0.000000000  0.000000000
     0.000000000 17.063102161  0.000000000     0.000000000  0.058605990  0.000000000
     0.000000000  0.000000000 16.971946747     0.000000000  0.000000000  0.058920760

  length of vectors
    17.452980646 17.063102161 16.971946747     0.057296803  0.058605990  0.058920760


 FORCES acting on ions:
    Electron-Ion                     Ewald-Force                    Non-Local-Force
 -----------------------------------------------------------------------------------------------
   0.326E+02 -.886E+02 -.799E+02   -.341E+02 0.925E+02 0.834E+02   0.159E+01 -.394E+01 -.359E+01
   0.429E+01 0.122E+03 0.116E+03   -.364E+02 -.144E+03 -.141E+03   0.321E+02 0.222E+02 0.252E+02
   0.654E+02 -.146E+02 -.553E+01   -.713E+02 0.152E+02 0.528E+01   0.592E+01 -.527E+00 0.259E+00
   -.958E+02 0.216E+02 0.831E+01   0.104E+03 -.228E+02 -.838E+01   -.832E+01 0.120E+01 0.767E-01
   -.124E+02 0.606E+01 -.648E+02   0.139E+02 -.742E+01 0.702E+02   -.146E+01 0.139E+01 -.540E+01
   -.215E+02 -.621E+02 0.770E+01   0.238E+02 0.670E+02 -.909E+01   -.231E+01 -.502E+01 0.146E+01
 -----------------------------------------------------------------------------------------------
   -.275E+02 -.153E+02 -.180E+02   0.213E-13 -.142E-13 0.213E-13   0.275E+02 0.153E+02 0.180E+02


 POSITION                                       TOTAL-FORCE (eV/Angst)
 -----------------------------------------------------------------------------------
      8.60717      8.61971      8.44972         0.030531      0.061635     -0.066590
      8.96165      7.57835      7.50802        -0.008254     -0.029747     -0.000923
      7.51920      8.71556      8.40155         0.001441     -0.002730      0.002226
      9.92675      7.46808      7.52619        -0.002307      0.001752      0.001955
      8.89657      8.35500      9.47718         0.011176      0.024980     -0.006836
      9.06197      9.58420      8.17042        -0.032586     -0.055890      0.070167
 -----------------------------------------------------------------------------------
    total drift:                               -0.000497      0.000548     -0.000383


--------------------------------------------------------------------------------------------------------



  FREE ENERGIE OF THE ION-ELECTRON SYSTEM (eV)
  ---------------------------------------------------
  free  energy   TOTEN  =       -26.61234150 eV

  energy  without entropy=      -26.61234150  energy(sigma->0) =      -26.61234150

 d Force =-0.2845801E-04[-0.140E-02, 0.135E-02]  d Energy =-0.2171887E-04-0.674E-05
 d Force = 0.1731237E+00[ 0.182E+00, 0.164E+00]  d Ewald  = 0.1731701E+00-0.464E-04


--------------------------------------------------------------------------------------------------------


    POTLOK:  cpu time      1.0148: real time      1.0154


--------------------------------------------------------------------------------------------------------


 Finite differences progress:
  Degree of freedom:  18/ 18
  Displacement:        2/  2
  Total:              36/ 36

 SECOND DERIVATIVES (NOT SYMMETRIZED)
 ------------------------------------
               1X          1Y          1Z          2X          2Y          2Z          3X          3Y          3Z          4X          4Y          4Z          5X          5Y          5Z          6X          6Y          6Z 
  1X   -54.715235   -2.150595   -2.500203    8.761599   -0.308820    0.150526   28.867344   -0.756051    2.362663    0.959245   -3.205566   -2.934109    6.814803   -1.926432    5.862517    9.312244    8.347463   -2.941394
  1Y    -2.160220  -44.707735    5.831291   -3.502498   12.072990    6.009311   -1.578002    4.555731   -0.410653    0.438488    0.742394    0.621666   -1.701440    6.607309   -6.148968    8.503672   20.729311   -5.902647
  1Z    -2.503994    5.837642  -45.963547   -2.869566    6.400227   10.975270    1.574696   -0.302725    4.695525    0.514135    0.160496    0.359079    5.982125   -6.357766   23.282340   -2.697394   -5.737874    6.651333
  2X     8.767306   -3.496594   -2.873462  -54.917946    8.213338    1.282521    0.805311   -2.920492   -2.641404   46.564784   -2.452169    3.572928   -0.500155    0.421842   -0.094091   -0.719301    0.234075    0.753508
  2Y    -0.307746   12.081867    6.401958    8.201552  -17.991561  -12.311449   -0.585660    0.689052    0.728280   -6.152731    2.513850    1.389905   -0.047767   -0.071705    0.986116   -1.107647    2.778497    2.805190
  2Z     0.153251    5.995777   10.974361    1.282759  -12.313285  -15.344701   -0.431604    0.431356    0.183286    0.055251    1.861474    1.980889   -1.134694    3.178955    2.419960    0.075037    0.845724   -0.213795
  3X    28.866156   -1.587241    1.575566    0.802696   -0.579333   -0.433649  -31.339491    2.184912   -1.367406   -0.200040   -0.076767   -0.090070    0.696651    0.047412    0.134448    1.174027    0.011016    0.181111
  3Y    -0.750334    4.561158   -0.303179   -2.921060    0.682220    0.431707    2.184969   -5.236004   -0.490210   -0.213387    0.370039    0.358818   -0.918943   -0.043166   -0.178844    2.618754   -0.334247    0.181707
  3Z     2.363865   -0.408833    4.697883   -2.643660    0.728834    0.188624   -1.366506   -0.491245   -5.069406   -0.223173    0.376946    0.291224    2.813639   -0.163762    0.038679   -0.944165   -0.041941   -0.147006
  4X     0.956423    0.433011    0.513560   46.561310   -6.163584    0.051783   -0.197531   -0.211971   -0.221103  -47.134121    5.728259   -0.534830   -0.077865    0.135626    0.065507   -0.108216    0.078659    0.125083
  4Y    -3.205635    0.740798    0.161290   -2.446958    2.511759    1.862923   -0.074815    0.370216    0.376843    5.719440   -3.476736   -2.346436    0.082025   -0.118692    0.023821   -0.074057   -0.027346   -0.078441
  4Z    -2.933602    0.623196    0.360855    3.569182    1.389270    1.978269   -0.092611    0.359481    0.292257   -0.536469   -2.343136   -2.517216   -0.096410   -0.046911   -0.026079    0.089911    0.018099   -0.088086
  5X     6.817149   -1.700890    5.974763   -0.498471   -0.042404   -1.135497    0.696350   -0.920330    2.814647   -0.081409    0.081100   -0.097958   -6.450913    2.086732   -6.303788   -0.482707    0.495793   -1.252167
  5Y    -1.926952    6.612322   -6.353147    0.422965   -0.078318    3.177812    0.048087   -0.042909   -0.164060    0.135336   -0.119068   -0.045861    2.087045   -6.961837    5.792121   -0.766481    0.589810   -2.406864
  5Z     5.866716   -6.148723   23.276896   -0.095294    0.985896    2.423834    0.132847   -0.179029    0.039660    0.063898    0.024692   -0.024475   -6.308220    5.795946  -26.384639    0.340053   -0.478782    0.668725
  6X     9.313498    8.493972   -2.695188   -0.719532   -1.103839    0.075496    1.172858    2.620679   -0.944499   -0.112251   -0.074492    0.089093   -0.484233   -0.765714    0.337037   -9.170339   -9.170607    3.138061
  6Y     8.350058   20.728498   -5.740646    0.238065    2.772928    0.845269    0.011301   -0.332521   -0.042971    0.080137   -0.026662    0.018356    0.497212    0.589906   -0.478564   -9.176772  -23.732149    5.398556
  6Z    -2.940931   -5.895503    6.650793    0.750047    2.805681   -0.207814    0.181022    0.182221   -0.147198    0.125352   -0.078660   -0.088908   -1.253008   -2.406594    0.667550    3.137517    5.392855   -6.874422


 Eigenvectors and eigenvalues of the dynamical matrix
 ----------------------------------------------------


   1 f  =  111.423719 THz   700.095873 2PiTHz 3716.695195 cm-1   460.811267 meV
             X         Y         Z           dx          dy          dz
      8.607168  8.619711  8.449722    -0.007743   -0.003789   -0.004567  
      8.961652  7.578350  7.508021    -0.238646    0.033988    0.001879  
      7.519196  8.715561  8.401546     0.015463    0.000721    0.002661  
      9.926752  7.468082  7.526189     0.962866   -0.119724    0.008905  
      8.896572  8.355002  9.477181     0.001420   -0.002976   -0.000504  
      9.061970  9.584202  8.180417     0.001699   -0.000910   -0.002740  

   2 f  =   91.335702 THz   573.879141 2PiTHz 3046.631078 cm-1   377.733942 meV
             X         Y         Z           dx          dy          dz
      8.607168  8.619711  8.449722    -0.291978   -0.007083   -0.044489  
      8.961652  7.578350  7.508021     0.006130    0.001438    0.002173  
      7.519196  8.715561  8.401546     0.921918   -0.071841    0.049635  
      9.926752  7.468082  7.526189    -0.016650   -0.003696   -0.005643  
      8.896572  8.355002  9.477181     0.027970   -0.051689    0.155554  
      9.061970  9.584202  8.180417     0.054084    0.145950   -0.054011  

   3 f  =   89.045461 THz   559.489131 2PiTHz 2970.236859 cm-1   368.262270 meV
             X         Y         Z           dx          dy          dz
      8.607168  8.619711  8.449722     0.028397    0.211029   -0.224210  
      8.961652  7.578350  7.508021    -0.000109   -0.001051    0.001030  
      7.519196  8.715561  8.401546    -0.000325    0.019806   -0.020844  
      9.926752  7.468082  7.526189    -0.000335   -0.002606    0.002704  
      8.896572  8.355002  9.477181     0.198329   -0.169529    0.624446  
      9.061970  9.584202  8.180417    -0.295674   -0.574766    0.166614  

   4 f  =   87.780803 THz   551.543050 2PiTHz 2928.052405 cm-1   363.032067 meV
             X         Y         Z           dx          dy          dz
      8.607168  8.619711  8.449722     0.061531    0.110486    0.109521  
      8.961652  7.578350  7.508021    -0.004351    0.007964    0.007003  
      7.519196  8.715561  8.401546     0.263228   -0.017201    0.017009  
      9.926752  7.468082  7.526189    -0.002829    0.003171    0.002699  
      8.896572  8.355002  9.477181    -0.174740    0.184420   -0.616402  
      9.061970  9.584202  8.180417    -0.281525   -0.585205    0.189111  

   5 f  =   44.547069 THz   279.897488 2PiTHz 1485.930268 cm-1   184.231790 meV
             X         Y         Z           dx          dy          dz
      8.607168  8.619711  8.449722    -0.143436   -0.066642   -0.076737  
      8.961652  7.578350  7.508021    -0.056722   -0.024612   -0.029773  
      7.519196  8.715561  8.401546    -0.025194   -0.231911   -0.239622  
      9.926752  7.468082  7.526189    -0.003734    0.069438    0.065572  
      8.896572  8.355002  9.477181     0.418368    0.501193    0.006475  
      9.061970  9.584202  8.180417     0.334321   -0.009156    0.552532  

   6 f  =   44.217249 THz   277.825170 2PiTHz 1474.928671 cm-1   182.867767 meV
             X         Y         Z           dx          dy          dz
      8.607168  8.619711  8.449722     0.018370    0.142153   -0.157036  
      8.961652  7.578350  7.508021     0.002001    0.019047   -0.022063  
      7.519196  8.715561  8.401546    -0.066337   -0.491552    0.519169  
      9.926752  7.468082  7.526189     0.000745    0.006525   -0.004928  
      8.896572  8.355002  9.477181    -0.436937    0.102424    0.130046  
      9.061970  9.584202  8.180417     0.430439   -0.185973   -0.011566  

   7 f  =   43.474082 THz   273.155711 2PiTHz 1450.139270 cm-1   179.794274 meV
             X         Y         Z           dx          dy          dz
      8.607168  8.619711  8.449722    -0.115277    0.232533    0.202866  
      8.961652  7.578350  7.508021    -0.030426    0.061056    0.053327  
      7.519196  8.715561  8.401546    -0.040387   -0.430596   -0.403187  
      9.926752  7.468082  7.526189    -0.008558    0.014590    0.012723  
      8.896572  8.355002  9.477181     0.268993   -0.401970   -0.171093  
      9.061970  9.584202  8.180417     0.301180   -0.232060   -0.355196  

   8 f  =   40.228333 THz   252.762073 2PiTHz 1341.872761 cm-1   166.370944 meV
             X         Y         Z           dx          dy          dz
      8.607168  8.619711  8.449722    -0.376523    0.011239   -0.037361  
      8.961652  7.578350  7.508021     0.249704    0.096326    0.122863  
      7.519196  8.715561  8.401546    -0.098523    0.262695    0.236684  
      9.926752  7.468082  7.526189    -0.005481   -0.522548   -0.495156  
      8.896572  8.355002  9.477181     0.213022   -0.024984   -0.112129  
      9.061970  9.584202  8.180417     0.197326   -0.139256    0.008752  

   9 f  =   34.182089 THz   214.772400 2PiTHz 1140.191761 cm-1   141.365698 meV
             X         Y         Z           dx          dy          dz
      8.607168  8.619711  8.449722     0.037374    0.279205   -0.295340  
      8.961652  7.578350  7.508021    -0.019674   -0.145231    0.153445  
      7.519196  8.715561  8.401546    -0.021122   -0.155831    0.166011  
      9.926752  7.468082  7.526189    -0.000949   -0.006615    0.009116  
      8.896572  8.355002  9.477181     0.090333   -0.536058   -0.270988  
      9.061970  9.584202  8.180417    -0.119084    0.311546    0.505753  

  10 f  =   31.499600 THz   197.917821 2PiTHz 1050.713542 cm-1   130.271818 meV
             X         Y         Z           dx          dy          dz
      8.607168  8.619711  8.449722     0.175980    0.180345    0.192126  
      8.961652  7.578350  7.508021    -0.010195   -0.049424   -0.047635  
      7.519196  8.715561  8.401546     0.028051   -0.372102   -0.348848  
      9.926752  7.468082  7.526189    -0.045006   -0.434457   -0.416747  
      8.896572  8.355002  9.477181    -0.279504    0.161269    0.172919  
      9.061970  9.584202  8.180417    -0.272231    0.217781    0.117519  

  11 f  =   28.993269 THz   182.170084 2PiTHz  967.111366 cm-1   119.906473 meV
             X         Y         Z           dx          dy          dz
      8.607168  8.619711  8.449722    -0.211145    0.472862    0.420941  
      8.961652  7.578350  7.508021     0.160354   -0.495721   -0.448693  
      7.519196  8.715561  8.401546    -0.050966    0.159864    0.145061  
      9.926752  7.468082  7.526189     0.070454    0.084037    0.087937  
      8.896572  8.355002  9.477181     0.035154    0.046307    0.055503  
      9.061970  9.584202  8.180417     0.036185    0.053322    0.047764  

  12 f  =    8.703906 THz    54.688254 2PiTHz  290.331049 cm-1    35.996446 meV
             X         Y         Z           dx          dy          dz
      8.607168  8.619711  8.449722    -0.000777    0.010433   -0.014293  
      8.961652  7.578350  7.508021    -0.019118   -0.172042    0.181204  
      7.519196  8.715561  8.401546     0.025217    0.191349   -0.204685  
      9.926752  7.468082  7.526189     0.079993    0.589339   -0.621393  
      8.896572  8.355002  9.477181    -0.228482   -0.073081    0.043643  
      9.061970  9.584202  8.180417     0.207226   -0.067837    0.104399  

  13 f  =    0.541871 THz     3.404678 2PiTHz   18.074883 cm-1     2.240999 meV
             X         Y         Z           dx          dy          dz
      8.607168  8.619711  8.449722    -0.413038    0.022801    0.257025  
      8.961652  7.578350  7.508021     0.183937    0.554763   -0.039742  
      7.519196  8.715561  8.401546    -0.100840    0.086796   -0.180333  
      9.926752  7.468082  7.526189     0.034194    0.072179    0.211705  
      8.896572  8.355002  9.477181    -0.392009   -0.182479    0.102272  
      9.061970  9.584202  8.180417     0.011747    0.020952    0.346724  

  14 f  =    0.387032 THz     2.431794 2PiTHz   12.910001 cm-1     1.600635 meV
             X         Y         Z           dx          dy          dz
      8.607168  8.619711  8.449722    -0.072343   -0.158060   -0.293324  
      8.961652  7.578350  7.508021     0.746255   -0.339829    0.148203  
      7.519196  8.715561  8.401546    -0.019780   -0.118028   -0.253897  
      9.926752  7.468082  7.526189     0.190308   -0.026111    0.192853  
      8.896572  8.355002  9.477181    -0.158149    0.040410   -0.023814  
      9.061970  9.584202  8.180417    -0.041837   -0.034368   -0.079879  

  15 f  =    0.181175 THz     1.138359 2PiTHz    6.043361 cm-1     0.749281 meV
             X         Y         Z           dx          dy          dz
      8.607168  8.619711  8.449722     0.418892    0.175051    0.351974  
      8.961652  7.578350  7.508021     0.462602    0.342345    0.243323  
      7.519196  8.715561  8.401546     0.101196   -0.091828    0.262931  
      9.926752  7.468082  7.526189     0.132630    0.210748   -0.081552  
      8.896572  8.355002  9.477181     0.308875    0.100278    0.061443  
      9.061970  9.584202  8.180417    -0.045087    0.106621    0.022271  

  16 f/i=    0.007145 THz     0.044893 2PiTHz    0.238332 cm-1     0.029549 meV
             X         Y         Z           dx          dy          dz
      8.607168  8.619711  8.449722     0.128378    0.324463   -0.503883  
      8.961652  7.578350  7.508021     0.153513    0.374435   -0.579676  
      7.519196  8.715561  8.401546     0.037257    0.094603   -0.147912  
      9.926752  7.468082  7.526189     0.038305    0.093206   -0.143110  
      8.896572  8.355002  9.477181     0.034319    0.092997   -0.144788  
      9.061970  9.584202  8.180417     0.038515    0.093336   -0.143931  

  17 f/i=    0.473298 THz     2.973821 2PiTHz   15.787533 cm-1     1.957404 meV
             X         Y         Z           dx          dy          dz
      8.607168  8.619711  8.449722    -0.429944   -0.277477    0.002410  
      8.961652  7.578350  7.508021     0.026460    0.045853   -0.205465  
      7.519196  8.715561  8.401546    -0.164009   -0.421362    0.223631  
      9.926752  7.468082  7.526189     0.044254    0.309282   -0.244848  
      8.896572  8.355002  9.477181     0.171151    0.031433   -0.053700  
      9.061970  9.584202  8.180417    -0.481602    0.056788   -0.113050  

  18 f/i=    0.538532 THz     3.383696 2PiTHz   17.963490 cm-1     2.227188 meV
             X         Y         Z           dx          dy          dz
      8.607168  8.619711  8.449722    -0.323327    0.540135   -0.176668  
      8.961652  7.578350  7.508021    -0.144657    0.056394    0.509574  
      7.519196  8.715561  8.401546    -0.103012    0.054917   -0.032755  
      9.926752  7.468082  7.526189    -0.026333    0.098355    0.116158  
      8.896572  8.355002  9.477181    -0.037252    0.367701   -0.012183  
      9.061970  9.584202  8.180417    -0.183874    0.145269   -0.241904  

 Finite differences POTIM=   1.0000000000000000E-002
     LOOP+:  cpu time     41.2236: real time     41.3264
    4ORBIT:  cpu time      0.0000: real time      0.0000

 total amount of memory used by VASP MPI-rank0    84443. kBytes
=======================================================================

   base      :      30000. kBytes
   nonl-proj :      18247. kBytes
   fftplans  :      12926. kBytes
   grid      :      19196. kBytes
   one-center:          3. kBytes
   wavefun   :       4071. kBytes

  
  
 General timing and accounting informations for this job:
 ========================================================
  
                  Total CPU time used (sec):     1844.997
                            User time (sec):     1839.940
                          System time (sec):        5.057
                         Elapsed time (sec):     1860.854
  
                   Maximum memory used (kb):      403856.
                   Average memory used (kb):          N/A
  
                          Minor page faults:        33747
                          Major page faults:         1203
                 Voluntary context switches:        23488
