 vasp.6.3.0 20Jan22 (build Aug 21 2024 11:13:42) complex                         
 executed on        HPECrayEX_GCC date 2024.11.27  05:26:59
 running  512 mpi-ranks, with    1 threads/rank
 distrk:  each k-point on  512 cores,    1 groups
 distr:  one band on NCORE=  16 cores,   32 groups


--------------------------------------------------------------------------------------------------------


 INCAR:
   SYSTEM = TiO2
   ISMEAR = 0
   SIGMA = 0.05
   EDIFF = 1E-4
   ALGO = ALL
   ISTART = 0
   IBRION = -1
   NSW = 0
   ISYM = 0
   ISIF = 2
   EDIFFG = -0.01
   DIPOL = 0.5 0.5 0.5
   IDIPOL = 3
   LDIPOL = .TRUE.
   LHFCALC = .TRUE.
   HFSCREEN = 0.2
   GGA = PE
   IVDW = 13
   VDW_S8 = 1.19528249
   VDW_A1 = 0.38663183
   VDW_A2 = 5.19133469
   ENCUT = 520
   PREC = Normal
   PRECFOCK = Fast
   LASPH = .TRUE.
   LREAL = .FALSE.
   ISPIN = 1
   NKREDX = 3
   NKREDY = 3
   NELM = 200
   NELMIN = 8
   NCORE = 16
   KPAR = 1
   LWAVE = .FALSE.
   LCHARG = .FALSE.

 POTCAR:    PAW_PBE Ti 08Apr2002                  
 POTCAR:    PAW_PBE O 08Apr2002                   
 POTCAR:    PAW_PBE Ti 08Apr2002                  
   SHA256 =  f8e8f1d080d9e9b45e792f1068744b07aba8441d1e7ce11486a5d4c0f5a1479e Ti/POTCAR             
   COPYR  = (c) Copyright 08Apr2002 Georg Kresse                                                    
   COPYR  = This file is part of the software VASP. Any use, copying, and all other rights are regul
   COPYR  = If you do not have a valid VASP license, you may not use, copy or distribute this file. 
   VRHFIN =Ti: d3 s1                                                                                
   LEXCH  = PE                                                                                      
   EATOM  =    94.7928 eV,    6.9671 Ry                                                             
                                                                                                    
   TITEL  = PAW_PBE Ti 08Apr2002                                                                    
   LULTRA =        F    use ultrasoft PP ?                                                          
   IUNSCR =        1    unscreen: 0-lin 1-nonlin 2-no                                               
   RPACOR =    2.200    partial core radius                                                         
   POMASS =   47.880; ZVAL   =    4.000    mass and valenz                                          
   RCORE  =    2.800    outmost cutoff radius                                                       
   RWIGS  =    2.500; RWIGS  =    1.323    wigner-seitz radius (au A)                               
   ENMAX  =  178.330; ENMIN  =  133.747 eV                                                          
   RCLOC  =    2.215    cutoff for local pot                                                        
   LCOR   =        T    correct aug charges                                                         
   LPAW   =        T    paw PP                                                                      
   EAUG   =  328.883                                                                                
   DEXC   =    0.000                                                                                
   RMAX   =    2.868    core radius for proj-oper                                                   
   RAUG   =    1.300    factor for augmentation sphere                                              
   RDEP   =    2.885    radius for radial grids                                                     
   RDEPT  =    2.320    core radius for aug-charge                                                  
                                                                                                    
   Atomic configuration                                                                             
    9 entries                                                                                       
     n  l   j            E        occ.                                                              
     1  0  0.50     -4865.3608   2.0000                                                             
     2  0  0.50      -533.1367   2.0000                                                             
     2  1  1.50      -440.5031   6.0000                                                             
     3  0  0.50       -59.3186   2.0000                                                             
     3  1  1.50       -35.7012   6.0000                                                             
     3  2  2.50        -1.9157   3.0000                                                             
     4  0  0.50        -3.7291   1.0000                                                             
     4  1  1.50        -4.0817   0.0000                                                             
     4  3  2.50        -1.3606   0.0000                                                             
   Description                                                                                      
     l       E           TYP  RCUT    TYP  RCUT                                                     
     2     -1.9156924     23  2.800                                                                 
     2     -0.4062961     23  2.800                                                                 
     0     -3.7290832     23  2.800                                                                 
     0     20.4087390     23  2.800                                                                 
     1     -5.4423304     23  2.800                                                                 
  local pseudopotential read in
  partial core-charges read in
  partial kinetic energy density read in
  atomic valenz-charges read in
  non local Contribution for L=           2  read in
    real space projection operators read in
  non local Contribution for L=           2  read in
    real space projection operators read in
  non local Contribution for L=           0  read in
    real space projection operators read in
  non local Contribution for L=           0  read in
    real space projection operators read in
  non local Contribution for L=           1  read in
    real space projection operators read in
    PAW grid and wavefunctions read in

   number of l-projection  operators is LMAX  =           5
   number of lm-projection operators is LMMAX =          15

 POTCAR:    PAW_PBE O 08Apr2002                   
   SHA256 =  818f92134a0a090dccd8ba1447fa70422a3b330e708bb4f08108d8ae51209ddf O/POTCAR              
   COPYR  = (c) Copyright 08Apr2002 Georg Kresse                                                    
   COPYR  = This file is part of the software VASP. Any use, copying, and all other rights are regul
   COPYR  = If you do not have a valid VASP license, you may not use, copy or distribute this file. 
   VRHFIN =O: s2p4                                                                                  
   LEXCH  = PE                                                                                      
   EATOM  =   432.3788 eV,   31.7789 Ry                                                             
                                                                                                    
   TITEL  = PAW_PBE O 08Apr2002                                                                     
   LULTRA =        F    use ultrasoft PP ?                                                          
   IUNSCR =        1    unscreen: 0-lin 1-nonlin 2-no                                               
   RPACOR =    1.200    partial core radius                                                         
   POMASS =   16.000; ZVAL   =    6.000    mass and valenz                                          
   RCORE  =    1.520    outmost cutoff radius                                                       
   RWIGS  =    1.550; RWIGS  =    0.820    wigner-seitz radius (au A)                               
   ENMAX  =  400.000; ENMIN  =  300.000 eV                                                          
   ICORE  =        2    local potential                                                             
   LCOR   =        T    correct aug charges                                                         
   LPAW   =        T    paw PP                                                                      
   EAUG   =  605.392                                                                                
   DEXC   =    0.000                                                                                
   RMAX   =    1.553    core radius for proj-oper                                                   
   RAUG   =    1.300    factor for augmentation sphere                                              
   RDEP   =    1.550    radius for radial grids                                                     
   RDEPT  =    1.329    core radius for aug-charge                                                  
                                                                                                    
   Atomic configuration                                                                             
    4 entries                                                                                       
     n  l   j            E        occ.                                                              
     1  0  0.50      -514.6923   2.0000                                                             
     2  0  0.50       -23.9615   2.0000                                                             
     2  1  0.50        -9.0305   4.0000                                                             
     3  2  1.50        -9.5241   0.0000                                                             
   Description                                                                                      
     l       E           TYP  RCUT    TYP  RCUT                                                     
     0    -23.9615318     23  1.200                                                                 
     0     -9.5240782     23  1.200                                                                 
     1     -9.0304911     23  1.520                                                                 
     1      8.1634956     23  1.520                                                                 
     2     -9.5240782      7  1.500                                                                 
  local pseudopotential read in
  partial core-charges read in
  partial kinetic energy density read in
  kinetic energy density of atom read in
  atomic valenz-charges read in
  non local Contribution for L=           0  read in
    real space projection operators read in
  non local Contribution for L=           0  read in
    real space projection operators read in
  non local Contribution for L=           1  read in
    real space projection operators read in
  non local Contribution for L=           1  read in
    real space projection operators read in
    PAW grid and wavefunctions read in

   number of l-projection  operators is LMAX  =           4
   number of lm-projection operators is LMMAX =           8

 -----------------------------------------------------------------------------
|                                                                             |
|               ----> ADVICE to this user running VASP <----                  |
|                                                                             |
|     You have a (more or less) 'large supercell' and for larger cells it     |
|     might be more efficient to use real-space projection operators.         |
|     Therefore, try LREAL= Auto in the INCAR file.                           |
|     Mind: For very accurate calculation, you might also keep the            |
|     reciprocal projection scheme (i.e. LREAL=.FALSE.).                      |
|                                                                             |
 -----------------------------------------------------------------------------

  PAW_PBE Ti 08Apr2002                  :
 energy of atom  1       EATOM=  -94.7928
 kinetic energy error for atom=    0.0002 (will be added to EATOM!!)
  PAW_PBE O 08Apr2002                   :
 energy of atom  2       EATOM= -432.3788
 kinetic energy error for atom=    0.0208 (will be added to EATOM!!)


 POSCAR: Ti  O
  positions in direct lattice
  No initial velocities read in
 WARNING: Using user supplied parameters
     VDW_S8 = 1.195
     VDW_A1 = 0.387
     VDW_A2 = 5.191
     because the xc functional is not supported. Required parameters not
     defined in the INCAR file will be replaced with PBE defaults ones.

 exchange correlation table for  LEXCH =        8
   RHO(1)=    0.500       N(1)  =     2000
   RHO(2)=  100.500       N(2)  =     4000



--------------------------------------------------------------------------------------------------------


 ion  position               nearest neighbor table
   1  0.809  0.833  0.295-  85 1.94  51 1.94  53 1.94  52 2.00  50 2.00  18 3.06   2 3.06   4 3.06

   2  0.593  0.667  0.326-  49 1.94 116 1.94  54 1.94  52 1.94  53 2.00  55 2.00  33 3.06   1 3.06
                             3 3.06   7 3.08
   3  0.309  0.667  0.295- 121 1.94  55 1.94  57 1.94  56 2.00  49 2.00  36 3.06   4 3.06   2 3.06

   4  0.093  0.833  0.326-  88 1.94  50 1.94  58 1.94  56 1.94  57 2.00  51 2.00  19 3.06   3 3.06
                             1 3.06   5 3.09
   5  0.946  0.833  0.422-  59 1.93  93 1.94  61 1.94  51 1.98  60 1.99  58 2.00   8 3.01   6 3.05
                            22 3.06   4 3.09
   6  0.728  0.666  0.451-  54 1.90 124 1.94  60 1.94  62 1.96  63 2.00  61 2.00   7 3.02   5 3.05
                            37 3.06  11 3.11
   7  0.446  0.666  0.422-  63 1.93 129 1.94  65 1.94  55 1.98  64 1.99  54 2.00   6 3.02   8 3.06
                            40 3.06   2 3.08
   8  0.227  0.833  0.451-  58 1.90  64 1.94  96 1.94  66 1.97  59 1.98  65 2.01   5 3.01  23 3.06
                             7 3.06   9 3.11
   9  0.087  0.834  0.550-  67 1.93 101 1.93  69 1.94  68 1.98  66 2.00  59 2.01  12 2.96  10 3.05
                            26 3.06   8 3.11
  10  0.867  0.666  0.575-  62 1.87 132 1.94  68 1.95  71 1.96  70 2.01  69 2.01  11 2.99   9 3.05
                            41 3.06  15 3.17
  11  0.586  0.667  0.549- 137 1.94  71 1.94  73 1.94  63 1.98  72 1.98  62 2.02  10 2.99  12 3.06
                            44 3.07   6 3.11
  12  0.365  0.833  0.577-  66 1.87 104 1.94  72 1.95  67 1.96  74 2.00  73 2.02   9 2.96  27 3.06
                            11 3.06
  13  0.232  0.833  0.681-  75 1.86  77 1.93 109 1.94  76 2.00  74 2.10  67 2.10  16 2.86  30 3.08
                            14 3.10
  14  0.001  0.666  0.700-  70 1.78  78 1.84 140 1.97  76 1.99  77 2.06  15 2.87  13 3.10  45 3.11

  15  0.730  0.666  0.677-  78 1.89 144 1.93  80 1.95  79 1.99  71 2.03  70 2.09  14 2.87  16 3.09
                            48 3.09  10 3.17
  16  0.504  0.834  0.700-  74 1.79  75 1.84 111 1.97  79 1.97  80 2.05  13 2.86  31 3.08  15 3.09

  17  0.809  0.167  0.295-  85 1.94  83 1.94 117 1.94  84 2.00  82 2.00  18 3.06  34 3.06  20 3.06

  18  0.593  0.000  0.326-  81 1.94  52 1.94  84 1.94  86 1.94  85 2.00  87 2.00   1 3.06  17 3.06
                            19 3.06  23 3.09
  19  0.309  0.000  0.295-  57 1.94  89 1.94  87 1.94  88 2.00  81 2.00  20 3.06   4 3.06  18 3.06

  20  0.093  0.167  0.326-  88 1.94  82 1.94  90 1.94 120 1.94  89 2.00  83 2.00  19 3.06  35 3.06
                            17 3.06  21 3.09
  21  0.946  0.167  0.422-  91 1.93  93 1.94 125 1.94  83 1.98  92 1.99  90 2.00  24 3.01  38 3.05
                            22 3.06  20 3.09
  22  0.727  1.000  0.451-  86 1.90  60 1.94  92 1.94  94 1.97  95 1.98  93 2.00  23 3.01   5 3.06
                            21 3.06  27 3.11
  23  0.446  1.000  0.422-  95 1.93  65 1.94  97 1.94  87 1.98  96 1.99  86 2.00  22 3.01  24 3.06
                             8 3.06  18 3.09
  24  0.227  0.167  0.451-  90 1.90 128 1.94  96 1.94  98 1.97  91 1.98  97 2.01  21 3.01  23 3.06
                            39 3.06  25 3.11
  25  0.087  0.166  0.550-  99 1.93 101 1.93 133 1.94 100 1.98  98 2.00  91 2.01  28 2.96  42 3.05
                            26 3.06  24 3.11
  26  0.865  1.000  0.576-  94 1.87 100 1.94  68 1.94 103 1.95 102 2.01 101 2.03  27 2.97   9 3.06
                            25 3.06
  27  0.586  1.000  0.550- 103 1.93  73 1.94 105 1.94 104 1.98  95 2.00  94 2.01  26 2.97  28 3.06
                            12 3.06  22 3.11
  28  0.365  0.167  0.577-  98 1.87 104 1.94 136 1.95  99 1.96 106 2.00 105 2.02  25 2.96  27 3.06
                            43 3.06
  29  0.232  0.167  0.681- 107 1.86 141 1.93 109 1.94 108 2.00 106 2.10  99 2.10  32 2.86  30 3.08
                            46 3.10
  30  0.004  1.000  0.700- 102 1.79 110 1.83 108 1.98  76 1.98 109 2.04  31 2.85  29 3.08  13 3.08

  31  0.733  0.000  0.680- 110 1.86 112 1.93  80 1.93 111 2.00 102 2.09 103 2.09  30 2.85  32 3.08
                            16 3.08
  32  0.504  0.166  0.700- 106 1.79 107 1.84 111 1.97 143 1.97 112 2.05  29 2.86  31 3.08  47 3.09

  33  0.809  0.500  0.295-  53 1.94 117 1.94 115 1.94 116 2.00 114 2.00  34 3.06   2 3.06  36 3.06

  34  0.593  0.333  0.326- 113 1.94 116 1.94 118 1.94  84 1.94 117 2.00 119 2.00  33 3.06  17 3.06
                            35 3.06  39 3.08
  35  0.309  0.333  0.295- 121 1.94 119 1.94  89 1.94 120 2.00 113 2.00  36 3.06  20 3.06  34 3.06

  36  0.093  0.500  0.326-  56 1.94 120 1.94 114 1.94 122 1.94 121 2.00 115 2.00   3 3.06  35 3.06
                            33 3.06  37 3.07
  37  0.948  0.500  0.422- 123 1.93  61 1.94 125 1.94 115 1.98 122 1.98 124 2.00  40 3.01   6 3.06
                            38 3.06  36 3.07
  38  0.728  0.334  0.451- 118 1.90 124 1.94  92 1.94 126 1.96 127 2.00 125 2.00  39 3.02  21 3.05
                            37 3.06  43 3.11
  39  0.446  0.334  0.422- 127 1.93 129 1.94  97 1.94 119 1.98 128 1.99 118 2.00  38 3.02  24 3.06
                            40 3.06  34 3.08
  40  0.227  0.500  0.453- 122 1.93 128 1.94  64 1.94 123 1.97 130 1.97 129 2.01  37 3.01  39 3.06
                             7 3.06  41 3.08
  41  0.090  0.500  0.550- 131 1.93 133 1.94  69 1.94 130 1.98 132 2.00 123 2.01  44 2.97  42 3.06
                            10 3.06  40 3.08
  42  0.867  0.334  0.575- 126 1.87 132 1.94 100 1.95 135 1.96 134 2.01 133 2.01  43 2.99  25 3.05
                            41 3.06  47 3.17
  43  0.586  0.333  0.549- 137 1.94 135 1.94 105 1.94 127 1.98 136 1.98 126 2.02  42 2.99  28 3.06
                            44 3.07  38 3.11
  44  0.367  0.500  0.580- 130 1.93 136 1.94  72 1.94 131 1.95 138 1.99 137 2.03  41 2.97  43 3.07
                            11 3.07  45 3.15
  45  0.235  0.500  0.681- 139 1.86  77 1.94 141 1.94 140 2.03 138 2.05 131 2.10  48 2.88  14 3.11
                            46 3.11  44 3.15
  46  0.001  0.334  0.700- 134 1.78 142 1.84 140 1.97 108 1.99 141 2.06  47 2.87  29 3.10  45 3.11

  47  0.730  0.334  0.677- 142 1.89 144 1.93 112 1.95 143 1.99 135 2.03 134 2.09  46 2.87  32 3.09
                            48 3.09  42 3.17
  48  0.506  0.500  0.706- 139 1.82 138 1.87  79 1.98 143 1.98 144 2.11  45 2.88  15 3.09  47 3.09

  49  0.489  0.667  0.268-   2 1.94   3 2.00
  50  0.989  0.833  0.268-   4 1.94   1 2.00
  51  0.913  0.833  0.353-   1 1.94   5 1.98   4 2.00
  52  0.630  0.833  0.321-  18 1.94   2 1.94   1 2.00
  53  0.773  0.667  0.300-  33 1.94   1 1.94   2 2.00
  54  0.625  0.667  0.395-   6 1.90   2 1.94   7 2.00
  55  0.413  0.667  0.353-   3 1.94   7 1.98   2 2.00
  56  0.130  0.667  0.321-  36 1.94   4 1.94   3 2.00
  57  0.273  0.833  0.300-  19 1.94   3 1.94   4 2.00
  58  0.125  0.833  0.395-   8 1.90   4 1.94   5 2.00
  59  0.051  0.834  0.480-   5 1.93   8 1.98   9 2.01
  60  0.766  0.833  0.447-  22 1.94   6 1.94   5 1.99
  61  0.910  0.667  0.427-   5 1.94  37 1.94   6 2.00
  62  0.764  0.666  0.520-  10 1.87   6 1.96  11 2.02
  63  0.551  0.666  0.479-   7 1.93  11 1.98   6 2.00
  64  0.265  0.667  0.448-  40 1.94   8 1.94   7 1.99
  65  0.409  0.833  0.427-   7 1.94  23 1.94   8 2.01
  66  0.265  0.833  0.521-  12 1.87   8 1.97   9 2.00
  67  0.194  0.833  0.607-   9 1.93  12 1.96  13 2.10
  68  0.905  0.834  0.573-  26 1.94  10 1.95   9 1.98
  69  0.052  0.666  0.553-  41 1.94   9 1.94  10 2.01
  70  0.913  0.668  0.645-  14 1.78  10 2.01  15 2.09
  71  0.695  0.670  0.605-  11 1.94  10 1.96  15 2.03
  72  0.406  0.667  0.574-  44 1.94  12 1.95  11 1.98
  73  0.550  0.833  0.553-  27 1.94  11 1.94  12 2.02
  74  0.412  0.835  0.646-  16 1.79  12 2.00  13 2.10
  75  0.348  0.833  0.732-  16 1.84  13 1.86
  76  0.052  0.833  0.708-  30 1.98  14 1.99  13 2.00
  77  0.195  0.666  0.681-  13 1.93  45 1.94  14 2.06
  78  0.842  0.661  0.730-  14 1.84  15 1.89
  79  0.555  0.668  0.707-  16 1.97  48 1.98  15 1.99
  80  0.695  0.834  0.679-  31 1.93  15 1.95  16 2.05
  81  0.489  0.000  0.268-  18 1.94  19 2.00
  82  0.989  0.167  0.268-  20 1.94  17 2.00
  83  0.913  0.167  0.353-  17 1.94  21 1.98  20 2.00
  84  0.630  0.167  0.321-  18 1.94  34 1.94  17 2.00
  85  0.773  0.000  0.300-   1 1.94  17 1.94  18 2.00
  86  0.625  0.000  0.395-  22 1.90  18 1.94  23 2.00
  87  0.413  0.000  0.353-  19 1.94  23 1.98  18 2.00
  88  0.130  0.000  0.321-   4 1.94  20 1.94  19 2.00
  89  0.273  0.167  0.300-  19 1.94  35 1.94  20 2.00
  90  0.125  0.167  0.395-  24 1.90  20 1.94  21 2.00
  91  0.051  0.166  0.480-  21 1.93  24 1.98  25 2.01
  92  0.766  0.167  0.447-  22 1.94  38 1.94  21 1.99
  93  0.910  1.000  0.427-   5 1.94  21 1.94  22 2.00
  94  0.764  1.000  0.520-  26 1.87  22 1.97  27 2.01
  95  0.551  1.000  0.479-  23 1.93  22 1.98  27 2.00
  96  0.266  1.000  0.448-  24 1.94   8 1.94  23 1.99
  97  0.409  0.167  0.427-  39 1.94  23 1.94  24 2.01
  98  0.265  0.167  0.521-  28 1.87  24 1.97  25 2.00
  99  0.194  0.167  0.607-  25 1.93  28 1.96  29 2.10
 100  0.905  0.166  0.573-  26 1.94  42 1.95  25 1.98
 101  0.052  1.000  0.553-  25 1.93   9 1.93  26 2.03
 102  0.913  1.000  0.645-  30 1.79  26 2.01  31 2.09
 103  0.695  1.000  0.606-  27 1.93  26 1.95  31 2.09
 104  0.405  1.000  0.573-  12 1.94  28 1.94  27 1.98
 105  0.550  0.167  0.553-  27 1.94  43 1.94  28 2.02
 106  0.412  0.165  0.646-  32 1.79  28 2.00  29 2.10
 107  0.348  0.167  0.732-  32 1.84  29 1.86
 108  0.052  0.167  0.708-  30 1.98  46 1.99  29 2.00
 109  0.195  1.000  0.681-  29 1.94  13 1.94  30 2.04
 110  0.847  1.000  0.731-  30 1.83  31 1.86
 111  0.555  0.000  0.708-  16 1.97  32 1.97  31 2.00
 112  0.695  0.166  0.679-  31 1.93  47 1.95  32 2.05
 113  0.489  0.333  0.268-  34 1.94  35 2.00
 114  0.989  0.500  0.268-  36 1.94  33 2.00
 115  0.913  0.500  0.353-  33 1.94  37 1.98  36 2.00
 116  0.630  0.500  0.321-   2 1.94  34 1.94  33 2.00
 117  0.773  0.333  0.300-  33 1.94  17 1.94  34 2.00
 118  0.625  0.333  0.395-  38 1.90  34 1.94  39 2.00
 119  0.413  0.333  0.353-  35 1.94  39 1.98  34 2.00
 120  0.130  0.333  0.321-  36 1.94  20 1.94  35 2.00
 121  0.273  0.500  0.300-   3 1.94  35 1.94  36 2.00
 122  0.125  0.500  0.395-  40 1.93  36 1.94  37 1.98
 123  0.052  0.500  0.480-  37 1.93  40 1.97  41 2.01
 124  0.766  0.500  0.447-  38 1.94   6 1.94  37 2.00
 125  0.910  0.333  0.427-  21 1.94  37 1.94  38 2.00
 126  0.764  0.334  0.520-  42 1.87  38 1.96  43 2.02
 127  0.551  0.334  0.479-  39 1.93  43 1.98  38 2.00
 128  0.265  0.333  0.448-  40 1.94  24 1.94  39 1.99
 129  0.409  0.500  0.427-  39 1.94   7 1.94  40 2.01
 130  0.266  0.500  0.522-  44 1.93  40 1.97  41 1.98
 131  0.194  0.500  0.608-  41 1.93  44 1.95  45 2.10
 132  0.906  0.500  0.573-  10 1.94  42 1.94  41 2.00
 133  0.052  0.334  0.553-  41 1.94  25 1.94  42 2.01
 134  0.913  0.332  0.645-  46 1.78  42 2.01  47 2.09
 135  0.695  0.330  0.605-  43 1.94  42 1.96  47 2.03
 136  0.406  0.333  0.574-  44 1.94  28 1.95  43 1.98
 137  0.551  0.500  0.554-  11 1.94  43 1.94  44 2.03
 138  0.413  0.500  0.649-  48 1.87  44 1.99  45 2.05
 139  0.346  0.500  0.734-  48 1.82  45 1.86
 140  0.052  0.500  0.708-  46 1.97  14 1.97  45 2.03
 141  0.195  0.334  0.681-  29 1.93  45 1.94  46 2.06
 142  0.842  0.339  0.730-  46 1.84  47 1.89
 143  0.555  0.332  0.707-  32 1.97  48 1.98  47 1.99
 144  0.693  0.500  0.675-  15 1.93  47 1.93  48 2.11


IMPORTANT INFORMATION: All symmetrisations will be switched off!
NOSYMM: (Re-)initialisation of all symmetry stuff for point group C_1.


----------------------------------------------------------------------------------------

                                     Primitive cell                                     

  volume of cell :    3283.9948

  direct lattice vectors                    reciprocal lattice vectors
    10.314592520  0.000000000  0.000000000     0.096950025 -0.000000000  0.000000000
     0.000000000 11.393151181  0.000000000     0.000000000  0.087772029  0.000000000
     0.000000000  0.000000000 27.945155206     0.000000000  0.000000000  0.035784378

  length of vectors
    10.314592520 11.393151181 27.945155206     0.096950025  0.087772029  0.035784378

  position of ions in fractional coordinates (direct lattice)
     0.809420363  0.833333333  0.294677697
     0.593311104  0.666666667  0.326265743
     0.309420363  0.666666667  0.294677697
     0.093311104  0.833333333  0.326265743
     0.946263570  0.833458728  0.422406296
     0.728140789  0.666267860  0.451005909
     0.445532382  0.666422191  0.422243109
     0.227044003  0.833279239  0.451499179
     0.087372575  0.833606174  0.550142609
     0.866711008  0.666302674  0.575170591
     0.585628844  0.666546817  0.549051442
     0.365331223  0.833399712  0.576526642
     0.231906538  0.832662299  0.680550181
     0.001096002  0.665701185  0.699917367
     0.729751701  0.665720394  0.676779011
     0.504183243  0.834213371  0.700037959
     0.809420363  0.166666667  0.294677697
     0.593311104  0.000000000  0.326265743
     0.309420363  0.000000000  0.294677697
     0.093311104  0.166666667  0.326265743
     0.946263554  0.166541285  0.422406285
     0.727402777  0.999999945  0.451212465
     0.445783064  0.999999970  0.422396337
     0.227044027  0.166720737  0.451499166
     0.087372626  0.166393760  0.550142611
     0.865240732  0.999999960  0.575874742
     0.586349616  0.999999963  0.549666859
     0.365331249  0.166600242  0.576526624
     0.231906472  0.167337489  0.680550159
     0.003585702  0.999999985  0.699980390
     0.732855415  0.000000079  0.679562163
     0.504183346  0.165786674  0.700037914
     0.809420363  0.500000000  0.294677697
     0.593311104  0.333333333  0.326265743
     0.309420363  0.333333333  0.294677697
     0.093311104  0.500000000  0.326265743
     0.947640843  0.499999991  0.422199213
     0.728140722  0.333732122  0.451005930
     0.445532434  0.333577797  0.422243127
     0.227254326  0.499999972  0.452561091
     0.090076965  0.499999925  0.550382712
     0.866710993  0.333697261  0.575170634
     0.585628866  0.333453131  0.549051509
     0.367287387  0.499999946  0.579540838
     0.235216942  0.499999978  0.681021990
     0.001096006  0.334298702  0.699917376
     0.729751688  0.334279524  0.676779121
     0.506361681  0.500000058  0.706136837
     0.489316353  0.666666667  0.268382836
     0.989316353  0.833333333  0.268382836
     0.913415114  0.833333333  0.352560604
     0.629524373  0.833333333  0.320972558
     0.773207095  0.666666667  0.299970882
     0.624879318  0.666666667  0.394735022
     0.413415114  0.666666667  0.352560604
     0.129524373  0.666666667  0.320972558
     0.273207095  0.833333333  0.299970882
     0.124879318  0.833333333  0.394735022
     0.051110026  0.833631323  0.479572786
     0.765675382  0.833274523  0.447134103
     0.910258042  0.666625212  0.426582372
     0.764480627  0.665782734  0.519914507
     0.550718749  0.665936819  0.479479222
     0.265442639  0.666536263  0.447605862
     0.409378576  0.833196289  0.426569138
     0.264575577  0.832876226  0.520752679
     0.194222469  0.833020499  0.606779104
     0.905484517  0.833506828  0.572500849
     0.051909483  0.666495612  0.553082472
     0.913422554  0.668147270  0.644889536
     0.695473709  0.669632428  0.605292081
     0.406049326  0.666507967  0.574307124
     0.549794365  0.833343430  0.552698413
     0.412255839  0.834521071  0.645900437
     0.347964971  0.832911979  0.731500570
     0.052364940  0.832634164  0.707933305
     0.194685195  0.666288030  0.681328321
     0.842478985  0.660501497  0.730275415
     0.555144502  0.668213943  0.707354694
     0.695215774  0.833724868  0.679308248
     0.489316353  0.000000000  0.268382836
     0.989316353  0.166666667  0.268382836
     0.913415114  0.166666667  0.352560604
     0.629524373  0.166666667  0.320972558
     0.773207095  0.000000000  0.299970882
     0.624879318  0.000000000  0.394735022
     0.413415114  0.000000000  0.352560604
     0.129524373  0.000000000  0.320972558
     0.273207095  0.166666667  0.299970882
     0.124879318  0.166666667  0.394735022
     0.051110039  0.166368632  0.479572790
     0.765675370  0.166725490  0.447134116
     0.909792193  0.999999986  0.426535014
     0.764096575  0.999999967  0.520277311
     0.550795429  0.999999964  0.479405780
     0.265556292  0.999999997  0.447568920
     0.409378570  0.166803686  0.426569132
     0.264575549  0.167123770  0.520752664
     0.194222442  0.166979346  0.606779069
     0.905484515  0.166493093  0.572500857
     0.051867380  0.999999994  0.553377706
     0.913083435  0.999999949  0.645424416
     0.694585803  0.999999923  0.605973988
     0.405204773  0.999999933  0.573495023
     0.549794424  0.166656509  0.552698395
     0.412255775  0.165479036  0.645900395
     0.347964937  0.167087852  0.731500558
     0.052364958  0.167365751  0.707933300
     0.194769107  0.999999901  0.681117243
     0.847074391  0.999999896  0.731104189
     0.554811011  0.000000006  0.708243344
     0.695215801  0.166275143  0.679308253
     0.489316353  0.333333333  0.268382836
     0.989316353  0.500000000  0.268382836
     0.913415114  0.500000000  0.352560604
     0.629524373  0.500000000  0.320972558
     0.773207095  0.333333333  0.299970882
     0.624879318  0.333333333  0.394735022
     0.413415114  0.333333333  0.352560604
     0.129524373  0.333333333  0.320972558
     0.273207095  0.500000000  0.299970882
     0.124879318  0.500000000  0.394735022
     0.051604839  0.499999975  0.479804655
     0.765832584  0.499999941  0.446774817
     0.910258036  0.333374771  0.426582387
     0.764480620  0.334217191  0.519914519
     0.550718757  0.334063124  0.479479215
     0.265442640  0.333463695  0.447605860
     0.409295229  0.499999982  0.426564961
     0.265739825  0.499999946  0.521743718
     0.194499489  0.499999956  0.607514361
     0.905785235  0.499999966  0.573176632
     0.051909451  0.333504276  0.553082502
     0.913422512  0.331852649  0.644889574
     0.695473670  0.330367651  0.605292110
     0.406049368  0.333492032  0.574307118
     0.551292037  0.499999983  0.554044300
     0.413214345  0.499999954  0.648642623
     0.346076692  0.500000018  0.733647846
     0.052235521  0.499999941  0.707612067
     0.194685167  0.333711929  0.681328334
     0.842479084  0.339498478  0.730275438
     0.555144466  0.331786162  0.707354755
     0.692661742  0.500000043  0.675231717

  ion indices of the primitive-cell ions
   primitive index   ion index
                 1           1
                 2           2
                 3           3
                 4           4
                 5           5
                 6           6
                 7           7
                 8           8
                 9           9
                10          10
                11          11
                12          12
                13          13
                14          14
                15          15
                16          16
                17          17
                18          18
                19          19
                20          20
                21          21
                22          22
                23          23
                24          24
                25          25
                26          26
                27          27
                28          28
                29          29
                30          30
                31          31
                32          32
                33          33
                34          34
                35          35
                36          36
                37          37
                38          38
                39          39
                40          40
                41          41
                42          42
                43          43
                44          44
                45          45
                46          46
                47          47
                48          48
                49          49
                50          50
                51          51
                52          52
                53          53
                54          54
                55          55
                56          56
                57          57
                58          58
                59          59
                60          60
                61          61
                62          62
                63          63
                64          64
                65          65
                66          66
                67          67
                68          68
                69          69
                70          70
                71          71
                72          72
                73          73
                74          74
                75          75
                76          76
                77          77
                78          78
                79          79
                80          80
                81          81
                82          82
                83          83
                84          84
                85          85
                86          86
                87          87
                88          88
                89          89
                90          90
                91          91
                92          92
                93          93
                94          94
                95          95
                96          96
                97          97
                98          98
                99          99
               100         100
               101         101
               102         102
               103         103
               104         104
               105         105
               106         106
               107         107
               108         108
               109         109
               110         110
               111         111
               112         112
               113         113
               114         114
               115         115
               116         116
               117         117
               118         118
               119         119
               120         120
               121         121
               122         122
               123         123
               124         124
               125         125
               126         126
               127         127
               128         128
               129         129
               130         130
               131         131
               132         132
               133         133
               134         134
               135         135
               136         136
               137         137
               138         138
               139         139
               140         140
               141         141
               142         142
               143         143
               144         144

----------------------------------------------------------------------------------------



 KPOINTS: pymatgen v2020.8.13 with grid density = 

Automatic generation of k-mesh.
 Grid dimensions read from file:
 generate k-points for:    3    3    1

 Generating k-lattice:

  Cartesian coordinates                     Fractional coordinates (reciprocal lattice)
     0.032316675 -0.000000000  0.000000000     0.333333333 -0.000000000  0.000000000
     0.000000000  0.029257343  0.000000000     0.000000000  0.333333333  0.000000000
     0.000000000  0.000000000  0.035784378     0.000000000  0.000000000  1.000000000

  Length of vectors
     0.032316675  0.029257343  0.035784378

  Shift w.r.t. Gamma in fractional coordinates (k-lattice)
     0.000000000  0.000000000  0.000000000

 
 Subroutine IBZKPT returns following result:
 ===========================================
 
 Found      5 irreducible k-points:
 
 Following reciprocal coordinates:
            Coordinates               Weight
  0.000000  0.000000  0.000000      1.000000
  0.333333  0.000000  0.000000      2.000000
  0.000000  0.333333  0.000000      2.000000
  0.333333  0.333333  0.000000      2.000000
  0.333333 -0.333333  0.000000      2.000000
 
 Following cartesian coordinates:
            Coordinates               Weight
  0.000000  0.000000  0.000000      1.000000
  0.032317  0.000000  0.000000      2.000000
  0.000000  0.029257  0.000000      2.000000
  0.032317  0.029257  0.000000      2.000000
  0.032317 -0.029257  0.000000      2.000000
 
 
 Subroutine IBZKPT_HF returns following result:
 ==============================================
 
 Found      9 k-points in 1st BZ
 the following      9 k-points will be used (e.g. in the exchange kernel)
 Following reciprocal coordinates:   # in IRBZ
  0.000000  0.000000  0.000000    0.11111111   1 t-inv F
  0.333333  0.000000  0.000000    0.11111111   2 t-inv F
  0.000000  0.333333  0.000000    0.11111111   3 t-inv F
  0.333333  0.333333  0.000000    0.11111111   4 t-inv F
  0.333333 -0.333333  0.000000    0.11111111   5 t-inv F
 -0.333333 -0.000000 -0.000000    0.11111111   2 t-inv T
 -0.000000 -0.333333 -0.000000    0.11111111   3 t-inv T
 -0.333333 -0.333333 -0.000000    0.11111111   4 t-inv T
 -0.333333  0.333333 -0.000000    0.11111111   5 t-inv T


--------------------------------------------------------------------------------------------------------




 Dimension of arrays:
   k-points           NKPTS =      5   k-points in BZ     NKDIM =      9   number of bands    NBANDS=    480
   number of dos      NEDOS =    301   number of ions     NIONS =    144
   non local maximal  LDIM  =      5   non local SUM 2l+1 LMDIM =     15
   total plane-waves  NPLWV = 614400
   max r-space proj   IRMAX =      1   max aug-charges    IRDMAX=  13119
   dimension x,y,z NGX =    60 NGY =   64 NGZ =  160
   dimension x,y,z NGXF=   120 NGYF=  128 NGZF=  320
   support grid    NGXF=   120 NGYF=  128 NGZF=  320
   ions per type =              48  96
   NGX,Y,Z   is equivalent  to a cutoff of   9.67,  9.34,  9.52 a.u.
   NGXF,Y,Z  is equivalent  to a cutoff of  19.34, 18.68, 19.04 a.u.

 SYSTEM =  TiO2                                    
 POSCAR =  Ti  O                                   

--------------------------------------------------------------------------------------------------------


  energy-cutoff  :      520.00
  volume of cell :     3283.99
      direct lattice vectors                 reciprocal lattice vectors
    10.314592520  0.000000000  0.000000000     0.096950025 -0.000000000  0.000000000
     0.000000000 11.393151181  0.000000000     0.000000000  0.087772029  0.000000000
     0.000000000  0.000000000 27.945155206     0.000000000  0.000000000  0.035784378

  length of vectors
    10.314592520 11.393151181 27.945155206     0.096950025  0.087772029  0.035784378



 k-points in units of 2pi/SCALE and weight: pymatgen v2020.8.13 with grid density = 
   0.00000000  0.00000000  0.00000000       0.111
   0.03231667  0.00000000  0.00000000       0.222
   0.00000000  0.02925734  0.00000000       0.222
   0.03231667  0.02925734  0.00000000       0.222
   0.03231667 -0.02925734  0.00000000       0.222

 k-points in reciprocal lattice and weights: pymatgen v2020.8.13 with grid density = 
   0.00000000  0.00000000  0.00000000       0.111
   0.33333333  0.00000000  0.00000000       0.222
   0.00000000  0.33333333  0.00000000       0.222
   0.33333333  0.33333333  0.00000000       0.222
   0.33333333 -0.33333333  0.00000000       0.222

 position of ions in fractional coordinates (direct lattice) 
   0.80942036  0.83333333  0.29467770
   0.59331110  0.66666667  0.32626574
   0.30942036  0.66666667  0.29467770
   0.09331110  0.83333333  0.32626574
   0.94626357  0.83345873  0.42240630
   0.72814079  0.66626786  0.45100591
   0.44553238  0.66642219  0.42224311
   0.22704400  0.83327924  0.45149918
   0.08737258  0.83360617  0.55014261
   0.86671101  0.66630267  0.57517059
   0.58562884  0.66654682  0.54905144
   0.36533122  0.83339971  0.57652664
   0.23190654  0.83266230  0.68055018
   0.00109600  0.66570119  0.69991737
   0.72975170  0.66572039  0.67677901
   0.50418324  0.83421337  0.70003796
   0.80942036  0.16666667  0.29467770
   0.59331110  0.00000000  0.32626574
   0.30942036  0.00000000  0.29467770
   0.09331110  0.16666667  0.32626574
   0.94626355  0.16654128  0.42240628
   0.72740278  0.99999994  0.45121246
   0.44578306  0.99999997  0.42239634
   0.22704403  0.16672074  0.45149917
   0.08737263  0.16639376  0.55014261
   0.86524073  0.99999996  0.57587474
   0.58634962  0.99999996  0.54966686
   0.36533125  0.16660024  0.57652662
   0.23190647  0.16733749  0.68055016
   0.00358570  0.99999998  0.69998039
   0.73285541  0.00000008  0.67956216
   0.50418335  0.16578667  0.70003791
   0.80942036  0.50000000  0.29467770
   0.59331110  0.33333333  0.32626574
   0.30942036  0.33333333  0.29467770
   0.09331110  0.50000000  0.32626574
   0.94764084  0.49999999  0.42219921
   0.72814072  0.33373212  0.45100593
   0.44553243  0.33357780  0.42224313
   0.22725433  0.49999997  0.45256109
   0.09007697  0.49999992  0.55038271
   0.86671099  0.33369726  0.57517063
   0.58562887  0.33345313  0.54905151
   0.36728739  0.49999995  0.57954084
   0.23521694  0.49999998  0.68102199
   0.00109601  0.33429870  0.69991738
   0.72975169  0.33427952  0.67677912
   0.50636168  0.50000006  0.70613684
   0.48931635  0.66666667  0.26838284
   0.98931635  0.83333333  0.26838284
   0.91341511  0.83333333  0.35256060
   0.62952437  0.83333333  0.32097256
   0.77320709  0.66666667  0.29997088
   0.62487932  0.66666667  0.39473502
   0.41341511  0.66666667  0.35256060
   0.12952437  0.66666667  0.32097256
   0.27320709  0.83333333  0.29997088
   0.12487932  0.83333333  0.39473502
   0.05111003  0.83363132  0.47957279
   0.76567538  0.83327452  0.44713410
   0.91025804  0.66662521  0.42658237
   0.76448063  0.66578273  0.51991451
   0.55071875  0.66593682  0.47947922
   0.26544264  0.66653626  0.44760586
   0.40937858  0.83319629  0.42656914
   0.26457558  0.83287623  0.52075268
   0.19422247  0.83302050  0.60677910
   0.90548452  0.83350683  0.57250085
   0.05190948  0.66649561  0.55308247
   0.91342255  0.66814727  0.64488954
   0.69547371  0.66963243  0.60529208
   0.40604933  0.66650797  0.57430712
   0.54979436  0.83334343  0.55269841
   0.41225584  0.83452107  0.64590044
   0.34796497  0.83291198  0.73150057
   0.05236494  0.83263416  0.70793330
   0.19468520  0.66628803  0.68132832
   0.84247899  0.66050150  0.73027542
   0.55514450  0.66821394  0.70735469
   0.69521577  0.83372487  0.67930825
   0.48931635  0.00000000  0.26838284
   0.98931635  0.16666667  0.26838284
   0.91341511  0.16666667  0.35256060
   0.62952437  0.16666667  0.32097256
   0.77320709  0.00000000  0.29997088
   0.62487932  0.00000000  0.39473502
   0.41341511  0.00000000  0.35256060
   0.12952437  0.00000000  0.32097256
   0.27320709  0.16666667  0.29997088
   0.12487932  0.16666667  0.39473502
   0.05111004  0.16636863  0.47957279
   0.76567537  0.16672549  0.44713412
   0.90979219  0.99999999  0.42653501
   0.76409658  0.99999997  0.52027731
   0.55079543  0.99999996  0.47940578
   0.26555629  1.00000000  0.44756892
   0.40937857  0.16680369  0.42656913
   0.26457555  0.16712377  0.52075266
   0.19422244  0.16697935  0.60677907
   0.90548451  0.16649309  0.57250086
   0.05186738  0.99999999  0.55337771
   0.91308344  0.99999995  0.64542442
   0.69458580  0.99999992  0.60597399
   0.40520477  0.99999993  0.57349502
   0.54979442  0.16665651  0.55269840
   0.41225578  0.16547904  0.64590039
   0.34796494  0.16708785  0.73150056
   0.05236496  0.16736575  0.70793330
   0.19476911  0.99999990  0.68111724
   0.84707439  0.99999990  0.73110419
   0.55481101  0.00000001  0.70824334
   0.69521580  0.16627514  0.67930825
   0.48931635  0.33333333  0.26838284
   0.98931635  0.50000000  0.26838284
   0.91341511  0.50000000  0.35256060
   0.62952437  0.50000000  0.32097256
   0.77320709  0.33333333  0.29997088
   0.62487932  0.33333333  0.39473502
   0.41341511  0.33333333  0.35256060
   0.12952437  0.33333333  0.32097256
   0.27320709  0.50000000  0.29997088
   0.12487932  0.50000000  0.39473502
   0.05160484  0.49999997  0.47980465
   0.76583258  0.49999994  0.44677482
   0.91025804  0.33337477  0.42658239
   0.76448062  0.33421719  0.51991452
   0.55071876  0.33406312  0.47947922
   0.26544264  0.33346369  0.44760586
   0.40929523  0.49999998  0.42656496
   0.26573983  0.49999995  0.52174372
   0.19449949  0.49999996  0.60751436
   0.90578523  0.49999997  0.57317663
   0.05190945  0.33350428  0.55308250
   0.91342251  0.33185265  0.64488957
   0.69547367  0.33036765  0.60529211
   0.40604937  0.33349203  0.57430712
   0.55129204  0.49999998  0.55404430
   0.41321434  0.49999995  0.64864262
   0.34607669  0.50000002  0.73364785
   0.05223552  0.49999994  0.70761207
   0.19468517  0.33371193  0.68132833
   0.84247908  0.33949848  0.73027544
   0.55514447  0.33178616  0.70735475
   0.69266174  0.50000004  0.67523172

 position of ions in cartesian coordinates  (Angst):
   8.34884122  9.49429265  8.23481397
   6.11976228  7.59543412  9.11754684
   3.19154496  7.59543412  8.23481397
   0.96246602  9.49429265  9.11754684
   9.76032314  9.49572129 11.80420950
   7.51047554  7.59089046 12.60343012
   4.59548498  7.59264877 11.79964923
   2.34186638  9.49367635 12.61721462
   0.90121251  9.49740117 15.37382060
   8.93977088  7.59128710 16.07323143
   6.04052289  7.59406866 15.34332776
   3.76824270  9.49504892 16.11112649
   2.39202144  9.48664745 19.01808042
   0.01130481  7.58443424 19.55929944
   7.52709144  7.58465309 18.91269450
   5.20044471  9.50431906 19.56266942
   8.34884122  1.89885853  8.23481397
   6.11976228  0.00000000  9.11754684
   3.19154496  0.00000000  8.23481397
   0.96246602  1.89885853  9.11754684
   9.76032298  1.89743004 11.80420918
   7.50286324 11.39315055 12.60920236
   4.59807066 11.39315084 11.80393121
   2.34186662  1.89947456 12.61721427
   0.90121304  1.89574926 15.37382065
   8.92460558 11.39315072 16.09290904
   6.04795737 11.39315076 15.36052570
   3.76824297  1.89810175 16.11112600
   2.39202076  1.90650131 19.01807981
   0.03698506 11.39315101 19.56106063
   7.55910498  0.00000090 18.99047013
   5.20044577  1.88883264 19.56266815
   8.34884122  5.69657559  8.23481397
   6.11976228  3.79771706  9.11754684
   3.19154496  3.79771706  8.23481397
   0.96246602  5.69657559  9.11754684
   9.77452916  5.69657548 11.79842252
   7.51047485  3.80226052 12.60343070
   4.59548551  3.80050228 11.79964973
   2.34403577  5.69657528 12.64688992
   0.92910719  5.69657473 15.38053032
   8.93977072  3.80186335 16.07323263
   6.04052313  3.79908193 15.34332963
   3.78841974  5.69657497 16.19535866
   2.42616691  5.69657533 19.03126521
   0.01130486  3.80871566 19.55929969
   7.52709130  3.80849716 18.91269757
   5.22291441  5.69657625 19.73310351
   5.04709880  7.59543412  7.50000000
  10.20439506  9.49429265  7.50000000
   9.42150471  9.49429265  9.85236081
   6.49328739  9.49429265  8.96962795
   7.97531611  7.59543412  8.38273287
   6.44537554  7.59543412 11.03093146
   4.26420845  7.59543412  9.85236081
   1.33599113  7.59543412  8.96962795
   2.81801985  9.49429265  8.38273287
   1.28807928  9.49429265 11.03093146
   0.52717909  9.49768769 13.40173594
   7.89762957  9.49362261 12.49523191
   9.38894079  7.59496183 11.92091058
   7.88530616  7.58536334 14.52909160
   5.68043949  7.58711886 13.39912129
   2.73793266  7.59394841 12.50841528
   4.22257320  9.49273128 11.92054075
   2.72898926  9.48908475 14.55251445
   2.00332563  9.49072848 16.95653623
   9.33970382  9.49626930 15.99862508
   0.53542516  7.59348527 15.45597554
   9.42158144  7.61230286 18.02153816
   7.17352791  7.62922348 16.91498114
   4.18823334  7.59362603 16.04910173
   5.67090484  9.49440769 15.44524292
   4.25225099  9.50782472 18.04978796
   3.58911689  9.48949210 20.44189697
   0.54012302  9.48632691 19.78330608
   2.00809846  7.59112025 19.03982568
   8.68982744  7.52519341 20.40765982
   5.72608933  7.61306248 19.76713671
   7.17086742  9.49875347 18.98337442
   5.04709880  0.00000000  7.50000000
  10.20439506  1.89885853  7.50000000
   9.42150471  1.89885853  9.85236081
   6.49328739  1.89885853  8.96962795
   7.97531611  0.00000000  8.38273287
   6.44537554  0.00000000 11.03093146
   4.26420845  0.00000000  9.85236081
   1.33599113  0.00000000  8.96962795
   2.81801985  1.89885853  8.38273287
   1.28807928  1.89885853 11.03093146
   0.52717923  1.89546298 13.40173605
   7.89762944  1.89952871 12.49523228
   9.38413575 11.39315102 11.91958715
   7.88134482 11.39315081 14.53923021
   5.68123041 11.39315077 13.39706892
   2.73910495 11.39315114 12.50738294
   4.22257314  1.90041961 11.92054060
   2.72898898  1.90406638 14.55251402
   2.00332534  1.90242093 16.95653526
   9.33970380  1.89688098 15.99862531
   0.53499089 11.39315111 15.46422588
   9.41808357 11.39315060 18.03648547
   7.16436953 11.39315030 16.93403715
   4.17952212 11.39315042 16.02640743
   5.67090545  1.89874280 15.44524244
   4.25225033  1.88532767 18.04978678
   3.58911654  1.90365716 20.44189663
   0.54012320  1.90682330 19.78330595
   2.00896398 11.39315005 19.03392707
   8.73722718 11.39314999 20.43082003
   5.72264950  0.00000006 19.79197018
   7.17086770  1.89439784 18.98337456
   5.04709880  3.79771706  7.50000000
  10.20439506  5.69657559  7.50000000
   9.42150471  5.69657559  9.85236081
   6.49328739  5.69657559  8.96962795
   7.97531611  3.79771706  8.38273287
   6.44537554  3.79771706 11.03093146
   4.26420845  3.79771706  9.85236081
   1.33599113  3.79771706  8.96962795
   2.81801985  5.69657559  8.38273287
   1.28807928  5.69657559 11.03093146
   0.53228289  5.69657530 13.40821555
   7.89925104  5.69657492 12.48519159
   9.38894073  3.79818916 11.92091100
   7.88530608  3.80778699 14.52909194
   5.68043957  3.80603167 13.39912109
   2.73793267  3.79920229 12.50841523
   4.22171350  5.69657539 11.92042404
   2.74099802  5.69657497 14.58020918
   2.00618298  5.69657509 16.97708310
   9.34280561  5.69657520 16.01750993
   0.53542484  3.79966464 15.45597635
   9.42158101  3.78084740 18.02153924
   7.17352751  3.76392859 16.91498197
   4.18823377  3.79952514 16.04910156
   5.68635272  5.69657540 15.48285396
   4.26213759  5.69657507 18.12641877
   3.56964006  5.69657580 20.50190293
   0.53878812  5.69657492 19.77432905
   2.00809817  3.80203045 19.03982605
   8.68982846  3.86795749 20.40766046
   5.72608895  3.78008991 19.76713841
   7.14452362  5.69657608 18.86945512



--------------------------------------------------------------------------------------------------------

--------------------------------------- Iteration      FINAL  ---------------------------------------


--------------------OUTCAR has been truncated-------------------------


--------------------OUTCAR has been truncated-------------------------


--------------------OUTCAR has been truncated-------------------------


--------------------OUTCAR has been truncated-------------------------


--------------------OUTCAR has been truncated-------------------------


--------------------OUTCAR has been truncated-------------------------


--------------------OUTCAR has been truncated-------------------------


--------------------OUTCAR has been truncated-------------------------


--------------------OUTCAR has been truncated-------------------------


--------------------OUTCAR has been truncated-------------------------


    FORVDW:  cpu time     21.8108: real time     21.8179

  FORCE on cell =-STRESS in cart. coord.  units (eV):
  Direction    XX          YY          ZZ          XY          YZ          ZX
  --------------------------------------------------------------------------------------
  Alpha Z  1508.96098  1508.96098  1508.96098
  Ewald  253448.50393251631.72881************     0.00030    -0.00031  -629.88073
  Hartree264503.15063263894.70480************     0.00013    -0.00009  -297.79786
  E(xc)   -2793.60952 -2786.98216 -2778.88340    -0.00001     0.00000    -2.30472
  Local  ************************520761.78848    -0.00055     0.00043   943.39456
  n-local -1751.05849 -1731.55038 -1778.64611     0.00002    -0.00005    -5.98383
  augment   803.93583   799.88234   801.20100     0.00003    -0.00000    -1.08953
  Kinetic 13807.62315 13891.21462 13957.34311     0.00018    -0.00000   -10.90389
  Fock    -1287.60175 -1275.10905 -1273.50364    -0.00002     0.00000     0.07884
  vdW       -26.32005   -27.83260   -23.06692    -0.00000     0.00000    -0.28272
  -------------------------------------------------------------------------------------
  Total    -118.96312   -73.42225   -60.98789     0.00007    -0.00002    -4.76988
  in kB     -58.03907   -35.82084   -29.75443     0.00004    -0.00001    -2.32710
  external pressure =      -41.20 kB  Pullay stress =        0.00 kB


 VOLUME and BASIS-vectors are now :
 -----------------------------------------------------------------------------
  energy-cutoff  :      520.00
  volume of cell :     3283.99
      direct lattice vectors                 reciprocal lattice vectors
    10.314592520  0.000000000  0.000000000     0.096950025 -0.000000000  0.000000000
     0.000000000 11.393151181  0.000000000     0.000000000  0.087772029  0.000000000
     0.000000000  0.000000000 27.945155206     0.000000000  0.000000000  0.035784378

  length of vectors
    10.314592520 11.393151181 27.945155206     0.096950025  0.087772029  0.035784378


 FORCES acting on ions:
    Electron-Ion                     Ewald-Force                    Non-Local-Force
 -----------------------------------------------------------------------------------------------
   0.986E+01 -.787E-02 0.985E+03   -.690E+01 0.112E-01 -.982E+03   0.878E+00 0.108E-02 -.189E+01
   -.152E+01 -.471E-01 0.797E+03   0.472E+00 0.510E-01 -.798E+03   -.682E+00 0.260E-03 -.843E+00
   0.983E+01 0.302E-01 0.984E+03   -.689E+01 -.312E-01 -.982E+03   0.867E+00 -.171E-03 -.190E+01
   -.201E+01 0.209E-01 0.797E+03   0.933E+00 -.234E-01 -.798E+03   -.692E+00 -.215E-03 -.847E+00
   -.423E+00 0.971E-01 0.360E+03   0.275E+00 -.101E+00 -.360E+03   0.113E+00 0.227E-02 0.402E-01
   0.534E+00 -.688E+00 0.226E+03   -.394E+00 0.702E+00 -.226E+03   -.423E-01 0.166E-01 -.134E+00
   0.158E+00 -.102E+00 0.360E+03   -.265E+00 0.115E+00 -.360E+03   0.104E+00 0.511E-02 0.150E-01
   -.167E+01 0.198E+00 0.223E+03   0.188E+01 -.192E+00 -.223E+03   -.414E-01 0.394E-02 -.129E+00
   -.300E+01 0.157E+00 -.235E+03   0.279E+01 -.176E+00 0.235E+03   0.208E+00 0.889E-02 0.162E+00
   -.275E+01 0.357E+00 -.348E+03   0.322E+01 -.287E+00 0.348E+03   -.111E+00 -.380E-01 -.214E+00
   -.258E+00 0.640E+00 -.228E+03   0.185E+00 -.613E+00 0.228E+03   0.168E+00 0.444E-02 0.966E-01
   -.821E+00 0.784E+00 -.355E+03   0.128E+01 -.767E+00 0.356E+03   -.137E+00 0.147E-02 -.249E+00
   0.651E+01 -.552E+00 -.811E+03   -.750E+01 0.605E+00 0.810E+03   0.606E+00 0.135E-01 -.428E-01
   -.254E+02 -.343E+01 -.930E+03   0.267E+02 0.334E+01 0.931E+03   -.122E+00 0.118E+00 0.766E+00
   0.287E+01 -.234E+01 -.799E+03   -.315E+01 0.252E+01 0.799E+03   0.667E+00 0.140E-02 0.213E+00
   -.272E+02 -.615E+00 -.929E+03   0.288E+02 0.753E+00 0.929E+03   0.168E-01 0.230E-01 0.693E+00
   0.986E+01 0.783E-02 0.985E+03   -.690E+01 -.112E-01 -.982E+03   0.878E+00 -.108E-02 -.189E+01
   -.157E+01 -.148E-04 0.797E+03   0.501E+00 0.357E-05 -.798E+03   -.686E+00 0.131E-04 -.846E+00
   0.981E+01 -.221E-04 0.984E+03   -.686E+01 -.286E-06 -.982E+03   0.876E+00 0.640E-05 -.190E+01
   -.201E+01 -.209E-01 0.797E+03   0.933E+00 0.234E-01 -.798E+03   -.692E+00 0.222E-03 -.847E+00
   -.423E+00 -.971E-01 0.360E+03   0.275E+00 0.101E+00 -.360E+03   0.113E+00 -.227E-02 0.403E-01
   -.599E+00 -.823E-04 0.225E+03   0.771E+00 0.981E-04 -.225E+03   -.273E-01 0.986E-05 -.131E+00
   0.276E+00 -.112E-04 0.360E+03   -.408E+00 0.154E-04 -.360E+03   0.107E+00 0.191E-04 0.253E-01
   -.167E+01 -.198E+00 0.223E+03   0.188E+01 0.192E+00 -.223E+03   -.414E-01 -.394E-02 -.129E+00
   -.300E+01 -.157E+00 -.235E+03   0.278E+01 0.176E+00 0.235E+03   0.208E+00 -.888E-02 0.162E+00
   -.280E+01 -.202E-04 -.353E+03   0.331E+01 0.247E-04 0.354E+03   -.110E+00 0.335E-05 -.218E+00
   -.157E+01 -.583E-04 -.233E+03   0.139E+01 0.499E-04 0.232E+03   0.203E+00 -.492E-05 0.171E+00
   -.821E+00 -.784E+00 -.355E+03   0.128E+01 0.767E+00 0.356E+03   -.137E+00 -.147E-02 -.249E+00
   0.651E+01 0.551E+00 -.811E+03   -.750E+01 -.605E+00 0.810E+03   0.606E+00 -.134E-01 -.428E-01
   -.267E+02 -.381E-04 -.929E+03   0.283E+02 0.266E-04 0.929E+03   -.192E-01 -.483E-05 0.678E+00
   0.445E+01 -.663E-04 -.808E+03   -.525E+01 0.141E-04 0.808E+03   0.590E+00 -.109E-04 0.139E-01
   -.272E+02 0.615E+00 -.929E+03   0.288E+02 -.753E+00 0.929E+03   0.168E-01 -.229E-01 0.693E+00
   0.985E+01 0.355E-04 0.985E+03   -.688E+01 -.182E-05 -.982E+03   0.880E+00 0.451E-05 -.190E+01
   -.152E+01 0.472E-01 0.797E+03   0.472E+00 -.510E-01 -.798E+03   -.682E+00 -.236E-03 -.843E+00
   0.983E+01 -.302E-01 0.984E+03   -.689E+01 0.312E-01 -.982E+03   0.867E+00 0.165E-03 -.190E+01
   -.217E+01 0.229E-04 0.797E+03   0.112E+01 -.169E-05 -.798E+03   -.690E+00 -.629E-05 -.819E+00
   -.272E+00 0.457E-05 0.359E+03   0.579E-01 0.508E-05 -.359E+03   0.113E+00 0.123E-04 0.594E-01
   0.534E+00 0.688E+00 0.226E+03   -.394E+00 -.702E+00 -.226E+03   -.423E-01 -.166E-01 -.134E+00
   0.158E+00 0.102E+00 0.360E+03   -.265E+00 -.115E+00 -.360E+03   0.104E+00 -.513E-02 0.150E-01
   -.230E+01 -.625E-05 0.218E+03   0.253E+01 0.168E-04 -.218E+03   -.503E-01 -.700E-05 -.509E-01
   -.166E+01 0.278E-04 -.237E+03   0.128E+01 -.167E-04 0.237E+03   0.161E+00 0.146E-04 0.157E+00
   -.275E+01 -.357E+00 -.348E+03   0.322E+01 0.287E+00 0.348E+03   -.111E+00 0.380E-01 -.214E+00
   -.258E+00 -.640E+00 -.228E+03   0.185E+00 0.613E+00 0.228E+03   0.168E+00 -.442E-02 0.966E-01
   -.152E+01 -.665E-04 -.370E+03   0.190E+01 0.904E-04 0.370E+03   -.152E+00 0.874E-05 -.121E+00
   0.710E+01 0.382E-04 -.813E+03   -.838E+01 -.388E-04 0.813E+03   0.420E+00 -.892E-05 -.169E-01
   -.254E+02 0.343E+01 -.930E+03   0.267E+02 -.334E+01 0.931E+03   -.122E+00 -.118E+00 0.766E+00
   0.287E+01 0.234E+01 -.799E+03   -.315E+01 -.252E+01 0.799E+03   0.667E+00 -.138E-02 0.213E+00
   -.323E+02 -.107E-04 -.961E+03   0.331E+02 0.276E-04 0.959E+03   0.135E+00 -.859E-05 0.106E+01
   -.672E+01 -.278E-02 0.159E+04   0.119E+02 0.394E-02 -.161E+04   -.629E+01 -.203E-02 0.165E+02
   -.695E+01 -.334E-03 0.159E+04   0.121E+02 0.824E-03 -.161E+04   -.628E+01 0.337E-03 0.165E+02
   0.438E+02 0.344E-01 0.101E+04   -.486E+02 -.425E-01 -.100E+04   0.350E+01 0.759E-02 -.408E+01
   0.315E+02 -.201E-01 0.122E+04   -.388E+02 0.251E-01 -.122E+04   0.688E+01 -.709E-02 -.250E+01
   -.429E+02 -.587E-01 0.140E+04   0.503E+02 0.595E-01 -.140E+04   -.635E+01 -.391E-02 -.297E+00
   -.361E+02 -.524E+00 0.747E+03   0.418E+02 0.580E+00 -.751E+03   -.519E+01 -.458E-01 0.397E+01
   0.444E+02 0.625E-01 0.100E+04   -.491E+02 -.388E-01 -.100E+04   0.346E+01 -.245E-01 -.391E+01
   0.308E+02 0.545E-01 0.122E+04   -.381E+02 -.614E-01 -.122E+04   0.690E+01 0.122E-01 -.251E+01
   -.431E+02 0.308E-01 0.140E+04   0.504E+02 -.265E-01 -.140E+04   -.633E+01 -.894E-02 -.301E+00
   -.386E+02 0.164E+00 0.747E+03   0.446E+02 -.166E+00 -.751E+03   -.536E+01 -.302E-03 0.408E+01
   0.391E+02 -.233E+00 0.120E+03   -.458E+02 0.292E+00 -.115E+03   0.600E+01 -.546E-01 -.474E+01
   0.401E+02 0.801E-01 0.351E+03   -.469E+02 -.136E+00 -.348E+03   0.611E+01 0.479E-01 -.276E+01
   -.408E+02 -.558E-01 0.525E+03   0.475E+02 0.635E-01 -.528E+03   -.604E+01 -.134E-01 0.248E+01
   -.345E+02 0.849E+00 -.120E+03   0.393E+02 -.101E+01 0.114E+03   -.437E+01 0.145E+00 0.475E+01
   0.413E+02 0.119E+01 0.122E+03   -.475E+02 -.133E+01 -.118E+03   0.567E+01 0.124E+00 -.374E+01
   0.385E+02 0.102E+01 0.347E+03   -.451E+02 -.990E+00 -.344E+03   0.594E+01 -.370E-01 -.266E+01
   -.396E+02 0.258E+00 0.525E+03   0.462E+02 -.253E+00 -.528E+03   -.591E+01 -.609E-02 0.248E+01
   -.361E+02 0.116E+01 -.125E+03   0.414E+02 -.131E+01 0.119E+03   -.480E+01 0.135E+00 0.526E+01
   0.431E+02 0.411E+00 -.771E+03   -.494E+02 -.449E+00 0.779E+03   0.567E+01 0.306E-01 -.700E+01
   0.382E+02 -.834E+00 -.520E+03   -.452E+02 0.705E+00 0.523E+03   0.629E+01 0.112E+00 -.281E+01
   -.430E+02 0.418E+00 -.355E+03   0.496E+02 -.331E+00 0.352E+03   -.588E+01 -.944E-01 0.254E+01
   -.393E+02 -.334E+01 -.976E+03   0.414E+02 0.407E+01 0.965E+03   -.216E+01 -.647E+00 0.880E+01
   0.436E+02 -.451E+01 -.755E+03   -.500E+02 0.542E+01 0.761E+03   0.570E+01 -.831E+00 -.537E+01
   0.395E+02 0.163E+01 -.534E+03   -.461E+02 -.148E+01 0.537E+03   0.591E+01 -.187E+00 -.288E+01
   -.394E+02 0.135E-01 -.351E+03   0.458E+02 -.347E-01 0.348E+03   -.576E+01 0.487E-02 0.256E+01
   -.338E+02 -.113E+01 -.978E+03   0.351E+02 0.140E+01 0.968E+03   -.135E+01 -.258E+00 0.882E+01
   0.163E+02 -.654E+00 -.159E+04   -.217E+02 0.602E+00 0.161E+04   0.480E+01 0.347E-01 -.202E+02
   0.333E+02 0.601E+00 -.144E+04   -.383E+02 -.744E+00 0.145E+04   0.456E+01 0.175E+00 -.717E+01
   -.255E+02 -.107E+01 -.122E+04   0.302E+02 0.992E+00 0.122E+04   -.409E+01 -.141E-01 0.261E+01
   0.169E+02 0.263E+00 -.158E+04   -.235E+02 -.149E+01 0.161E+04   0.593E+01 0.120E+01 -.198E+02
   0.291E+02 0.962E+00 -.143E+04   -.338E+02 -.491E+00 0.144E+04   0.411E+01 -.911E+00 -.582E+01
   -.293E+02 -.820E-01 -.121E+04   0.350E+02 -.325E+00 0.121E+04   -.519E+01 0.354E+00 0.273E+01
   -.675E+01 -.442E-04 0.159E+04   0.119E+02 0.820E-06 -.161E+04   -.628E+01 0.349E-04 0.165E+02
   -.695E+01 0.323E-03 0.159E+04   0.121E+02 -.822E-03 -.161E+04   -.628E+01 -.367E-03 0.165E+02
   0.438E+02 -.344E-01 0.101E+04   -.486E+02 0.425E-01 -.100E+04   0.350E+01 -.763E-02 -.408E+01
   0.315E+02 0.200E-01 0.122E+04   -.388E+02 -.251E-01 -.122E+04   0.688E+01 0.708E-02 -.250E+01
   -.429E+02 -.291E-04 0.140E+04   0.503E+02 0.429E-05 -.140E+04   -.635E+01 0.452E-05 -.305E+00
   -.366E+02 -.814E-04 0.747E+03   0.423E+02 0.515E-04 -.751E+03   -.523E+01 -.776E-05 0.404E+01
   0.442E+02 -.226E-04 0.100E+04   -.489E+02 0.217E-05 -.100E+04   0.345E+01 -.106E-04 -.404E+01
   0.310E+02 -.101E-03 0.122E+04   -.382E+02 -.204E-06 -.122E+04   0.689E+01 -.108E-04 -.249E+01
   -.431E+02 -.308E-01 0.140E+04   0.504E+02 0.265E-01 -.140E+04   -.633E+01 0.893E-02 -.301E+00
   -.386E+02 -.164E+00 0.747E+03   0.446E+02 0.166E+00 -.751E+03   -.536E+01 0.323E-03 0.408E+01
   0.391E+02 0.233E+00 0.120E+03   -.458E+02 -.292E+00 -.115E+03   0.600E+01 0.546E-01 -.474E+01
   0.401E+02 -.799E-01 0.351E+03   -.469E+02 0.136E+00 -.348E+03   0.611E+01 -.479E-01 -.276E+01
   -.400E+02 -.388E-04 0.526E+03   0.466E+02 0.108E-03 -.528E+03   -.590E+01 0.214E-05 0.251E+01
   -.350E+02 -.388E-04 -.122E+03   0.401E+02 0.464E-04 0.116E+03   -.463E+01 -.157E-04 0.504E+01
   0.402E+02 -.291E-04 0.122E+03   -.466E+02 0.208E-04 -.117E+03   0.576E+01 0.262E-04 -.447E+01
   0.386E+02 0.841E-04 0.347E+03   -.452E+02 -.477E-04 -.344E+03   0.595E+01 -.386E-05 -.285E+01
   -.396E+02 -.258E+00 0.525E+03   0.462E+02 0.253E+00 -.528E+03   -.591E+01 0.612E-02 0.248E+01
   -.361E+02 -.116E+01 -.125E+03   0.414E+02 0.131E+01 0.119E+03   -.480E+01 -.135E+00 0.526E+01
   0.431E+02 -.411E+00 -.771E+03   -.494E+02 0.449E+00 0.779E+03   0.567E+01 -.305E-01 -.700E+01
   0.382E+02 0.834E+00 -.520E+03   -.452E+02 -.705E+00 0.523E+03   0.629E+01 -.112E+00 -.281E+01
   -.419E+02 0.147E-03 -.359E+03   0.481E+02 -.107E-03 0.356E+03   -.562E+01 -.563E-05 0.226E+01
   -.375E+02 0.318E-04 -.977E+03   0.393E+02 -.151E-04 0.966E+03   -.184E+01 0.118E-04 0.894E+01
   0.432E+02 -.107E-03 -.764E+03   -.496E+02 0.404E-04 0.772E+03   0.573E+01 0.457E-04 -.700E+01
   0.394E+02 -.193E-03 -.528E+03   -.460E+02 0.212E-03 0.531E+03   0.591E+01 0.157E-04 -.293E+01
   -.394E+02 -.135E-01 -.351E+03   0.458E+02 0.346E-01 0.348E+03   -.576E+01 -.488E-02 0.256E+01
   -.338E+02 0.113E+01 -.978E+03   0.351E+02 -.140E+01 0.968E+03   -.135E+01 0.258E+00 0.882E+01
   0.163E+02 0.654E+00 -.159E+04   -.217E+02 -.602E+00 0.161E+04   0.480E+01 -.347E-01 -.202E+02
   0.333E+02 -.601E+00 -.144E+04   -.383E+02 0.744E+00 0.145E+04   0.456E+01 -.175E+00 -.717E+01
   -.264E+02 -.954E-04 -.122E+04   0.321E+02 0.849E-04 0.122E+04   -.517E+01 0.226E-04 0.282E+01
   0.158E+02 -.261E-05 -.159E+04   -.215E+02 -.699E-04 0.161E+04   0.500E+01 0.582E-04 -.203E+02
   0.288E+02 -.994E-04 -.144E+04   -.332E+02 0.907E-04 0.145E+04   0.392E+01 0.221E-04 -.761E+01
   -.293E+02 0.819E-01 -.121E+04   0.350E+02 0.325E+00 0.121E+04   -.519E+01 -.354E+00 0.273E+01
   -.672E+01 0.283E-02 0.159E+04   0.119E+02 -.394E-02 -.161E+04   -.629E+01 0.202E-02 0.165E+02
   -.698E+01 0.685E-04 0.159E+04   0.122E+02 -.157E-05 -.161E+04   -.629E+01 -.142E-04 0.165E+02
   0.438E+02 0.236E-04 0.101E+04   -.487E+02 -.110E-04 -.100E+04   0.360E+01 0.173E-04 -.405E+01
   0.316E+02 0.621E-04 0.122E+04   -.389E+02 -.578E-06 -.122E+04   0.687E+01 -.370E-04 -.250E+01
   -.429E+02 0.588E-01 0.140E+04   0.503E+02 -.595E-01 -.140E+04   -.635E+01 0.394E-02 -.297E+00
   -.361E+02 0.524E+00 0.747E+03   0.418E+02 -.580E+00 -.751E+03   -.519E+01 0.458E-01 0.397E+01
   0.444E+02 -.625E-01 0.100E+04   -.491E+02 0.388E-01 -.100E+04   0.346E+01 0.245E-01 -.391E+01
   0.308E+02 -.544E-01 0.122E+04   -.381E+02 0.614E-01 -.122E+04   0.690E+01 -.122E-01 -.251E+01
   -.430E+02 0.234E-04 0.140E+04   0.504E+02 -.103E-05 -.140E+04   -.632E+01 -.237E-04 -.317E+00
   -.410E+02 -.269E-04 0.745E+03   0.479E+02 0.824E-05 -.749E+03   -.616E+01 0.683E-05 0.385E+01
   0.394E+02 0.384E-04 0.119E+03   -.468E+02 -.840E-05 -.113E+03   0.667E+01 0.180E-06 -.479E+01
   0.394E+02 -.784E-04 0.354E+03   -.458E+02 0.146E-03 -.352E+03   0.581E+01 0.143E-04 -.248E+01
   -.408E+02 0.558E-01 0.525E+03   0.475E+02 -.635E-01 -.528E+03   -.604E+01 0.134E-01 0.248E+01
   -.345E+02 -.849E+00 -.120E+03   0.393E+02 0.101E+01 0.114E+03   -.437E+01 -.145E+00 0.475E+01
   0.413E+02 -.119E+01 0.122E+03   -.475E+02 0.133E+01 -.118E+03   0.567E+01 -.124E+00 -.374E+01
   0.385E+02 -.102E+01 0.347E+03   -.451E+02 0.990E+00 -.344E+03   0.594E+01 0.370E-01 -.266E+01
   -.380E+02 -.265E-04 0.525E+03   0.442E+02 0.393E-04 -.527E+03   -.561E+01 -.150E-04 0.253E+01
   -.403E+02 0.166E-04 -.133E+03   0.474E+02 0.212E-04 0.128E+03   -.634E+01 -.286E-04 0.445E+01
   0.426E+02 0.946E-05 -.773E+03   -.499E+02 -.818E-05 0.781E+03   0.663E+01 0.134E-04 -.686E+01
   0.360E+02 0.589E-04 -.525E+03   -.421E+02 -.358E-04 0.528E+03   0.554E+01 -.491E-05 -.299E+01
   -.430E+02 -.418E+00 -.355E+03   0.496E+02 0.331E+00 0.352E+03   -.588E+01 0.944E-01 0.254E+01
   -.393E+02 0.334E+01 -.976E+03   0.414E+02 -.407E+01 0.965E+03   -.216E+01 0.647E+00 0.880E+01
   0.436E+02 0.451E+01 -.755E+03   -.500E+02 -.542E+01 0.761E+03   0.570E+01 0.831E+00 -.537E+01
   0.395E+02 -.163E+01 -.534E+03   -.461E+02 0.148E+01 0.537E+03   0.591E+01 0.187E+00 -.288E+01
   -.375E+02 -.262E-04 -.362E+03   0.438E+02 0.304E-04 0.359E+03   -.570E+01 0.235E-05 0.203E+01
   -.378E+02 0.875E-04 -.996E+03   0.425E+02 -.686E-04 0.988E+03   -.398E+01 0.498E-05 0.761E+01
   0.192E+02 -.407E-05 -.159E+04   -.262E+02 -.445E-04 0.161E+04   0.663E+01 0.249E-04 -.193E+02
   0.295E+02 -.827E-04 -.143E+04   -.337E+02 0.758E-04 0.144E+04   0.391E+01 0.412E-04 -.689E+01
   -.255E+02 0.107E+01 -.122E+04   0.302E+02 -.993E+00 0.122E+04   -.409E+01 0.141E-01 0.261E+01
   0.169E+02 -.263E+00 -.158E+04   -.235E+02 0.149E+01 0.161E+04   0.593E+01 -.120E+01 -.198E+02
   0.291E+02 -.962E+00 -.143E+04   -.338E+02 0.491E+00 0.144E+04   0.411E+01 0.911E+00 -.582E+01
   -.199E+02 0.226E-03 -.118E+04   0.236E+02 -.273E-03 0.117E+04   -.370E+01 0.366E-04 0.571E+01
 -----------------------------------------------------------------------------------------------
   -.191E+02 -.369E-03 0.649E+02   0.227E-12 -.274E-12 0.182E-11   0.206E+02 0.326E-03 -.587E+02


 POSITION                                       TOTAL-FORCE (eV/Angst)
 -----------------------------------------------------------------------------------
      8.34884      9.49429      8.23481         4.263443      0.004601      2.163851
      6.11976      7.59543      9.11755        -1.864711      0.004039     -2.079019
      3.19154      7.59543      8.23481         4.227888     -0.001110      2.138966
      0.96247      9.49429      9.11755        -1.909319     -0.002807     -2.084821
      9.76032      9.49572     11.80421        -0.019236      0.006822      0.022209
      7.51048      7.59089     12.60343         0.003836      0.002667      0.012120
      4.59548      7.59265     11.79965        -0.010398      0.003363      0.018210
      2.34187      9.49368     12.61721        -0.009769      0.010447      0.002175
      0.90121      9.49740     15.37382        -0.024499      0.014042      0.029877
      8.93977      7.59129     16.07323         0.031748      0.014615      0.100468
      6.04052      7.59407     15.34333         0.041405      0.030717      0.012164
      3.76824      9.49505     16.11113        -0.015716      0.036734     -0.003973
      2.39202      9.48665     19.01808        -0.124882      0.035363     -0.023561
      0.01130      7.58443     19.55930        -0.274908     -0.047248      0.187966
      7.52709      7.58465     18.91269         0.499679      0.084018      0.483865
      5.20044      9.50432     19.56267         0.160754      0.163865     -0.046799
      8.34884      1.89886      8.23481         4.263481     -0.004649      2.163814
      6.11976      0.00000      9.11755        -1.891673      0.000002     -2.074372
      3.19154      0.00000      8.23481         4.256345     -0.000015      2.157030
      0.96247      1.89886      9.11755        -1.909369      0.002806     -2.084855
      9.76032      1.89743     11.80421        -0.019199     -0.006848      0.022285
      7.50286     11.39315     12.60920        -0.003330      0.000023      0.007010
      4.59807     11.39315     11.80393        -0.009329      0.000023      0.021369
      2.34187      1.89947     12.61721        -0.009806     -0.010449      0.002206
      0.90121      1.89575     15.37382        -0.024491     -0.014035      0.029854
      8.92461     11.39315     16.09291         0.010243      0.000010      0.042422
      6.04796     11.39315     15.36053         0.017028     -0.000012      0.028998
      3.76824      1.89810     16.11113        -0.015783     -0.036752     -0.004000
      2.39202      1.90650     19.01808        -0.124925     -0.035339     -0.023597
      0.03699     11.39315     19.56106         0.118502     -0.000017     -0.026156
      7.55910      0.00000     18.99047         0.037823     -0.000061     -0.002955
      5.20045      1.88883     19.56267         0.160721     -0.163830     -0.046782
      8.34884      5.69658      8.23481         4.268600      0.000038      2.152808
      6.11976      3.79772      9.11755        -1.864748     -0.003988     -2.079018
      3.19154      3.79772      8.23481         4.227945      0.001120      2.138981
      0.96247      5.69658      9.11755        -1.874166      0.000014     -2.019160
      9.77453      5.69658     11.79842        -0.028461      0.000022      0.002517
      7.51047      3.80226     12.60343         0.003842     -0.002698      0.012121
      4.59549      3.80050     11.79965        -0.010440     -0.003382      0.018214
      2.34404      5.69658     12.64689        -0.004364      0.000003     -0.053058
      0.92911      5.69657     15.38053        -0.090191      0.000026     -0.039782
      8.93977      3.80186     16.07323         0.031751     -0.014611      0.100444
      6.04052      3.79908     15.34333         0.041429     -0.030681      0.012155
      3.78842      5.69657     16.19536        -0.073782      0.000030     -0.344625
      2.42617      5.69658     19.03127        -0.524459     -0.000009     -0.213085
      0.01130      3.80872     19.55930        -0.274857      0.047268      0.187942
      7.52709      3.80850     18.91270         0.499695     -0.083960      0.483849
      5.22291      5.69658     19.73310        -0.660129      0.000009     -2.170051
      5.04710      7.59543      7.50000        -2.105533     -0.001373      1.580450
     10.20440      9.49429      7.50000        -2.097540      0.001055      1.574606
      9.42150      9.49429      9.85236        -0.814640      0.000766     -0.330479
      6.49329      9.49429      8.96963         0.654880     -0.003360     -0.185312
      7.97532      7.59543      8.38273         0.077884     -0.003959     -1.067862
      6.44538      7.59543     11.03093        -0.305389      0.002934      0.536408
      4.26421      7.59543      9.85236        -0.824868     -0.004598     -0.312352
      1.33599      7.59543      8.96963         0.667694      0.007494     -0.192448
      2.81802      9.49429      8.38273         0.089538     -0.006170     -1.070744
      1.28808      9.49429     11.03093        -0.215175     -0.002042      0.609785
      0.52718      9.49769     13.40174         0.247873     -0.003478     -0.145523
      7.89763      9.49362     12.49523         0.247301     -0.000372     -0.108118
      9.38894      7.59496     11.92091        -0.243085     -0.008324      0.091877
      7.88531      7.58536     14.52909        -0.248683      0.001282      0.084770
      5.68044      7.58712     13.39912         0.231147      0.004785     -0.124460
      2.73793      7.59395     12.50842         0.237394     -0.015584     -0.102890
      4.22257      9.49273     11.92054        -0.246284     -0.001617      0.091121
      2.72899      9.48908     14.55251        -0.218812      0.004301      0.117169
      2.00333      9.49073     16.95654         0.237498     -0.003372     -0.229041
      9.33970      9.49627     15.99863         0.243320      0.000216     -0.102713
      0.53543      7.59349     15.45598        -0.216969     -0.022609      0.092909
      9.42158      7.61230     18.02154        -0.332418     -0.015198     -0.178917
      7.17353      7.62922     16.91498         0.173771     -0.045016     -0.235987
      4.18823      7.59363     16.04910         0.210341     -0.071419     -0.075271
      5.67090      9.49441     15.44524        -0.245695     -0.016074      0.102819
      4.25225      9.50782     18.04979        -0.238815     -0.016399     -0.006228
      3.58912      9.48949     20.44190         0.062663     -0.011439     -0.278835
      0.54012      9.48633     19.78331         0.249826      0.060026     -0.187730
      2.00810      7.59112     19.03983        -0.037881     -0.101746      0.088206
      8.68983      7.52519     20.40766         0.252301      0.154416     -0.816228
      5.72609      7.61306     19.76714         0.026027     -0.596699      0.153776
      7.17087      9.49875     18.98337        -0.279038     -0.001327      0.097485
      5.04710      0.00000      7.50000        -2.102213     -0.000005      1.575258
     10.20440      1.89886      7.50000        -2.097581     -0.001102      1.574539
      9.42150      1.89886      9.85236        -0.814667     -0.000848     -0.330414
      6.49329      1.89886      8.96963         0.654918      0.003273     -0.185286
      7.97532      0.00000      8.38273         0.081826     -0.000020     -1.070716
      6.44538      0.00000     11.03093        -0.277988     -0.000040      0.546145
      4.26421      0.00000      9.85236        -0.824281     -0.000034     -0.322615
      1.33599      0.00000      8.96963         0.660873     -0.000119     -0.185557
      2.81802      1.89886      8.38273         0.089639      0.006171     -1.070737
      1.28808      1.89886     11.03093        -0.215192      0.002038      0.609965
      0.52718      1.89546     13.40174         0.247859      0.003481     -0.145576
      7.89763      1.89953     12.49523         0.247298      0.000296     -0.108135
      9.38414     11.39315     11.91959        -0.238271      0.000076      0.090105
      7.88134     11.39315     14.53923        -0.243924     -0.000011      0.088641
      5.68123     11.39315     13.39707         0.236970      0.000023     -0.139954
      2.73910     11.39315     12.50738         0.238561      0.000035     -0.110355
      4.22257      1.90042     11.92054        -0.246308      0.001607      0.091123
      2.72899      1.90407     14.55251        -0.218837     -0.004289      0.117178
      2.00333      1.90242     16.95654         0.237506      0.003326     -0.229059
      9.33970      1.89688     15.99863         0.243352     -0.000227     -0.102704
      0.53499     11.39315     15.46423        -0.225000      0.000034      0.087101
      9.41808     11.39315     18.03649        -0.282589      0.000030     -0.048413
      7.16437     11.39315     16.93404         0.212557     -0.000012     -0.250820
      4.17952     11.39315     16.02641         0.216476      0.000040     -0.090057
      5.67091      1.89874     15.44524        -0.245697      0.016041      0.102851
      4.25225      1.88533     18.04979        -0.238803      0.016388     -0.006196
      3.58912      1.90366     20.44190         0.062735      0.011411     -0.278828
      0.54012      1.90682     19.78331         0.249864     -0.060036     -0.187729
      2.00896     11.39315     19.03393        -0.166576      0.000017      0.098721
      8.73723     11.39315     20.43082         0.027979     -0.000006     -0.324855
      5.72265      0.00000     19.79197         0.117581      0.000017     -0.173843
      7.17087      1.89440     18.98337        -0.279045      0.001367      0.097513
      5.04710      3.79772      7.50000        -2.105595      0.001400      1.580402
     10.20440      5.69658      7.50000        -2.113001      0.000052      1.563819
      9.42150      5.69658      9.85236        -0.826173      0.000034     -0.338860
      6.49329      5.69658      8.96963         0.652390      0.000019     -0.185195
      7.97532      3.79772      8.38273         0.077913      0.004027     -1.067945
      6.44538      3.79772     11.03093        -0.305386     -0.002891      0.536424
      4.26421      3.79772      9.85236        -0.824923      0.004606     -0.312392
      1.33599      3.79772      8.96963         0.667718     -0.007391     -0.192476
      2.81802      5.69658      8.38273         0.094633     -0.000008     -1.075890
      1.28808      5.69658     11.03093        -0.169292     -0.000011      0.743273
      0.53228      5.69658     13.40822         0.279151      0.000030     -0.119806
      7.89925      5.69657     12.48519         0.244204      0.000088     -0.101822
      9.38894      3.79819     11.92091        -0.243013      0.008262      0.091895
      7.88531      3.80779     14.52909        -0.248654     -0.001271      0.084823
      5.68044      3.80603     13.39912         0.231128     -0.004773     -0.124454
      2.73793      3.79920     12.50842         0.237375      0.015519     -0.102875
      4.22171      5.69658     11.92042        -0.246163     -0.000005      0.100895
      2.74100      5.69657     14.58021        -0.181891      0.000003      0.216822
      2.00618      5.69658     16.97708         0.367389      0.000018     -0.105175
      9.34281      5.69658     16.01751         0.250499      0.000018     -0.118772
      0.53542      3.79966     15.45598        -0.216934      0.022557      0.092873
      9.42158      3.78085     18.02154        -0.332446      0.015198     -0.178878
      7.17353      3.76393     16.91498         0.173747      0.045000     -0.235905
      4.18823      3.79953     16.04910         0.210314      0.071350     -0.075303
      5.68635      5.69658     15.48285        -0.275688      0.000008      0.113831
      4.26214      5.69658     18.12642         0.138925      0.000025      0.857916
      3.56964      5.69658     20.50190         0.548008     -0.000019      0.009971
      0.53879      5.69657     19.77433         0.367192      0.000043     -0.222255
      2.00810      3.80203     19.03983        -0.037890      0.101714      0.088183
      8.68983      3.86796     20.40766         0.252238     -0.154422     -0.816223
      5.72609      3.78009     19.76714         0.026052      0.596622      0.153817
      7.14452      5.69658     18.86946        -0.538699     -0.000006      0.615530
 -----------------------------------------------------------------------------------
    total drift:                                0.049491     -0.000017      0.031819


--------------------------------------------------------------------------------------------------------



  FREE ENERGIE OF THE ION-ELECTRON SYSTEM (eV)
  ---------------------------------------------------
  free  energy   TOTEN  =     -1569.91167133 eV

  energy  without entropy=    -1569.91167133  energy(sigma->0) =    -1569.91167133



--------------------------------------------------------------------------------------------------------


    POTLOK:  cpu time      0.8995: real time      0.8998


--------------------------------------------------------------------------------------------------------


     LOOP+:  cpu time   3133.0201: real time   3134.9424
    4ORBIT:  cpu time      0.0000: real time      0.0000

 total amount of memory used by VASP MPI-rank0   155637. kBytes
=======================================================================

   base      :      30000. kBytes
   nonl-proj :      19622. kBytes
   fftplans  :       3479. kBytes
   grid      :       3946. kBytes
   one-center:         97. kBytes
   HF        :         90. kBytes
   nonlr-proj:      34382. kBytes
   wavefun   :      20505. kBytes
   fock_wrk  :      43516. kBytes

  
  
 General timing and accounting informations for this job:
 ========================================================
  
                  Total CPU time used (sec):     3184.068
                            User time (sec):     3165.399
                          System time (sec):       18.669
                         Elapsed time (sec):     3190.926
  
                   Maximum memory used (kb):      449988.
                   Average memory used (kb):          N/A
  
                          Minor page faults:       444322
                          Major page faults:          471
                 Voluntary context switches:        10688
