 vasp.6.3.0 20Jan22 (build Apr  1 2022 16:44:48) complex                         
 executed on        HPECrayEX_GCC date 2023.02.23  08:43:01
 running  512 mpi-ranks, with    1 threads/rank
 distrk:  each k-point on  512 cores,    1 groups
 distr:  one band on NCORE=   8 cores,   64 groups


--------------------------------------------------------------------------------------------------------


 INCAR:
   SYSTEM = MgO-rocksalt
   ISMEAR = 0
   SIGMA = 0.05
   EDIFF = 1E-6
   ALGO = ALL
   ISTART = 0
   IBRION = -1
   NSW = 0
   ISYM = 0
   DIPOL = 0.5 0.5 0.5
   IDIPOL = 3
   LDIPOL = .TRUE.
   LHFCALC = .TRUE.
   GGA = PE
   IVDW = 13
   VDW_S8 = 1.2007
   VDW_A1 = 0.4009
   VDW_A2 = 5.0293
   ENCUT = 600
   PREC = Accurate
   LASPH = .TRUE.
   LREAL = .FALSE.
   ISPIN = 1
   NELM = 200
   NELMIN = 8
   NCORE = 8
   KPAR = 1
   LWAVE = .FALSE.
   LCHARG = .FALSE.

 POTCAR:    PAW_PBE Mg_pv 13Apr2007               
 POTCAR:    PAW_PBE O 08Apr2002                   
 POTCAR:    PAW_PBE Mg_pv 13Apr2007               
   SHA256 =  f474ac0dd33840b9ae76c01d57fea79fdf77cdfbb07d5ade72c65f83c709b62b Mg_pv/POTCAR          
   COPYR  = (c) Copyright 13Apr2007 Georg Kresse                                                    
   COPYR  = This file is part of the software VASP. Any use, copying, and all other rights are regul
   COPYR  = If you do not have a valid VASP license, you may not use, copy or distribute this file. 
   VRHFIN =Mg: p6s2                                                                                 
   LEXCH  = PE                                                                                      
   EATOM  =  1056.7344 eV,   77.6678 Ry                                                             
                                                                                                    
   TITEL  = PAW_PBE Mg_pv 13Apr2007                                                                 
   LULTRA =        F    use ultrasoft PP ?                                                          
   IUNSCR =        1    unscreen: 0-lin 1-nonlin 2-no                                               
   RPACOR =    1.500    partial core radius                                                         
   POMASS =   24.305; ZVAL   =    8.000    mass and valenz                                          
   RCORE  =    2.000    outmost cutoff radius                                                       
   RWIGS  =    2.000; RWIGS  =    1.058    wigner-seitz radius (au A)                               
   ENMAX  =  403.929; ENMIN  =  302.947 eV                                                          
   RCLOC  =    1.506    cutoff for local pot                                                        
   LCOR   =        T    correct aug charges                                                         
   LPAW   =        T    paw PP                                                                      
   EAUG   =  758.780                                                                                
   DEXC   =    0.000                                                                                
   RMAX   =    2.045    core radius for proj-oper                                                   
   RAUG   =    1.300    factor for augmentation sphere                                              
   RDEP   =    2.025    radius for radial grids                                                     
   RDEPT  =    1.557    core radius for aug-charge                                                  
                                                                                                    
   Atomic configuration                                                                             
    5 entries                                                                                       
     n  l   j            E        occ.                                                              
     1  0  0.50     -1259.6230   2.0000                                                             
     2  0  0.50       -79.8442   2.0000                                                             
     2  1  1.50       -46.6121   6.0000                                                             
     3  0  0.50        -4.7055   2.0000                                                             
     3  2  1.50        -1.3606   0.0000                                                             
   Description                                                                                      
     l       E           TYP  RCUT    TYP  RCUT                                                     
     1    -46.6121073     23  1.600                                                                 
     1      2.7211652     23  1.600                                                                 
     0     -4.7054661     23  2.000                                                                 
     0     61.2262170     23  2.000                                                                 
     2     -1.3605826     23  2.000                                                                 
  local pseudopotential read in
  partial core-charges read in
  partial kinetic energy density read in
  atomic valenz-charges read in
  non local Contribution for L=           1  read in
    real space projection operators read in
  non local Contribution for L=           1  read in
    real space projection operators read in
  non local Contribution for L=           0  read in
    real space projection operators read in
  non local Contribution for L=           0  read in
    real space projection operators read in
  non local Contribution for L=           2  read in
    real space projection operators read in
    PAW grid and wavefunctions read in

   number of l-projection  operators is LMAX  =           5
   number of lm-projection operators is LMMAX =          13

 POTCAR:    PAW_PBE O 08Apr2002                   
   SHA256 =  818f92134a0a090dccd8ba1447fa70422a3b330e708bb4f08108d8ae51209ddf O/POTCAR              
   COPYR  = (c) Copyright 08Apr2002 Georg Kresse                                                    
   COPYR  = This file is part of the software VASP. Any use, copying, and all other rights are regul
   COPYR  = If you do not have a valid VASP license, you may not use, copy or distribute this file. 
   VRHFIN =O: s2p4                                                                                  
   LEXCH  = PE                                                                                      
   EATOM  =   432.3788 eV,   31.7789 Ry                                                             
                                                                                                    
   TITEL  = PAW_PBE O 08Apr2002                                                                     
   LULTRA =        F    use ultrasoft PP ?                                                          
   IUNSCR =        1    unscreen: 0-lin 1-nonlin 2-no                                               
   RPACOR =    1.200    partial core radius                                                         
   POMASS =   16.000; ZVAL   =    6.000    mass and valenz                                          
   RCORE  =    1.520    outmost cutoff radius                                                       
   RWIGS  =    1.550; RWIGS  =    0.820    wigner-seitz radius (au A)                               
   ENMAX  =  400.000; ENMIN  =  300.000 eV                                                          
   ICORE  =        2    local potential                                                             
   LCOR   =        T    correct aug charges                                                         
   LPAW   =        T    paw PP                                                                      
   EAUG   =  605.392                                                                                
   DEXC   =    0.000                                                                                
   RMAX   =    1.553    core radius for proj-oper                                                   
   RAUG   =    1.300    factor for augmentation sphere                                              
   RDEP   =    1.550    radius for radial grids                                                     
   RDEPT  =    1.329    core radius for aug-charge                                                  
                                                                                                    
   Atomic configuration                                                                             
    4 entries                                                                                       
     n  l   j            E        occ.                                                              
     1  0  0.50      -514.6923   2.0000                                                             
     2  0  0.50       -23.9615   2.0000                                                             
     2  1  0.50        -9.0305   4.0000                                                             
     3  2  1.50        -9.5241   0.0000                                                             
   Description                                                                                      
     l       E           TYP  RCUT    TYP  RCUT                                                     
     0    -23.9615318     23  1.200                                                                 
     0     -9.5240782     23  1.200                                                                 
     1     -9.0304911     23  1.520                                                                 
     1      8.1634956     23  1.520                                                                 
     2     -9.5240782      7  1.500                                                                 
  local pseudopotential read in
  partial core-charges read in
  partial kinetic energy density read in
  kinetic energy density of atom read in
  atomic valenz-charges read in
  non local Contribution for L=           0  read in
    real space projection operators read in
  non local Contribution for L=           0  read in
    real space projection operators read in
  non local Contribution for L=           1  read in
    real space projection operators read in
  non local Contribution for L=           1  read in
    real space projection operators read in
    PAW grid and wavefunctions read in

   number of l-projection  operators is LMAX  =           4
   number of lm-projection operators is LMMAX =           8

 -----------------------------------------------------------------------------
|                                                                             |
|               ----> ADVICE to this user running VASP <----                  |
|                                                                             |
|     You have a (more or less) 'large supercell' and for larger cells it     |
|     might be more efficient to use real-space projection operators.         |
|     Therefore, try LREAL= Auto in the INCAR file.                           |
|     Mind: For very accurate calculation, you might also keep the            |
|     reciprocal projection scheme (i.e. LREAL=.FALSE.).                      |
|                                                                             |
 -----------------------------------------------------------------------------

  PAW_PBE Mg_pv 13Apr2007               :
 energy of atom  1       EATOM=-1056.7344
 kinetic energy error for atom=    0.0221 (will be added to EATOM!!)
  PAW_PBE O 08Apr2002                   :
 energy of atom  2       EATOM= -432.3788
 kinetic energy error for atom=    0.0168 (will be added to EATOM!!)


 POSCAR: Mg  O
  positions in direct lattice
  No initial velocities read in
 -----------------------------------------------------------------------------
|                                                                             |
|           W    W    AA    RRRRR   N    N  II  N    N   GGGG   !!!           |
|           W    W   A  A   R    R  NN   N  II  NN   N  G    G  !!!           |
|           W    W  A    A  R    R  N N  N  II  N N  N  G       !!!           |
|           W WW W  AAAAAA  RRRRR   N  N N  II  N  N N  G  GGG   !            |
|           WW  WW  A    A  R   R   N   NN  II  N   NN  G    G                |
|           W    W  A    A  R    R  N    N  II  N    N   GGGG   !!!           |
|                                                                             |
|     Specifying the vdW parameters                                           |
|     VDW_S8 = 1.201                                                          |
|     VDW_A1 = 0.401                                                          |
|     VDW_A2 = 5.029                                                          |
|     in the INCAR file will overwrite the defaults for pbe0. Please make     |
|     sure that is what you intended.                                         |
|                                                                             |
 -----------------------------------------------------------------------------

 exchange correlation table for  LEXCH =        8
   RHO(1)=    0.500       N(1)  =     2000
   RHO(2)=  100.500       N(2)  =     4000



--------------------------------------------------------------------------------------------------------


 ion  position               nearest neighbor table
   1  0.000  0.750  0.350-  33 2.14  35 2.14  36 2.14  43 2.14  52 2.14
   2  0.250  0.000  0.350-  34 2.14  35 2.14  36 2.14  44 2.14  51 2.14
   3  0.000  0.000  0.450-  35 2.14  34 2.14  33 2.14  41 2.14  50 2.14  39 2.14
   4  0.250  0.750  0.450-  36 2.14  34 2.14  33 2.14  42 2.14  49 2.14  40 2.14
   5  1.000  0.750  0.550-  47 2.13  40 2.14  56 2.14  39 2.14  33 2.14  37 2.17
   6  0.250  1.000  0.550-  55 2.13  40 2.14  48 2.14  39 2.14  34 2.14  38 2.17
   7  1.000  1.000  0.649-  39 2.12  54 2.13  38 2.13  37 2.13  45 2.13
   8  0.250  0.750  0.649-  40 2.11  37 2.13  38 2.13  46 2.14  53 2.14
   9  0.000  0.250  0.350-  41 2.14  35 2.14  43 2.14  44 2.14  60 2.14
  10  0.250  0.500  0.350-  42 2.14  36 2.14  43 2.14  44 2.14  59 2.14
  11  0.000  0.500  0.450-  43 2.14  41 2.14  42 2.14  33 2.14  58 2.14  47 2.14
  12  0.250  0.250  0.450-  44 2.14  41 2.14  42 2.14  34 2.14  57 2.14  48 2.14
  13  1.000  0.250  0.550-  47 2.13  48 2.14  64 2.14  39 2.14  41 2.14  45 2.17
  14  0.252  0.500  0.551-  63 2.12  40 2.14  48 2.14  47 2.15  42 2.16  46 2.16
  15  0.000  0.500  0.649-  62 2.11  46 2.11  47 2.12  45 2.14  37 2.14
  16  0.250  0.249  0.649-  48 2.11  38 2.13  45 2.13  61 2.14  46 2.14
  17  0.500  0.750  0.350-  49 2.14  36 2.14  51 2.14  52 2.14  59 2.14
  18  0.750  0.000  0.350-  50 2.14  35 2.14  51 2.14  52 2.14  60 2.14
  19  0.500  0.000  0.450-  51 2.14  49 2.14  50 2.14  34 2.14  57 2.14  55 2.14
  20  0.750  0.750  0.450-  52 2.14  49 2.14  50 2.14  33 2.14  58 2.14  56 2.14
  21  0.500  0.748  0.551-  63 2.12  40 2.14  56 2.14  55 2.15  49 2.16  53 2.16
  22  0.750  1.000  0.550-  55 2.13  56 2.14  64 2.14  39 2.14  50 2.14  54 2.17
  23  0.500  0.000  0.649-  61 2.11  53 2.11  55 2.12  54 2.14  38 2.14
  24  0.750  0.750  0.649-  56 2.11  37 2.13  54 2.13  62 2.14  53 2.14
  25  0.500  0.250  0.350-  57 2.14  51 2.14  44 2.14  59 2.14  60 2.14
  26  0.750  0.500  0.350-  58 2.14  52 2.14  43 2.14  59 2.14  60 2.14
  27  0.500  0.500  0.450-  59 2.14  49 2.14  57 2.14  58 2.14  42 2.14  63 2.16
  28  0.750  0.250  0.450-  60 2.14  50 2.14  57 2.14  58 2.14  41 2.14  64 2.14
  29  0.500  0.251  0.551-  63 2.12  48 2.14  64 2.14  55 2.15  57 2.16  61 2.16
  30  0.748  0.500  0.551-  63 2.12  56 2.14  64 2.14  47 2.15  58 2.16  62 2.16
  31  0.500  0.499  0.657-  61 2.16  62 2.16  46 2.16  53 2.17
  32  0.750  0.249  0.649-  64 2.11  54 2.13  45 2.13  61 2.14  62 2.14
  33  0.000  0.750  0.450-   1 2.14   3 2.14   4 2.14  11 2.14  20 2.14   5 2.14
  34  0.250  0.000  0.450-   2 2.14   3 2.14   4 2.14  12 2.14  19 2.14   6 2.14
  35  0.000  0.000  0.350-   3 2.14   2 2.14   1 2.14   9 2.14  18 2.14
  36  0.250  0.750  0.350-   4 2.14   2 2.14   1 2.14  10 2.14  17 2.14
  37  1.000  0.751  0.651-   7 2.13  24 2.13   8 2.13  15 2.14   5 2.17
  38  0.249  1.000  0.651-   7 2.13  16 2.13   8 2.13  23 2.14   6 2.17
  39  1.000  1.000  0.550-   7 2.12   3 2.14   5 2.14   6 2.14  22 2.14  13 2.14
  40  0.250  0.750  0.550-   8 2.11   6 2.14   5 2.14  21 2.14  14 2.14   4 2.14
  41  0.000  0.250  0.450-   9 2.14   3 2.14  11 2.14  12 2.14  28 2.14  13 2.14
  42  0.250  0.500  0.450-  10 2.14   4 2.14  11 2.14  12 2.14  27 2.14  14 2.16
  43  0.000  0.500  0.350-  11 2.14   9 2.14  10 2.14   1 2.14  26 2.14
  44  0.250  0.250  0.350-  12 2.14   9 2.14  10 2.14   2 2.14  25 2.14
  45  1.000  0.249  0.652-   7 2.13  32 2.13  16 2.13  15 2.14  13 2.17
  46  0.247  0.500  0.652-  15 2.11  16 2.14   8 2.14  14 2.16  31 2.16
  47  0.000  0.500  0.550-  15 2.12   5 2.13  13 2.13  11 2.14  14 2.15  30 2.15
  48  0.250  0.250  0.550-  16 2.11  13 2.14   6 2.14  14 2.14  29 2.14  12 2.14
  49  0.500  0.750  0.450-  17 2.14   4 2.14  19 2.14  20 2.14  27 2.14  21 2.16
  50  0.750  0.000  0.450-  18 2.14   3 2.14  19 2.14  20 2.14  28 2.14  22 2.14
  51  0.500  0.000  0.350-  19 2.14  17 2.14  18 2.14   2 2.14  25 2.14
  52  0.750  0.750  0.350-  20 2.14  17 2.14  18 2.14   1 2.14  26 2.14
  53  0.500  0.753  0.652-  23 2.11  24 2.14   8 2.14  21 2.16  31 2.17
  54  0.751  1.000  0.651-   7 2.13  32 2.13  24 2.13  23 2.14  22 2.17
  55  0.500  1.000  0.550-  23 2.12   6 2.13  22 2.13  19 2.14  21 2.15  29 2.15
  56  0.750  0.750  0.550-  24 2.11  22 2.14   5 2.14  21 2.14  30 2.14  20 2.14
  57  0.500  0.250  0.450-  25 2.14  19 2.14  12 2.14  27 2.14  28 2.14  29 2.16
  58  0.750  0.500  0.450-  26 2.14  20 2.14  11 2.14  27 2.14  28 2.14  30 2.16
  59  0.500  0.500  0.350-  27 2.14  17 2.14  25 2.14  26 2.14  10 2.14
  60  0.750  0.250  0.350-  28 2.14  18 2.14  25 2.14  26 2.14   9 2.14
  61  0.500  0.247  0.652-  23 2.11  32 2.14  16 2.14  29 2.16  31 2.16
  62  0.753  0.500  0.652-  15 2.11  32 2.14  24 2.14  30 2.16  31 2.16
  63  0.500  0.500  0.551-  21 2.12  14 2.12  30 2.12  29 2.12  27 2.16
  64  0.750  0.250  0.550-  32 2.11  13 2.14  22 2.14  30 2.14  29 2.14  28 2.14


IMPORTANT INFORMATION: All symmetrisations will be switched off!
NOSYMM: (Re-)initialisation of all symmetry stuff for point group C_1.


----------------------------------------------------------------------------------------

                                     Primitive cell                                     

  volume of cell :    1563.6717

  direct lattice vectors                    reciprocal lattice vectors
     8.546113626  0.000000000  0.000000000     0.117012252  0.000000000  0.000000000
     0.000000000  8.546113626  0.000000000     0.000000000  0.117012252  0.000000000
     0.000000000  0.000000000 21.409585219     0.000000000  0.000000000  0.046708051

  length of vectors
     8.546113626  8.546113626 21.409585219     0.117012252  0.117012252  0.046708051

  position of ions in fractional coordinates (direct lattice)
     0.000000000  0.750000000  0.350310383
     0.250000000  0.000000000  0.350310383
     0.000000000  0.000000000  0.450103461
     0.250000000  0.750000000  0.450103461
     0.999999994  0.749572080  0.550067146
     0.250346608  0.999895963  0.550056130
     0.999999977  0.999862841  0.649015149
     0.249566527  0.750200457  0.648710131
     0.000000000  0.250000000  0.350310383
     0.250000000  0.500000000  0.350310383
     0.000000000  0.500000000  0.450103461
     0.250000000  0.250000000  0.450103461
     0.999999997  0.250270776  0.550043815
     0.251563977  0.499923985  0.550844194
     0.000000001  0.499860487  0.648873855
     0.249636081  0.249418926  0.648627018
     0.500000000  0.750000000  0.350310383
     0.750000000  0.000000000  0.350310383
     0.500000000  0.000000000  0.450103461
     0.750000000  0.750000000  0.450103461
     0.499999980  0.748360126  0.550869814
     0.749653357  0.999895958  0.550056137
     0.499999982  0.000005749  0.648869585
     0.750433446  0.750200476  0.648710096
     0.500000000  0.250000000  0.350310383
     0.750000000  0.500000000  0.350310383
     0.500000000  0.500000000  0.450103461
     0.750000000  0.250000000  0.450103461
     0.499999975  0.251481772  0.550816110
     0.748436019  0.499923987  0.550844225
     0.500000068  0.499401210  0.656816073
     0.750363897  0.249418900  0.648626989
     0.000000000  0.750000000  0.450103461
     0.250000000  0.000000000  0.450103461
     0.000000000  0.000000000  0.350310383
     0.250000000  0.750000000  0.350310383
     0.999999977  0.750549427  0.651475631
     0.249306243  0.999880692  0.651487381
     0.999999987  0.999914735  0.549906447
     0.249922324  0.750020047  0.550127284
     0.000000000  0.250000000  0.450103461
     0.250000000  0.500000000  0.450103461
     0.000000000  0.500000000  0.350310383
     0.250000000  0.250000000  0.350310383
     0.999999977  0.249179206  0.651501110
     0.247270654  0.499790350  0.651715755
     0.000000015  0.499926640  0.549953063
     0.249867204  0.249803207  0.550081319
     0.500000000  0.750000000  0.450103461
     0.750000000  0.000000000  0.450103461
     0.500000000  0.000000000  0.350310383
     0.750000000  0.750000000  0.350310383
     0.500000009  0.752699916  0.651860442
     0.750693715  0.999880691  0.651487379
     0.499999979  0.999883941  0.549952545
     0.750077648  0.750020060  0.550127276
     0.500000000  0.250000000  0.450103461
     0.750000000  0.500000000  0.450103461
     0.500000000  0.500000000  0.350310383
     0.750000000  0.250000000  0.350310383
     0.500000000  0.247176585  0.651592885
     0.752729396  0.499790355  0.651715722
     0.499999989  0.499961269  0.550842886
     0.750132768  0.249803194  0.550081315

  ion indices of the primitive-cell ions
   primitive index   ion index
                 1           1
                 2           2
                 3           3
                 4           4
                 5           5
                 6           6
                 7           7
                 8           8
                 9           9
                10          10
                11          11
                12          12
                13          13
                14          14
                15          15
                16          16
                17          17
                18          18
                19          19
                20          20
                21          21
                22          22
                23          23
                24          24
                25          25
                26          26
                27          27
                28          28
                29          29
                30          30
                31          31
                32          32
                33          33
                34          34
                35          35
                36          36
                37          37
                38          38
                39          39
                40          40
                41          41
                42          42
                43          43
                44          44
                45          45
                46          46
                47          47
                48          48
                49          49
                50          50
                51          51
                52          52
                53          53
                54          54
                55          55
                56          56
                57          57
                58          58
                59          59
                60          60
                61          61
                62          62
                63          63
                64          64

----------------------------------------------------------------------------------------



 KPOINTS: pymatgen v2020.8.13 with grid density = 

Automatic generation of k-mesh.
 Grid dimensions read from file:
 generate k-points for:    2    2    1

 Generating k-lattice:

  Cartesian coordinates                     Fractional coordinates (reciprocal lattice)
     0.058506126  0.000000000  0.000000000     0.500000000  0.000000000  0.000000000
     0.000000000  0.058506126  0.000000000     0.000000000  0.500000000  0.000000000
     0.000000000  0.000000000  0.046708051     0.000000000  0.000000000  1.000000000

  Length of vectors
     0.058506126  0.058506126  0.046708051

  Shift w.r.t. Gamma in fractional coordinates (k-lattice)
     0.000000000  0.000000000  0.000000000

 
 Subroutine IBZKPT returns following result:
 ===========================================
 
 Found      4 irreducible k-points:
 
 Following reciprocal coordinates:
            Coordinates               Weight
  0.000000  0.000000  0.000000      1.000000
  0.500000  0.000000  0.000000      1.000000
  0.000000  0.500000  0.000000      1.000000
  0.500000  0.500000  0.000000      1.000000
 
 Following cartesian coordinates:
            Coordinates               Weight
  0.000000  0.000000  0.000000      1.000000
  0.058506  0.000000  0.000000      1.000000
  0.000000  0.058506  0.000000      1.000000
  0.058506  0.058506  0.000000      1.000000
 
 
 Subroutine IBZKPT_HF returns following result:
 ==============================================
 
 Found      4 k-points in 1st BZ
 the following      4 k-points will be used (e.g. in the exchange kernel)
 Following reciprocal coordinates:   # in IRBZ
  0.000000  0.000000  0.000000    0.25000000   1 t-inv F
  0.500000  0.000000  0.000000    0.25000000   2 t-inv F
  0.000000  0.500000  0.000000    0.25000000   3 t-inv F
  0.500000  0.500000  0.000000    0.25000000   4 t-inv F


--------------------------------------------------------------------------------------------------------




 Dimension of arrays:
   k-points           NKPTS =      4   k-points in BZ     NKDIM =      4   number of bands    NBANDS=    320
   number of dos      NEDOS =    301   number of ions     NIONS =     64
   non local maximal  LDIM  =      5   non local SUM 2l+1 LMDIM =     13
   total plane-waves  NPLWV = 882000
   max r-space proj   IRMAX =      1   max aug-charges    IRDMAX=  11315
   dimension x,y,z NGX =    70 NGY =   70 NGZ =  180
   dimension x,y,z NGXF=   140 NGYF=  140 NGZF=  360
   support grid    NGXF=   140 NGYF=  140 NGZF=  360
   ions per type =              32  32
   NGX,Y,Z   is equivalent  to a cutoff of  13.62, 13.62, 13.98 a.u.
   NGXF,Y,Z  is equivalent  to a cutoff of  27.23, 27.23, 27.95 a.u.

 SYSTEM =  MgO-rocksalt                            
 POSCAR =  Mg  O                                   

--------------------------------------------------------------------------------------------------------


  energy-cutoff  :      600.00
  volume of cell :     1563.67
      direct lattice vectors                 reciprocal lattice vectors
     8.546113626  0.000000000  0.000000000     0.117012252  0.000000000  0.000000000
     0.000000000  8.546113626  0.000000000     0.000000000  0.117012252  0.000000000
     0.000000000  0.000000000 21.409585219     0.000000000  0.000000000  0.046708051

  length of vectors
     8.546113626  8.546113626 21.409585219     0.117012252  0.117012252  0.046708051



 k-points in units of 2pi/SCALE and weight: pymatgen v2020.8.13 with grid density = 
   0.00000000  0.00000000  0.00000000       0.250
   0.05850613  0.00000000  0.00000000       0.250
   0.00000000  0.05850613  0.00000000       0.250
   0.05850613  0.05850613  0.00000000       0.250

 k-points in reciprocal lattice and weights: pymatgen v2020.8.13 with grid density = 
   0.00000000  0.00000000  0.00000000       0.250
   0.50000000  0.00000000  0.00000000       0.250
   0.00000000  0.50000000  0.00000000       0.250
   0.50000000  0.50000000  0.00000000       0.250

 position of ions in fractional coordinates (direct lattice) 
   0.00000000  0.75000000  0.35031038
   0.25000000  0.00000000  0.35031038
   0.00000000  0.00000000  0.45010346
   0.25000000  0.75000000  0.45010346
   0.99999999  0.74957208  0.55006715
   0.25034661  0.99989596  0.55005613
   0.99999998  0.99986284  0.64901515
   0.24956653  0.75020046  0.64871013
   0.00000000  0.25000000  0.35031038
   0.25000000  0.50000000  0.35031038
   0.00000000  0.50000000  0.45010346
   0.25000000  0.25000000  0.45010346
   1.00000000  0.25027078  0.55004382
   0.25156398  0.49992398  0.55084419
   0.00000000  0.49986049  0.64887385
   0.24963608  0.24941893  0.64862702
   0.50000000  0.75000000  0.35031038
   0.75000000  0.00000000  0.35031038
   0.50000000  0.00000000  0.45010346
   0.75000000  0.75000000  0.45010346
   0.49999998  0.74836013  0.55086981
   0.74965336  0.99989596  0.55005614
   0.49999998  0.00000575  0.64886959
   0.75043345  0.75020048  0.64871010
   0.50000000  0.25000000  0.35031038
   0.75000000  0.50000000  0.35031038
   0.50000000  0.50000000  0.45010346
   0.75000000  0.25000000  0.45010346
   0.49999998  0.25148177  0.55081611
   0.74843602  0.49992399  0.55084423
   0.50000007  0.49940121  0.65681607
   0.75036390  0.24941890  0.64862699
   0.00000000  0.75000000  0.45010346
   0.25000000  0.00000000  0.45010346
   0.00000000  0.00000000  0.35031038
   0.25000000  0.75000000  0.35031038
   0.99999998  0.75054943  0.65147563
   0.24930624  0.99988069  0.65148738
   0.99999999  0.99991474  0.54990645
   0.24992232  0.75002005  0.55012728
   0.00000000  0.25000000  0.45010346
   0.25000000  0.50000000  0.45010346
   0.00000000  0.50000000  0.35031038
   0.25000000  0.25000000  0.35031038
   0.99999998  0.24917921  0.65150111
   0.24727065  0.49979035  0.65171576
   0.00000001  0.49992664  0.54995306
   0.24986720  0.24980321  0.55008132
   0.50000000  0.75000000  0.45010346
   0.75000000  0.00000000  0.45010346
   0.50000000  0.00000000  0.35031038
   0.75000000  0.75000000  0.35031038
   0.50000001  0.75269992  0.65186044
   0.75069371  0.99988069  0.65148738
   0.49999998  0.99988394  0.54995255
   0.75007765  0.75002006  0.55012728
   0.50000000  0.25000000  0.45010346
   0.75000000  0.50000000  0.45010346
   0.50000000  0.50000000  0.35031038
   0.75000000  0.25000000  0.35031038
   0.50000000  0.24717658  0.65159288
   0.75272940  0.49979035  0.65171572
   0.49999999  0.49996127  0.55084289
   0.75013277  0.24980319  0.55008132

 position of ions in cartesian coordinates  (Angst):
   0.00000000  6.40958522  7.50000000
   2.13652841  0.00000000  7.50000000
   0.00000000  0.00000000  9.63652841
   2.13652841  6.40958522  9.63652841
   8.54611357  6.40592817 11.77670944
   2.13949056  8.54522452 11.77647359
   8.54611343  8.54494145 13.89514513
   2.13282390  6.41129835 13.88861482
   0.00000000  2.13652841  7.50000000
   2.13652841  4.27305681  7.50000000
   0.00000000  4.27305681  9.63652841
   2.13652841  2.13652841  9.63652841
   8.54611360  2.13884249 11.77620994
   2.14989433  4.27240718 11.79334571
   0.00000001  4.27186452 13.89212009
   2.13341831  2.13156248 13.88683541
   4.27305681  6.40958522  7.50000000
   6.40958522  0.00000000  7.50000000
   4.27305681  0.00000000  9.63652841
   6.40958522  6.40958522  9.63652841
   4.27305664  6.39557067 11.79389423
   6.40662277  8.54522447 11.77647373
   4.27305666  0.00004913 13.89202868
   6.41328950  6.41129851 13.88861408
   4.27305681  2.13652841  7.50000000
   6.40958522  4.27305681  7.50000000
   4.27305681  4.27305681  9.63652841
   6.40958522  2.13652841  9.63652841
   4.27305660  2.14919180 11.79274444
   6.39621926  4.27240720 11.79334639
   4.27305739  4.26793949 14.06215968
   6.41269513  2.13156226 13.88683480
   0.00000000  6.40958522  9.63652841
   2.13652841  0.00000000  9.63652841
   0.00000000  0.00000000  7.50000000
   2.13652841  6.40958522  7.50000000
   8.54611343  6.41428068 13.94782304
   2.13059948  8.54509400 13.94807461
   8.54611351  8.54538494 11.77326893
   2.13586458  6.40975655 11.77799696
   0.00000000  2.13652841  9.63652841
   2.13652841  4.27305681  9.63652841
   0.00000000  4.27305681  7.50000000
   2.13652841  2.13652841  7.50000000
   8.54611343  2.12951381 13.94836854
   2.11320310  4.27126512 13.95296400
   0.00000013  4.27242987 11.77426696
   2.13539352  2.13484659 11.77701288
   4.27305681  6.40958522  9.63652841
   6.40958522  0.00000000  9.63652841
   4.27305681  0.00000000  7.50000000
   6.40958522  6.40958522  7.50000000
   4.27305689  6.43265901 13.95606168
   6.41551379  8.54509400 13.94807456
   4.27305663  8.54512177 11.77425588
   6.41024881  6.40975665 11.77799679
   4.27305681  2.13652841  9.63652841
   6.40958522  4.27305681  9.63652841
   4.27305681  4.27305681  7.50000000
   6.40958522  2.13652841  7.50000000
   4.27305681  2.11239918 13.95033340
   6.43291095  4.27126516 13.95296329
   4.27305672  4.27272582 11.79331771
   6.41071987  2.13484648 11.77701279



--------------------------------------------------------------------------------------------------------

--------------------------------------- Iteration      FINAL  ---------------------------------------


--------------------OUTCAR has been truncated-------------------------


--------------------OUTCAR has been truncated-------------------------


--------------------OUTCAR has been truncated-------------------------


--------------------OUTCAR has been truncated-------------------------


--------------------OUTCAR has been truncated-------------------------


--------------------OUTCAR has been truncated-------------------------


--------------------OUTCAR has been truncated-------------------------


--------------------OUTCAR has been truncated-------------------------


--------------------OUTCAR has been truncated-------------------------


--------------------OUTCAR has been truncated-------------------------



 VOLUME and BASIS-vectors are now :
 -----------------------------------------------------------------------------
  energy-cutoff  :      600.00
  volume of cell :     1563.67
      direct lattice vectors                 reciprocal lattice vectors
     8.546113626  0.000000000  0.000000000     0.117012252  0.000000000  0.000000000
     0.000000000  8.546113626  0.000000000     0.000000000  0.117012252  0.000000000
     0.000000000  0.000000000 21.409585219     0.000000000  0.000000000  0.046708051

  length of vectors
     8.546113626  8.546113626 21.409585219     0.117012252  0.117012252  0.046708051


 FORCES acting on ions:
    Electron-Ion                     Ewald-Force                    Non-Local-Force
 -----------------------------------------------------------------------------------------------
   0.419E-05 0.295E+00 0.201E+04   -.210E-05 -.303E+00 -.200E+04   -.718E-06 0.512E-02 -.669E+01
   -.295E+00 0.231E-01 0.201E+04   0.303E+00 -.237E-01 -.200E+04   -.502E-02 0.416E-03 -.669E+01
   0.140E-05 0.792E-01 0.666E+03   -.245E-05 -.827E-01 -.667E+03   0.341E-05 0.202E-02 0.344E+00
   -.152E+01 0.151E+01 0.664E+03   0.159E+01 -.158E+01 -.665E+03   -.407E-01 0.401E-01 0.476E+00
   -.229E-04 0.105E+01 -.665E+03   0.290E-04 -.105E+01 0.665E+03   -.290E-05 0.265E-01 -.184E+00
   -.105E+01 0.207E+00 -.665E+03   0.105E+01 -.215E+00 0.665E+03   -.264E-01 0.570E-02 -.178E+00
   -.435E-04 0.511E-01 -.199E+04   0.452E-04 -.339E-01 0.198E+04   -.117E-05 -.114E-01 0.575E+01
   -.334E+01 0.307E+01 -.199E+04   0.289E+01 -.258E+01 0.198E+04   0.331E+00 -.348E+00 0.587E+01
   0.397E-05 -.296E+00 0.201E+04   -.304E-05 0.303E+00 -.200E+04   0.606E-06 -.490E-02 -.669E+01
   -.324E+00 -.238E-01 0.201E+04   0.335E+00 0.241E-01 -.200E+04   -.771E-02 -.140E-03 -.672E+01
   0.329E-04 -.954E-01 0.664E+03   -.339E-04 0.926E-01 -.665E+03   -.992E-06 0.171E-02 0.362E+00
   -.151E+01 -.153E+01 0.664E+03   0.156E+01 0.158E+01 -.665E+03   -.355E-01 -.358E-01 0.464E+00
   0.851E-06 -.105E+01 -.665E+03   0.467E-05 0.105E+01 0.665E+03   -.428E-05 -.270E-01 -.169E+00
   -.417E+01 -.218E+00 -.675E+03   0.460E+01 0.227E+00 0.675E+03   -.381E+00 -.633E-02 -.283E+00
   -.108E-03 -.344E-01 -.199E+04   0.104E-03 0.136E-01 0.198E+04   0.324E-05 0.134E-01 0.568E+01
   -.276E+01 -.301E+01 -.199E+04   0.224E+01 0.252E+01 0.198E+04   0.368E+00 0.352E+00 0.587E+01
   -.196E-05 0.324E+00 0.201E+04   0.207E-05 -.336E+00 -.200E+04   0.155E-05 0.780E-02 -.672E+01
   0.295E+00 0.231E-01 0.201E+04   -.303E+00 -.237E-01 -.200E+04   0.502E-02 0.415E-03 -.669E+01
   -.294E-05 0.102E+00 0.664E+03   0.281E-05 -.112E+00 -.665E+03   0.223E-05 0.659E-02 0.361E+00
   0.152E+01 0.151E+01 0.664E+03   -.159E+01 -.158E+01 -.665E+03   0.407E-01 0.401E-01 0.476E+00
   0.430E-04 0.425E+01 -.676E+03   -.455E-04 -.467E+01 0.676E+03   0.257E-05 0.380E+00 -.270E+00
   0.105E+01 0.207E+00 -.665E+03   -.105E+01 -.215E+00 0.665E+03   0.264E-01 0.570E-02 -.178E+00
   0.595E-04 0.430E+00 -.199E+04   -.570E-04 -.480E+00 0.198E+04   -.179E-05 0.267E-01 0.568E+01
   0.334E+01 0.307E+01 -.199E+04   -.289E+01 -.258E+01 0.198E+04   -.331E+00 -.348E+00 0.587E+01
   -.233E-05 -.324E+00 0.201E+04   0.302E-05 0.336E+00 -.200E+04   -.892E-06 -.758E-02 -.672E+01
   0.324E+00 -.238E-01 0.201E+04   -.335E+00 0.241E-01 -.200E+04   0.771E-02 -.142E-03 -.672E+01
   -.279E-04 -.122E+00 0.660E+03   0.322E-04 0.126E+00 -.661E+03   -.408E-05 -.300E-02 0.534E+00
   0.151E+01 -.153E+01 0.664E+03   -.156E+01 0.158E+01 -.665E+03   0.355E-01 -.358E-01 0.464E+00
   0.133E-04 -.414E+01 -.674E+03   -.141E-04 0.456E+01 0.674E+03   0.165E-05 -.379E+00 -.292E+00
   0.417E+01 -.218E+00 -.675E+03   -.460E+01 0.227E+00 0.675E+03   0.381E+00 -.633E-02 -.283E+00
   0.137E-03 -.153E+01 -.205E+04   -.138E-03 0.149E+01 0.204E+04   -.379E-05 0.700E-01 0.681E+01
   0.276E+01 -.301E+01 -.199E+04   -.224E+01 0.252E+01 0.198E+04   -.368E+00 0.352E+00 0.587E+01
   0.454E-05 0.789E+00 0.499E+03   -.222E-05 -.790E+00 -.499E+03   -.242E-06 0.175E-02 -.289E-01
   -.793E+00 0.695E-01 0.499E+03   0.798E+00 -.638E-01 -.499E+03   -.650E-02 -.657E-02 -.290E-01
   0.268E-06 0.164E-01 0.151E+04   -.885E-06 -.164E-01 -.151E+04   0.183E-05 -.545E-05 0.306E+01
   -.240E+00 0.239E+00 0.151E+04   0.250E+00 -.249E+00 -.151E+04   -.126E-01 0.119E-01 0.305E+01
   -.358E-04 0.116E+01 -.152E+04   0.385E-04 -.119E+01 0.152E+04   -.115E-05 -.146E-01 -.467E+01
   -.117E+01 0.239E+00 -.152E+04   0.121E+01 -.270E+00 0.152E+04   0.725E-02 0.311E-01 -.468E+01
   -.129E-04 0.701E-01 -.494E+03   0.114E-04 -.679E-01 0.494E+03   0.197E-05 -.210E-02 0.174E+00
   -.224E+01 0.218E+01 -.494E+03   0.219E+01 -.213E+01 0.494E+03   0.644E-01 -.673E-01 0.521E+00
   0.713E-05 -.801E+00 0.499E+03   -.865E-05 0.810E+00 -.499E+03   0.139E-05 -.108E-01 -.282E-01
   -.892E+00 -.857E-01 0.496E+03   0.842E+00 0.895E-01 -.496E+03   0.539E-01 -.422E-02 -.181E+00
   0.389E-05 -.162E-01 0.151E+04   -.357E-05 0.164E-01 -.151E+04   0.108E-05 -.250E-03 0.305E+01
   -.237E+00 -.239E+00 0.151E+04   0.247E+00 0.249E+00 -.151E+04   -.116E-01 -.122E-01 0.305E+01
   -.384E-04 -.117E+01 -.152E+04   0.400E-04 0.121E+01 0.152E+04   -.879E-06 0.896E-02 -.469E+01
   -.695E+01 -.243E+00 -.151E+04   0.672E+01 0.254E+00 0.152E+04   0.459E+00 -.959E-02 -.384E+01
   0.459E-05 -.733E-01 -.492E+03   -.448E-05 0.709E-01 0.492E+03   -.109E-05 0.237E-02 0.470E+00
   -.210E+01 -.217E+01 -.494E+03   0.204E+01 0.211E+01 0.493E+03   0.707E-01 0.690E-01 0.534E+00
   -.450E-05 0.891E+00 0.496E+03   0.468E-05 -.837E+00 -.495E+03   -.264E-05 -.583E-01 -.188E+00
   0.793E+00 0.695E-01 0.499E+03   -.798E+00 -.638E-01 -.499E+03   0.650E-02 -.657E-02 -.290E-01
   -.681E-06 0.186E-01 0.151E+04   0.825E-06 -.194E-01 -.151E+04   0.776E-06 0.996E-03 0.305E+01
   0.240E+00 0.239E+00 0.151E+04   -.250E+00 -.249E+00 -.151E+04   0.126E-01 0.119E-01 0.305E+01
   0.788E-04 0.744E+01 -.151E+04   -.824E-04 -.724E+01 0.152E+04   0.544E-05 -.437E+00 -.388E+01
   0.117E+01 0.239E+00 -.152E+04   -.121E+01 -.270E+00 0.152E+04   -.725E-02 0.311E-01 -.468E+01
   0.205E-04 0.230E+00 -.492E+03   -.218E-04 -.237E+00 0.492E+03   0.901E-06 0.873E-02 0.469E+00
   0.224E+01 0.218E+01 -.494E+03   -.219E+01 -.213E+01 0.494E+03   -.644E-01 -.673E-01 0.521E+00
   -.715E-05 -.899E+00 0.496E+03   0.115E-04 0.852E+00 -.496E+03   -.213E-05 0.497E-01 -.173E+00
   0.892E+00 -.857E-01 0.496E+03   -.842E+00 0.895E-01 -.496E+03   -.539E-01 -.422E-02 -.181E+00
   0.279E-06 -.185E-01 0.151E+04   0.354E-05 0.196E-01 -.151E+04   0.931E-06 -.125E-02 0.303E+01
   0.237E+00 -.239E+00 0.151E+04   -.247E+00 0.249E+00 -.151E+04   0.116E-01 -.122E-01 0.305E+01
   0.501E-04 -.655E+01 -.151E+04   -.526E-04 0.629E+01 0.151E+04   0.445E-05 0.484E+00 -.380E+01
   0.695E+01 -.243E+00 -.151E+04   -.672E+01 0.254E+00 0.152E+04   -.459E+00 -.959E-02 -.384E+01
   0.156E-04 -.317E+00 -.520E+03   -.159E-04 0.325E+00 0.521E+03   0.965E-06 -.104E-01 -.101E+01
   0.210E+01 -.217E+01 -.494E+03   -.204E+01 0.211E+01 0.493E+03   -.707E-01 0.690E-01 0.534E+00
 -----------------------------------------------------------------------------------------------
   -.481E-05 -.189E+00 0.152E+02   -.330E-12 0.462E-12 -.364E-11   0.956E-05 0.168E+00 -.129E+02


 POSITION                                       TOTAL-FORCE (eV/Angst)
 -----------------------------------------------------------------------------------
      0.00000      6.40959      7.50000         0.000002     -0.002156      0.746202
      2.13653      0.00000      7.50000         0.002139     -0.000140      0.746288
      0.00000      0.00000      9.63653         0.000003     -0.001150      0.029583
      2.13653      6.40959      9.63653         0.018835     -0.018972      0.027073
      8.54611      6.40593     11.77671         0.000003      0.026139      0.016483
      2.13949      8.54522     11.77647        -0.025924     -0.001249      0.018209
      8.54611      8.54494     13.89515        -0.000000      0.004028     -0.295005
      2.13282      6.41130     13.88861        -0.073520      0.089914     -0.266909
      0.00000      2.13653      7.50000         0.000002      0.002116      0.746401
      2.13653      4.27306      7.50000         0.002953      0.000091      0.753626
      0.00000      4.27306      9.63653        -0.000002     -0.000868      0.049781
      2.13653      2.13653      9.63653         0.016696      0.016462      0.025307
      8.54611      2.13884     11.77621         0.000001     -0.026063      0.019561
      2.14989      4.27241     11.79335         0.000422      0.001692     -0.059955
      0.00000      4.27186     13.89212        -0.000002     -0.005318     -0.245888
      2.13342      2.13156     13.88684        -0.098459     -0.084758     -0.264295
      4.27306      6.40959      7.50000         0.000002     -0.002970      0.754175
      6.40959      0.00000      7.50000        -0.002141     -0.000140      0.746285
      4.27306      0.00000      9.63653         0.000003     -0.003047      0.049853
      6.40959      6.40959      9.63653        -0.018836     -0.018978      0.027072
      4.27306      6.39557     11.79389         0.000000     -0.000424     -0.053477
      6.40662      8.54522     11.77647         0.025923     -0.001247      0.018214
      4.27306      0.00005     13.89203         0.000000     -0.018789     -0.244451
      6.41329      6.41130     13.88861         0.073519      0.089917     -0.266914
      4.27306      2.13653      7.50000        -0.000000      0.002929      0.753153
      6.40959      4.27306      7.50000        -0.002956      0.000090      0.753622
      4.27306      4.27306      9.63653        -0.000000      0.001149      0.047657
      6.40959      2.13653      9.63653        -0.016698      0.016464      0.025308
      4.27306      2.14919     11.79274         0.000000      0.000013     -0.065274
      6.39622      4.27241     11.79335        -0.000419      0.001692     -0.059955
      4.27306      4.26794     14.06216        -0.000005      0.034039     -1.281688
      6.41270      2.13156     13.88683         0.098459     -0.084757     -0.264238
      0.00000      6.40959      9.63653         0.000002      0.001560      0.034325
      2.13653      0.00000      9.63653        -0.002950     -0.002017      0.033128
      0.00000      0.00000      7.50000         0.000002      0.000012     -0.254179
      2.13653      6.40959      7.50000        -0.004273      0.004034     -0.257881
      8.54611      6.41428     13.94782         0.000001     -0.050862     -0.281220
      2.13060      8.54509     13.94807         0.049281      0.005061     -0.286177
      8.54611      8.54538     11.77327         0.000001     -0.000235     -0.031811
      2.13586      6.40976     11.77800         0.023847     -0.026333      0.003956
      0.00000      2.13653      9.63653         0.000000     -0.004196      0.032113
      2.13653      4.27306      9.63653         0.013127     -0.001140      0.054331
      0.00000      4.27306      7.50000         0.000002     -0.000080     -0.258655
      2.13653      2.13653      7.50000        -0.003910     -0.004137     -0.257675
      8.54611      2.12951     13.94837         0.000001      0.049428     -0.290612
      2.11320      4.27127     13.95296         0.330255     -0.000947     -0.045811
      0.00000      4.27243     11.77427        -0.000001      0.000446      0.029680
      2.13539      2.13485     11.77701         0.028586      0.026839      0.007626
      4.27306      6.40959      9.63653        -0.000003     -0.014449      0.053958
      6.40959      0.00000      9.63653         0.002948     -0.002013      0.033130
      4.27306      0.00000      7.50000         0.000001      0.000357     -0.258665
      6.40959      6.40959      7.50000         0.004269      0.004034     -0.257885
      4.27306      6.43266     13.95606         0.000003     -0.338215     -0.063328
      6.41551      8.54509     13.94807        -0.049283      0.005062     -0.286177
      4.27306      8.54512     11.77426        -0.000000      0.004148      0.029263
      6.41025      6.40976     11.77800        -0.023849     -0.026331      0.003958
      4.27306      2.13653      9.63653         0.000002      0.011899      0.054589
      6.40959      4.27306      9.63653        -0.013128     -0.001142      0.054330
      4.27306      4.27306      7.50000         0.000005     -0.000430     -0.264541
      6.40959      2.13653      7.50000         0.003911     -0.004133     -0.257673
      4.27306      2.11240     13.95033         0.000003      0.326839     -0.031417
      6.43291      4.27127     13.95296        -0.330258     -0.000947     -0.045801
      4.27306      4.27273     11.79332         0.000001     -0.004657      0.011687
      6.41072      2.13485     11.77701        -0.028587      0.026836      0.007625
 -----------------------------------------------------------------------------------
    total drift:                                0.000003     -0.000855     -0.003540


--------------------------------------------------------------------------------------------------------



  FREE ENERGIE OF THE ION-ELECTRON SYSTEM (eV)
  ---------------------------------------------------
  free  energy   TOTEN  =      -469.73280649 eV

  energy  without entropy=     -469.73280649  energy(sigma->0) =     -469.73280649



--------------------------------------------------------------------------------------------------------


    POTLOK:  cpu time      0.9383: real time      0.9383


--------------------------------------------------------------------------------------------------------


     LOOP+:  cpu time   5226.8528: real time   5228.2810
    4ORBIT:  cpu time      0.0000: real time      0.0000

 total amount of memory used by VASP MPI-rank0   193379. kBytes
=======================================================================

   base      :      30000. kBytes
   nonl-proj :      12234. kBytes
   fftplans  :       7997. kBytes
   grid      :       7379. kBytes
   one-center:         64. kBytes
   HF        :         67. kBytes
   nonlr-proj:       7046. kBytes
   wavefun   :       6450. kBytes
   fock_wrk  :     122142. kBytes

  
  
 General timing and accounting informations for this job:
 ========================================================
  
                  Total CPU time used (sec):     5263.208
                            User time (sec):     5252.782
                          System time (sec):       10.426
                         Elapsed time (sec):     5275.583
  
                   Maximum memory used (kb):      448048.
                   Average memory used (kb):          N/A
  
                          Minor page faults:       289789
                          Major page faults:            1
                 Voluntary context switches:        14692
