 **********************************************************************
                          MRCC program system
 **********************************************************************
 
                              Written by
     Mihaly Kallay, Peter R. Nagy, David Mester, Laszlo Gyevi-Nagy,
        Jozsef Csoka, P. Bernat Szabo, Zoltan Rolik, Gyula Samu,
     Jozsef Csontos, Bence Hegely, Adam Ganyecz, Istvan Ladjanszki,
       Lorant Szegedy, Bence Ladoczki, Klara Petrov, Mate Farkas,
                    Pal D. Mezei, and Reka A. Horvath
 
        Department of Physical Chemistry and Materials Science
            Budapest University of Technology and Economics
                  Budapest P.O.Box 91, H-1521 Hungary
 
                              www.mrcc.hu
 
                      Release date: March 18, 2022

 ************************ 2023-02-05 13:21:04 *************************
 Executing minp...

 Reading input from MINP...
 
 Input file:
 
calc=FNO-CCSD(T)
verbosity=3
mem=220GB
unit=angs
scfiguess=small
scfalg=locfit1
ccmaxit=400
ccsdalg=dfdirect
ccsdthreads=4
ccsdmkl=thr
ptthreads=4
lnoepsv=1e-5
naf_cor=1e-2
basis=aug-cc-pVQZ
basis_sm=def2-SVP
dfbasis_scf=def2-QZVPP-RI-JK
dfbasis_cor=aug-cc-pVQZ-RI
unit=angs
geom=xyz
16

C    34.41670262    34.07107264    10.41543014
C    33.11117461    33.45680459    10.91530835
H    34.24160149    35.00442132     9.86225048
H    34.94674030    33.36940783     9.75379242
H    35.10002891    34.30603621    11.24227357
H    32.42643037    33.26105434    10.07939442
H    32.59136835    34.12756100    11.61262818
H    33.28915165    32.50678735    11.43686767
C    45.74245091    27.74053668    10.40840413
C    47.04216650    27.12669671    10.92356358
H    45.21716670    27.03634178     9.74574003
H    45.92449924    28.67149383     9.85293887
H    45.05140676    27.98114066    11.22701403
H    47.73607526    26.93003715    10.09557036
H    46.85792277    26.17717467    11.44395536
H    47.55426425    27.79828785    11.62583355

--------------------Output has been truncated-------------------------


--------------------Output has been truncated-------------------------


--------------------Output has been truncated-------------------------


--------------------Output has been truncated-------------------------


--------------------Output has been truncated-------------------------


--------------------Output has been truncated-------------------------


--------------------Output has been truncated-------------------------


--------------------Output has been truncated-------------------------


--------------------Output has been truncated-------------------------


--------------------Output has been truncated-------------------------


 
 Reference energy [au]:                       -79.264425233416
 DF-MP2 singlet pair energy [au]:              -0.317723369948
 DF-MP2 triplet pair energy [au]:              -0.076906841791
 DF-SCS-MP2 correlation energy [au]:           -0.406903657868
 DF-SCS-MP2 energy [au]:                      -79.671328891284
 DF-SOS-MP2 correlation energy [au]:           -0.413040380932
 DF-SOS-MP2 energy [au]:                      -79.677465614348
 DF-MP2 correlation energy [au]:               -0.394630211739
 DF-MP2 energy [au]:                          -79.659055445155

 Results in FNO basis:
 
 
 Reference energy [au]:                       -79.264425233416
 DF-MP2 singlet pair energy [au]:              -0.312549735466
 DF-MP2 triplet pair energy [au]:              -0.076620954544
 DF-SCS-MP2 correlation energy [au]:           -0.400600000740
 DF-SCS-MP2 energy [au]:                      -79.665025234156
 DF-SOS-MP2 correlation energy [au]:           -0.406314656106
 DF-SOS-MP2 energy [au]:                      -79.670739889522
 DF-MP2 correlation energy [au]:               -0.389170690010
 DF-MP2 energy [au]:                          -79.653595923426

 Results in NAF basis:
 
 
 Reference energy [au]:                       -79.264425233416
 DF-MP2 singlet pair energy [au]:              -0.312528748589
 DF-MP2 triplet pair energy [au]:              -0.076628951758
 DF-SCS-MP2 correlation energy [au]:           -0.400577482226
 DF-SCS-MP2 energy [au]:                      -79.665002715642
 DF-SOS-MP2 correlation energy [au]:           -0.406287373166
 DF-SOS-MP2 energy [au]:                      -79.670712606582
 DF-MP2 correlation energy [au]:               -0.389157700347
 DF-MP2 energy [au]:                          -79.653582933763

 ************************ 2023-02-05 13:22:33 *************************
 Executing ccsd...

 Allocation of 220.0 Gbytes of memory...

 Direct DF-CCSD(T) calculation
 
 Convergence criterion:  1.0E-06
 
 Number of occupied/virtual/auxiliary orbitals:     7   175   551
    851.32 MB is the minimal memory requirement for (T)
    190.43 MB is the minimal memory requirement for CCSD
 
 Reference energy [au]:             -79.264425233416
 T1 contribution [au]:                0.000000000000
 Same spin MP2 energy [au]:          -0.076624950587
 Opposite spin MP2 energy [au]:      -0.312539237319
 MP2 correlation energy [au]:        -0.389164187906
 Total MP2 energy [au]:             -79.653589421322
 MP2 correction [au]:                -0.005466023833
 
 
 CPU time [min]:     0.402                   Wall time [min]:     0.049
 
 Starting CCSD iterations...
 
                     Residual norm          Energy
 Iteration  1        0.179604144327      -79.671502254499
 Iteration  2        0.044511754083      -79.681084599113
 Iteration  3        0.013090143513      -79.682220398571
 Iteration  4        0.002650351894      -79.682227615812
 Iteration  5        0.000560981242      -79.682233483416
 Iteration  6        0.000156935215      -79.682235533795
 Iteration  7        0.000037097433      -79.682235308656
 Iteration  8        0.000009999584      -79.682235672546
 
 CCSD iteration has converged in  8 steps.
     3804.92 MB memory was utilized by CCSD
 
 T1 diagnostic:      8.231E-03            D1 diagnostic:      1.428E-02
 
 T1 contribution [au]:                                  0.000000000000
 PPL energy contribution [au]:                          0.108936210161
 Scaled PPL energy contribution [au]:                   0.110475969570

 OS-PPL energy contribution [au]:                       0.095542944278
 Scaled OS-PPL energy contribution [au]:                0.097137886655
 SS-PPL energy contribution [au]:                       0.013393265883
 Scaled SS-PPL energy contribution [au]:                0.013441345579

 Opposite spin CCSD energy [au]:                       -0.345141381399
 Same spin CCSD energy [au]:                           -0.072676827024
 CCSD correlation energy [au]:                         -0.417818208423
 CCSD correlation energy + MP2 correction [au]:        -0.423284232256
 CCSD correlation energy + MP2 + PPL corr. [au]:       -0.421744472847
 Total CCSD energy [au]:                              -79.682243441839
 Total CCSD energy + MP2 correction [au]:             -79.687709465672
 Total CCSD energy + MP2 + PPL corr. [au]:            -79.686169706263
 
 CPU time [min]:     6.492                   Wall time [min]:     0.236
 
 Calculation of (T) correction...
 
 
      783.34 MB memory is utilized for (T)

 0%       25%       50%       75%       100%
 |---------|---------|---------|---------| 
 
 (T) correction [au]:                                    -0.014762781923
 (T*) correction [au]:                                   -0.014970133268
 (T+) correction [au]:                                   -0.014966603682
 CCSD(T) correlation energy [au]:                        -0.432580990345
 CCSD(T) correlation energy + MP2 correction [au]:       -0.438047014178
 CCSD(T+) correlation en. + MP2 + PPL corr. [au]:        -0.436711076529
 Total CCSD(T) energy [au]:                             -79.697006223761
 Total CCSD(T) energy + MP2 correction [au]:            -79.702472247594
 Total CCSD(T+) energy + MP2 + PPL corr. [au]:          -79.701136309945
 
 CPU time [min]:     8.195                   Wall time [min]:     0.292
 
 ************************ 2023-02-05 13:22:51 *************************
                      Normal termination of mrcc.
 **********************************************************************
